 Gaussian 16, Revision A.03,

 -----------------------------------------------------------
 # opt freq B3LYP/6-31G(d) empiricaldispersion=gd3bj scf=xqc
 -----------------------------------------------------------

 -------------------------------
 CID_105254071_JID_5109_neutraal
 -------------------------------
 Symbolic Z-matrix:
 Charge =  0 Multiplicity = 1

 SCF Done:  E(RB3LYP) =  -666.202909012     A.U. after   14 cycles
 SCF Done:  E(RB3LYP) =  -666.210172361     A.U. after   13 cycles
 SCF Done:  E(RB3LYP) =  -666.211563728     A.U. after   12 cycles
 SCF Done:  E(RB3LYP) =  -666.211916362     A.U. after   11 cycles
 SCF Done:  E(RB3LYP) =  -666.212111028     A.U. after   12 cycles
 SCF Done:  E(RB3LYP) =  -666.212192375     A.U. after   11 cycles
 SCF Done:  E(RB3LYP) =  -666.212238388     A.U. after   11 cycles
 SCF Done:  E(RB3LYP) =  -666.212259150     A.U. after   10 cycles
 SCF Done:  E(RB3LYP) =  -666.212284107     A.U. after   11 cycles
 SCF Done:  E(RB3LYP) =  -666.212308654     A.U. after   10 cycles
 SCF Done:  E(RB3LYP) =  -666.216724174     A.U. after    9 cycles
 SCF Done:  E(RB3LYP) =  -666.216724612     A.U. after    9 cycles
 SCF Done:  E(RB3LYP) =  -666.216724786     A.U. after    8 cycles
 SCF Done:  E(RB3LYP) =  -666.216724814     A.U. after    8 cycles
 SCF Done:  E(RB3LYP) =  -666.216724810     A.U. after    6 cycles
 Optimization completed.
    -- Stationary point found.
 Normal termination of Gaussian 16 at Thu Dec 10 15:00:24 2020.

 --------------------------------------------------------------------
 #N Geom=AllCheck Guess=TCheck SCRF=Check GenChk RB3LYP/6-31G(d) Freq
 --------------------------------------------------------------------

 Structure from the checkpoint file:  "JID_5109.chk"
 -------------------------------
 CID_105254071_JID_5109_neutraal
 -------------------------------
 Charge =  0 Multiplicity = 1

 SCF Done:  E(RB3LYP) =  -666.216724810     A.U. after    1 cycles

  Exact polarizability: 148.445   0.525 124.756   1.888   9.761 120.124
 Approx polarizability: 207.954  -4.353 178.897   6.433  23.821 188.404

                      1                      2                      3
                      A                      A                      A
 Frequencies --     22.1390                42.9644                59.5491
 Red. masses --      3.1621                 4.3318                 2.6492
 Frc consts  --      0.0009                 0.0047                 0.0055
 IR Inten    --      0.2094                 0.5576                 1.4716

                      4                      5                      6
                      A                      A                      A
 Frequencies --     85.1458                89.0785                99.5349
 Red. masses --      3.2887                 4.3590                 3.3428
 Frc consts  --      0.0140                 0.0204                 0.0195
 IR Inten    --      0.1683                 2.3492                 1.0908

                      7                      8                      9
                      A                      A                      A
 Frequencies --    118.5621               166.0044               211.1806
 Red. masses --      3.6577                 1.5587                 2.9224
 Frc consts  --      0.0303                 0.0253                 0.0768
 IR Inten    --      0.7218                 0.8797                 8.3556

                     10                     11                     12
                      A                      A                      A
 Frequencies --    217.3687               239.5373               253.2324
 Red. masses --      2.6873                 2.3184                 1.8350
 Frc consts  --      0.0748                 0.0784                 0.0693
 IR Inten    --      2.1722                 7.8653                 9.1788

                     13                     14                     15
                      A                      A                      A
 Frequencies --    271.3317               312.6569               337.1833
 Red. masses --      2.3097                 2.7435                 2.3121
 Frc consts  --      0.1002                 0.1580                 0.1549
 IR Inten    --      1.5229                 3.7695                 4.4004

                     16                     17                     18
                      A                      A                      A
 Frequencies --    348.3127               394.5635               397.9803
 Red. masses --      2.4732                 2.0244                 2.3037
 Frc consts  --      0.1768                 0.1857                 0.2150
 IR Inten    --      5.3278                 7.3932                 1.5690

                     19                     20                     21
                      A                      A                      A
 Frequencies --    473.7336               500.6647               557.3852
 Red. masses --      3.5558                 3.1379                 2.7895
 Frc consts  --      0.4702                 0.4634                 0.5106
 IR Inten    --      4.5580                11.9148                 0.9689

                     22                     23                     24
                      A                      A                      A
 Frequencies --    689.9591               700.1487               715.8013
 Red. masses --      2.7647                 4.1508                 6.0329
 Frc consts  --      0.7754                 1.1989                 1.8212
 IR Inten    --      0.1815                 2.1257                 1.9945

                     25                     26                     27
                      A                      A                      A
 Frequencies --    736.3035               791.7969               796.6536
 Red. masses --      2.7168                 1.9387                 1.1322
 Frc consts  --      0.8678                 0.7161                 0.4234
 IR Inten    --     14.2317                 5.0216                 6.8671

                     28                     29                     30
                      A                      A                      A
 Frequencies --    814.2992               829.7637               835.9567
 Red. masses --      1.5143                 1.3942                 1.3973
 Frc consts  --      0.5916                 0.5656                 0.5753
 IR Inten    --      9.6477                26.4448                21.0647

                     31                     32                     33
                      A                      A                      A
 Frequencies --    844.9408               887.6316               903.1794
 Red. masses --      2.1119                 2.1071                 1.5716
 Frc consts  --      0.8883                 0.9781                 0.7553
 IR Inten    --     23.6629                 4.5447                 3.2316

                     34                     35                     36
                      A                      A                      A
 Frequencies --    916.3869               957.3466               985.1484
 Red. masses --      2.0978                 2.1772                 2.3691
 Frc consts  --      1.0379                 1.1757                 1.3547
 IR Inten    --      2.0318                17.6069                26.3971

                     37                     38                     39
                      A                      A                      A
 Frequencies --    990.5980               999.2812              1050.5738
 Red. masses --      2.1507                 2.4105                 1.7427
 Frc consts  --      1.2435                 1.4182                 1.1332
 IR Inten    --     56.2293                34.8069                14.0380

                     40                     41                     42
                      A                      A                      A
 Frequencies --   1061.0957              1066.5703              1072.3357
 Red. masses --      1.8288                 2.6919                 1.8144
 Frc consts  --      1.2132                 1.8042                 1.2292
 IR Inten    --      3.6447                24.4784                 2.4082

                     43                     44                     45
                      A                      A                      A
 Frequencies --   1089.4295              1114.8719              1122.0192
 Red. masses --      1.3876                 2.2762                 2.0570
 Frc consts  --      0.9703                 1.6669                 1.5258
 IR Inten    --      1.6094                 4.6940                 3.0681

                     46                     47                     48
                      A                      A                      A
 Frequencies --   1148.4402              1150.4729              1170.4059
 Red. masses --      1.1463                 1.7060                 2.0877
 Frc consts  --      0.8908                 1.3304                 1.6850
 IR Inten    --      0.9719                 3.9557                14.9113

                     49                     50                     51
                      A                      A                      A
 Frequencies --   1196.4909              1211.5774              1214.9345
 Red. masses --      2.4439                 1.7628                 1.7258
 Frc consts  --      2.0613                 1.5246                 1.5008
 IR Inten    --     40.9616                 1.9920                 3.6389

                     52                     53                     54
                      A                      A                      A
 Frequencies --   1236.2785              1247.5759              1278.2418
 Red. masses --      1.8370                 3.7778                 1.4891
 Frc consts  --      1.6542                 3.4644                 1.4336
 IR Inten    --      1.1354                 5.6451                 5.8303

                     55                     56                     57
                      A                      A                      A
 Frequencies --   1293.5455              1296.1951              1313.7514
 Red. masses --      1.4020                 1.8156                 1.8383
 Frc consts  --      1.3822                 1.7973                 1.8694
 IR Inten    --     24.7718                 8.6623                21.8096

                     58                     59                     60
                      A                      A                      A
 Frequencies --   1337.7544              1343.1071              1351.9290
 Red. masses --      1.2514                 2.1723                 1.6134
 Frc consts  --      1.3195                 2.3088                 1.7374
 IR Inten    --      6.7776                 6.7307                 4.2622

                     61                     62                     63
                      A                      A                      A
 Frequencies --   1374.8939              1397.8544              1411.3024
 Red. masses --      1.3208                 1.5484                 1.5151
 Frc consts  --      1.4711                 1.7826                 1.7780
 IR Inten    --      2.6902                 3.3579                 7.2589

                     64                     65                     66
                      A                      A                      A
 Frequencies --   1417.0613              1437.1210              1451.6918
 Red. masses --      1.3351                 1.6337                 1.2821
 Frc consts  --      1.5796                 1.9879                 1.5919
 IR Inten    --     10.2310                 1.4275                 6.7931

                     67                     68                     69
                      A                      A                      A
 Frequencies --   1473.4958              1495.0744              1503.7549
 Red. masses --      1.8710                 1.0930                 1.4681
 Frc consts  --      2.3934                 1.4394                 1.9559
 IR Inten    --     11.4662                 1.1795                10.1139

                     70                     71                     72
                      A                      A                      A
 Frequencies --   1508.6096              1522.1838              1526.8772
 Red. masses --      1.1188                 1.0596                 1.1958
 Frc consts  --      1.5003                 1.4465                 1.6426
 IR Inten    --      0.7770                 1.7814                15.8908

                     73                     74                     75
                      A                      A                      A
 Frequencies --   1530.0259              1536.2467              1538.8478
 Red. masses --      1.0488                 1.1774                 1.2180
 Frc consts  --      1.4466                 1.6372                 1.6994
 IR Inten    --     10.1904                 0.4348                 8.3522

                     76                     77                     78
                      A                      A                      A
 Frequencies --   1595.5551              1728.4585              2903.6119
 Red. masses --      5.1977                 1.0655                 1.0808
 Frc consts  --      7.7962                 1.8755                 5.3690
 IR Inten    --      1.8608                12.2079                60.4332

                     79                     80                     81
                      A                      A                      A
 Frequencies --   3055.0390              3056.6079              3062.2446
 Red. masses --      1.0654                 1.0358                 1.0645
 Frc consts  --      5.8589                 5.7019                 5.8811
 IR Inten    --     29.9512                15.1545                16.2400

                     82                     83                     84
                      A                      A                      A
 Frequencies --   3092.4275              3107.7955              3111.3124
 Red. masses --      1.0918                 1.0758                 1.0864
 Frc consts  --      6.1519                 6.1219                 6.1963
 IR Inten    --      9.3085                24.9838                 3.6367

                     85                     86                     87
                      A                      A                      A
 Frequencies --   3125.1829              3128.9616              3139.6894
 Red. masses --      1.1024                 1.1011                 1.0866
 Frc consts  --      6.3439                 6.3516                 6.3110
 IR Inten    --     33.2916                46.6284                22.6090

                     88                     89                     90
                      A                      A                      A
 Frequencies --   3143.7744              3149.7562              3165.2562
 Red. masses --      1.0526                 1.0597                 1.1063
 Frc consts  --      6.1294                 6.1943                 6.5302
 IR Inten    --     14.8572                10.2154                 7.5067

                     91                     92                     93
                      A                      A                      A
 Frequencies --   3219.3647              3233.6816              3268.9978
 Red. masses --      1.1194                 1.1162                 1.0977
 Frc consts  --      6.8358                 6.8769                 6.9114
 IR Inten    --      0.7935                23.2336                 3.7651

                     94                     95                     96
                      A                      A                      A
 Frequencies --   3363.1156              3514.1417              3551.8426
 Red. masses --      1.0566                 1.0839                 1.0752
 Frc consts  --      7.0410                 7.8866                 7.9916
 IR Inten    --     20.9202                 1.0452                 6.3438

 - Thermochemistry -
 -------------------
 Temperature   298.150 Kelvin.  Pressure   1.00000 Atm.
 Atom     1 has atomic number  6 and mass  12.00000

 Molecular mass:   209.16405 amu.
 Principal axes and moments of inertia in atomic units:
                           1         2         3
     Eigenvalues --  2230.018854387.190284895.83159
           X            0.99973  -0.01642  -0.01672
           Y            0.01642   0.99987  -0.00013
           Z            0.01672  -0.00014   0.99986
 This molecule is an asymmetric top.
 Rotational symmetry number  1.
 Warning -- assumption of classical behavior for rotation
           may cause significant error
 Rotational temperatures (Kelvin)      0.03884     0.01974     0.01769
 Rotational constants (GHZ):           0.80929     0.41137     0.36863
 Zero-point vibrational energy     788355.6 (Joules/Mol)
                                  188.42150 (Kcal/Mol)
 Warning -- explicit consideration of  21 degrees of freedom as
           vibrations may cause significant error
 Vibrational temperatures:     31.85    61.82    85.68   122.51   128.16
          (Kelvin)            143.21   170.58   238.84   303.84   312.75
                              344.64   364.34   390.39   449.84   485.13
                              501.14   567.69   572.60   681.60   720.34
                              801.95   992.70  1007.36  1029.88  1059.38
                             1139.22  1146.21  1171.59  1193.84  1202.76
                             1215.68  1277.10  1299.47  1318.48  1377.41
                             1417.41  1425.25  1437.74  1511.54  1526.68
                             1534.56  1542.85  1567.45  1604.05  1614.34
                             1652.35  1655.27  1683.95  1721.48  1743.19
                             1748.02  1778.73  1794.98  1839.10  1861.12
                             1864.94  1890.20  1924.73  1932.43  1945.12
                             1978.17  2011.20  2030.55  2038.84  2067.70
                             2088.66  2120.03  2151.08  2163.57  2170.55
                             2190.08  2196.84  2201.37  2210.32  2214.06
                             2295.65  2486.87  4177.65  4395.52  4397.78
                             4405.89  4449.31  4471.42  4476.48  4496.44
                             4501.88  4517.31  4523.19  4531.80  4554.10
                             4631.95  4652.55  4703.36  4838.77  5056.07
                             5110.31

 Zero-point correction=                           0.300269 (Hartree/Particle)
 Thermal correction to Energy=                    0.315852
 Thermal correction to Enthalpy=                  0.316796
 Thermal correction to Gibbs Free Energy=         0.256084
 Sum of electronic and zero-point Energies=           -665.916456
 Sum of electronic and thermal Energies=              -665.900873
 Sum of electronic and thermal Enthalpies=            -665.899929
 Sum of electronic and thermal Free Energies=         -665.960641

                     E (Thermal)             CV                S
                      KCal/Mol        Cal/Mol-Kelvin    Cal/Mol-Kelvin
 Total                  198.200             58.047            127.779
 Electronic               0.000              0.000              0.000
 Translational            0.889              2.981             41.918
 Rotational               0.889              2.981             32.238
 Vibrational            196.423             52.086             53.623
 Vibration     1          0.593              1.985              6.432
 Vibration     2          0.595              1.980              5.117
 Vibration     3          0.597              1.974              4.472
 Vibration     4          0.601              1.959              3.769
 Vibration     5          0.602              1.957              3.680
 Vibration     6          0.604              1.949              3.463
 Vibration     7          0.609              1.934              3.124
 Vibration     8          0.624              1.884              2.480
 Vibration     9          0.643              1.824              2.033
 Vibration    10          0.646              1.815              1.981
 Vibration    11          0.657              1.780              1.806
 Vibration    12          0.664              1.757              1.708
 Vibration    13          0.675              1.726              1.588
 Vibration    14          0.701              1.650              1.348
 Vibration    15          0.718              1.601              1.225
 Vibration    16          0.726              1.579              1.174
 Vibration    17          0.762              1.482              0.983
 Vibration    18          0.764              1.474              0.970
 Vibration    19          0.831              1.308              0.727
 Vibration    20          0.856              1.249              0.656
 Vibration    21          0.913              1.124              0.529

 Optimization completed.
    -- Stationary point found.
 Normal termination of Gaussian 16 at Thu Dec 10 15:12:14 2020.

 ----------------------------------------------------------------------
 # B3LYP/6-311++G(d,p) empiricaldispersion=gd3bj scf=xqc pop=npa geom=c
 heck
 ----------------------------------------------------------------------

 ---------------------------------------
 CID_105254071_JID_5109_Energie_neutraal
 ---------------------------------------
 Structure from the checkpoint file:  "JID_5109.chk"
 Charge =  0 Multiplicity = 1

 SCF Done:  E(RB3LYP) =  -666.406850995     A.U. after   14 cycles
 Normal termination of Gaussian 16 at Thu Dec 10 15:17:04 2020.

 ----------------------------------------------------------------------
 # B3LYP/6-311++G(d,p) empiricaldispersion=gd3bj scf=xqc pop=npa geom=c
 heck
 ----------------------------------------------------------------------

 -------------------------------------
 CID_105254071_JID_5109_Energie_kation
 -------------------------------------
 Structure from the checkpoint file:  "JID_5109.chk"
 Charge =  1 Multiplicity = 2

 SCF Done:  E(UB3LYP) =  -666.086457377     A.U. after   28 cycles
 Normal termination of Gaussian 16 at Thu Dec 10 15:28:38 2020.
 Gaussian 16:  ES64L-G16RevA.03 25-Dec-2016

 ----------------------------------------------------------------------
 # B3LYP/6-311++G(d,p) empiricaldispersion=gd3bj scf=xqc pop=npa geom=c
 heck
 ----------------------------------------------------------------------

 ------------------------------------
 CID_105254071_JID_5109_Energie_anion
 ------------------------------------
 Structure from the checkpoint file:  "JID_5109.chk"
 Charge = -1 Multiplicity = 2

                         Standard orientation:
 ---------------------------------------------------------------------
 Center     Atomic      Atomic             Coordinates (Angstroms)
 Number     Number       Type             X           Y           Z
 ---------------------------------------------------------------------
      1          6           0       -1.467725    2.857054   -0.220945
      2          6           0       -0.931978    2.135718    1.016254
      3          6           0       -1.661371    0.825563    1.328338
      4          7           0       -1.804610   -0.062378    0.173223
      5          6           0       -0.917855   -0.866356   -0.485038
      6          6           0       -1.676798   -1.423001   -1.496177
      7          7           0       -2.949459   -0.949109   -1.423595
      8          7           0       -3.030338   -0.128809   -0.412980
      9          6           0        0.544046   -1.048215   -0.185811
     10          6           0        1.416174   -0.011209   -0.925945
     11          6           0        2.902683   -0.220448   -0.724323
     12          6           0        3.858478    0.911167   -1.000480
     13          6           0        3.630173    0.458240    0.419326
     14          7           0        0.792992   -1.008174    1.255263
     15          7           0        0.300889   -2.139586    1.974643
     16          1           0       -1.320213    2.256659   -1.124769
     17          1           0       -0.957285    3.815379   -0.363972
     18          1           0       -2.542125    3.051335   -0.132403
     19          1           0        0.138744    1.931701    0.912108
     20          1           0       -1.034919    2.774952    1.902588
     21          1           0       -1.137815    0.289032    2.120266
     22          1           0       -2.689228    1.026587    1.639050
     23          1           0       -1.375133   -2.133696   -2.253005
     24          1           0        0.814659   -2.041493   -0.598506
     25          1           0        1.170332   -0.077359   -1.992566
     26          1           0        1.138643    0.997787   -0.604143
     27          1           0        3.256676   -1.216276   -0.990162
     28          1           0        4.810795    0.679681   -1.468268
     29          1           0        3.434728    1.865213   -1.303422
     30          1           0        3.051648    1.107836    1.071425
     31          1           0        4.427526   -0.081601    0.922575
     32          1           0        1.792968   -0.962196    1.422370
     33          1           0       -0.695791   -1.992725    2.126391
     34          1           0        0.374502   -2.985511    1.397355
 ---------------------------------------------------------------------

 SCF Done:  E(UB3LYP) =  -666.396023824     A.U. after   33 cycles
 SCF Done:  E(UB3LYP) =  -666.396023824     a.u. after    1 cycles

 The electronic state is 2-A.
 Alpha  occ. eigenvalues --  -14.30876 -14.27232 -14.23979 -14.23911 -14.23375
 Alpha  occ. eigenvalues --  -10.13004 -10.12827 -10.12707 -10.09955 -10.09044
 Alpha  occ. eigenvalues --  -10.08952 -10.08885 -10.08214 -10.08153 -10.07509
 Alpha  occ. eigenvalues --   -1.00183  -0.88380  -0.82567  -0.77607  -0.73971
 Alpha  occ. eigenvalues --   -0.70322  -0.69417  -0.63700  -0.62182  -0.56991
 Alpha  occ. eigenvalues --   -0.53609  -0.53060  -0.51344  -0.48498  -0.46966
 Alpha  occ. eigenvalues --   -0.43044  -0.42437  -0.41005  -0.39810  -0.39568
 Alpha  occ. eigenvalues --   -0.37966  -0.37207  -0.37113  -0.35327  -0.34129
 Alpha  occ. eigenvalues --   -0.33196  -0.31534  -0.31310  -0.29287  -0.27735
 Alpha  occ. eigenvalues --   -0.27545  -0.27398  -0.26556  -0.25549  -0.23732
 Alpha  occ. eigenvalues --   -0.20897  -0.20479  -0.19515  -0.18224  -0.17195
 Alpha  occ. eigenvalues --   -0.16771  -0.15703   0.04073
 Alpha virt. eigenvalues --    0.05632   0.06422   0.07189   0.08122   0.08163
 Alpha virt. eigenvalues --    0.08552   0.08939   0.09430   0.10016   0.10702
 Alpha virt. eigenvalues --    0.11085   0.11964   0.12206   0.12537   0.12805

  Beta  occ. eigenvalues --  -14.30872 -14.27225 -14.23975 -14.23899 -14.23340
  Beta  occ. eigenvalues --  -10.12981 -10.12828 -10.12698 -10.09946 -10.09023
  Beta  occ. eigenvalues --  -10.08943 -10.08871 -10.08195 -10.08133 -10.07494
  Beta  occ. eigenvalues --   -1.00174  -0.88351  -0.82554  -0.77572  -0.73940
  Beta  occ. eigenvalues --   -0.70294  -0.69387  -0.63649  -0.62157  -0.56952
  Beta  occ. eigenvalues --   -0.53579  -0.53035  -0.51281  -0.48436  -0.46936
  Beta  occ. eigenvalues --   -0.43007  -0.42401  -0.40952  -0.39779  -0.39513
  Beta  occ. eigenvalues --   -0.37927  -0.37167  -0.37086  -0.35301  -0.34095
  Beta  occ. eigenvalues --   -0.33174  -0.31505  -0.31285  -0.29237  -0.27705
  Beta  occ. eigenvalues --   -0.27518  -0.27367  -0.26514  -0.25529  -0.23716
  Beta  occ. eigenvalues --   -0.20868  -0.20448  -0.19495  -0.18211  -0.17168
  Beta  occ. eigenvalues --   -0.16738  -0.15656
  Beta virt. eigenvalues --    0.06128   0.06929   0.06995   0.07663   0.08376
  Beta virt. eigenvalues --    0.08691   0.08920   0.09257   0.09838   0.10231
  Beta virt. eigenvalues --    0.11084   0.11500   0.12283   0.12314   0.12663

 Mulliken charges and spin densities:
               1          2
     1  C   -0.279376  -0.335295
     2  C   -0.405014   0.317097
     3  C    0.445755  -0.701217
     4  N    0.094984   0.154365
     5  C    0.130229   0.341008
     6  C   -0.808802   0.094948
     7  N   -0.157423   0.027185
     8  N    0.099175  -0.073312
     9  C    0.178086  -0.664128
    10  C    2.058666  -2.639055
    11  C   -1.773836   1.916586
    12  C    0.714940  -1.104659
    13  C    0.435107  -0.929835
    14  N   -0.253371   0.031890
    15  N   -0.252594  -0.106249
    16  H    0.056053   0.102791
    17  H   -0.225697   0.373174
    18  H    0.130472   0.013843
    19  H    0.383309  -0.221618
    20  H   -0.439505   0.618515
    21  H    0.054616   0.065361
    22  H    0.119993   0.085883
    23  H   -0.308903   0.468841
    24  H   -0.139052   0.393625
    25  H    0.204648  -0.016571
    26  H    0.470198  -0.388343
    27  H   -1.037502   1.287429
    28  H   -0.265499   0.425483
    29  H   -0.231949   0.377904
    30  H   -0.130302   0.286638
    31  H   -0.254421   0.416283
    32  H    0.356787  -0.051396
    33  H    0.153112   0.084280
    34  H   -0.122884   0.348546
 Sum of Mulliken charges =  -1.00000   1.00000

 Dipole moment (field-independent basis, Debye):
    X=             -3.7030    Y=              2.4069    Z=              1.0703  Tot=              4.5443
 Quadrupole moment (field-independent basis, Debye-Ang):
   XX=           -176.4781   YY=           -147.5537   ZZ=           -131.2513
   XY=              7.0603   XZ=             -1.3913   YZ=             -3.7739

 Summary of Natural Population Analysis:

                                       Natural Population
                Natural  -----------------------------------------------
    Atom  No    Charge         Core      Valence    Rydberg      Total
 -----------------------------------------------------------------------
      C    1   -0.28996      0.99966     2.28426    0.00604     3.28996
      C    2   -0.19557      0.99963     2.18846    0.00749     3.19557
      C    3   -0.08536      0.99959     2.07489    0.01088     3.08536
      N    4   -0.10928      0.99961     2.59523    0.01444     3.60928
      C    5    0.06813      0.99949     1.91713    0.01525     2.93187
      C    6   -0.04247      0.99952     2.02946    0.01349     3.04247
      N    7   -0.13896      0.99976     2.62432    0.01489     3.63896
      N    8   -0.04993      0.99978     2.53562    0.01453     3.54993
      C    9   -0.02725      0.99956     2.01229    0.01539     3.02725
      C   10   -0.18718      0.99958     2.17764    0.00996     3.18718
      C   11   -0.12192      0.99959     2.10988    0.01246     3.12192
      C   12   -0.19360      0.99961     2.18454    0.00945     3.19360
      C   13   -0.20507      0.99962     2.19595    0.00951     3.20507
      N   14   -0.25853      0.99972     2.74455    0.01426     3.75853
      N   15   -0.32004      0.99978     2.80906    0.01119     3.82004
      H   16    0.10043      0.00000     0.39863    0.00093     0.39957
      H   17    0.10082      0.00000     0.39834    0.00084     0.39918
      H   18    0.09944      0.00000     0.39966    0.00090     0.40056
      H   19    0.09815      0.00000     0.39976    0.00209     0.40185
      H   20    0.09991      0.00000     0.39875    0.00134     0.40009
      H   21    0.11136      0.00000     0.38736    0.00128     0.38864
      H   22    0.10513      0.00000     0.39334    0.00153     0.39487
      H   23    0.10419      0.00000     0.39449    0.00132     0.39581
      H   24    0.09379      0.00000     0.40251    0.00370     0.40621
      H   25    0.10561      0.00000     0.39312    0.00127     0.39439
      H   26    0.09856      0.00000     0.39873    0.00271     0.40144
      H   27    0.10948      0.00000     0.38691    0.00361     0.39052
      H   28    0.10579      0.00000     0.39288    0.00132     0.39421
      H   29    0.10033      0.00000     0.39867    0.00100     0.39967
      H   30    0.10177      0.00000     0.39680    0.00143     0.39823
      H   31    0.10651      0.00000     0.39218    0.00131     0.39349
      H   32    0.18191      0.00000     0.31450    0.00358     0.31809
      H   33    0.16891      0.00000     0.32923    0.00186     0.33109
      H   34    0.16490      0.00000     0.33262    0.00248     0.33510
 =======================================================================
   * Total *    0.00000     14.99450    41.79177    0.21373    57.00000

 Normal termination of Gaussian 16 at Thu Dec 10 15:42:34 2020.
