 Gaussian 16, Revision A.03,

 -----------------------------------------------------------
 # opt freq B3LYP/6-31G(d) empiricaldispersion=gd3bj scf=xqc
 -----------------------------------------------------------

 ------------------------------
 CID_78859283_JID_7994_neutraal
 ------------------------------
 Symbolic Z-matrix:
 Charge =  0 Multiplicity = 1

 SCF Done:  E(RB3LYP) =  -772.467675493     A.U. after   14 cycles
 SCF Done:  E(RB3LYP) =  -772.471030153     A.U. after   12 cycles
 SCF Done:  E(RB3LYP) =  -772.470339588     A.U. after   12 cycles
 SCF Done:  E(RB3LYP) =  -772.472118860     A.U. after   12 cycles
 SCF Done:  E(RB3LYP) =  -772.472379305     A.U. after   11 cycles
 SCF Done:  E(RB3LYP) =  -772.472635485     A.U. after   11 cycles
 SCF Done:  E(RB3LYP) =  -772.472733623     A.U. after   11 cycles
 SCF Done:  E(RB3LYP) =  -772.472796226     A.U. after   10 cycles
 SCF Done:  E(RB3LYP) =  -772.472830798     A.U. after   10 cycles
 SCF Done:  E(RB3LYP) =  -772.472847973     A.U. after   10 cycles
 SCF Done:  E(RB3LYP) =  -772.472887761     A.U. after    9 cycles
 SCF Done:  E(RB3LYP) =  -772.472893605     A.U. after   10 cycles
 SCF Done:  E(RB3LYP) =  -772.472897412     A.U. after   10 cycles
 SCF Done:  E(RB3LYP) =  -772.472897625     A.U. after    7 cycles
 SCF Done:  E(RB3LYP) =  -772.472897714     A.U. after    7 cycles
 Optimization completed.
    -- Stationary point found.
 Normal termination of Gaussian 16 at Fri Dec 11 13:32:51 2020.

 --------------------------------------------------------------------
 #N Geom=AllCheck Guess=TCheck SCRF=Check GenChk RB3LYP/6-31G(d) Freq
 --------------------------------------------------------------------

 Structure from the checkpoint file:  "JID_7994.chk"
 ------------------------------
 CID_78859283_JID_7994_neutraal
 ------------------------------
 Charge =  0 Multiplicity = 1

 SCF Done:  E(RB3LYP) =  -772.472897714     A.U. after    1 cycles

  Exact polarizability: 172.190   7.228 151.853   0.026  -7.463 117.334
 Approx polarizability: 220.776  18.640 213.706  -5.216 -17.591 186.780

                      1                      2                      3
                      A                      A                      A
 Frequencies --     21.2823                27.9505                31.2540
 Red. masses --      3.9631                 3.9551                 3.3986
 Frc consts  --      0.0011                 0.0018                 0.0020
 IR Inten    --      0.0318                 2.7179                 0.3760

                      4                      5                      6
                      A                      A                      A
 Frequencies --     37.1459                69.5340                84.3939
 Red. masses --      3.2019                 5.2199                 4.0950
 Frc consts  --      0.0026                 0.0149                 0.0172
 IR Inten    --      0.4641                 1.0874                 0.8271

                      7                      8                      9
                      A                      A                      A
 Frequencies --     91.9011               132.4927               171.1795
 Red. masses --      3.9893                 3.4477                 3.4351
 Frc consts  --      0.0199                 0.0357                 0.0593
 IR Inten    --      0.1127                 0.1887                 1.0785

                     10                     11                     12
                      A                      A                      A
 Frequencies --    186.8423               242.5706               264.1469
 Red. masses --      3.6123                 2.2432                 2.1873
 Frc consts  --      0.0743                 0.0778                 0.0899
 IR Inten    --      2.1987                 0.2539                 2.2364

                     13                     14                     15
                      A                      A                      A
 Frequencies --    291.2244               305.7735               323.2144
 Red. masses --      2.7790                 3.0756                 2.6528
 Frc consts  --      0.1389                 0.1694                 0.1633
 IR Inten    --      4.4798                 2.3358                 1.3557

                     16                     17                     18
                      A                      A                      A
 Frequencies --    391.1139               401.8782               404.9502
 Red. masses --      2.2366                 3.5625                 1.8961
 Frc consts  --      0.2016                 0.3390                 0.1832
 IR Inten    --      1.4545                11.1960                 0.5491

                     19                     20                     21
                      A                      A                      A
 Frequencies --    423.5737               480.7151               551.5202
 Red. masses --      2.2288                 3.2556                 3.2195
 Frc consts  --      0.2356                 0.4433                 0.5770
 IR Inten    --      0.1056                 6.1924                 2.3918

                     22                     23                     24
                      A                      A                      A
 Frequencies --    557.1075               596.8788               656.8949
 Red. masses --      4.1426                 1.8568                 3.5098
 Frc consts  --      0.7575                 0.3898                 0.8923
 IR Inten    --      1.7509                 0.8659                13.4849

                     25                     26                     27
                      A                      A                      A
 Frequencies --    665.0729               703.9936               748.0606
 Red. masses --      1.2765                 4.6463                 3.4534
 Frc consts  --      0.3327                 1.3567                 1.1386
 IR Inten    --     21.0551                 5.1614                 2.9365

                     28                     29                     30
                      A                      A                      A
 Frequencies --    770.1963               793.7295               797.9336
 Red. masses --      1.6863                 2.4551                 3.1772
 Frc consts  --      0.5894                 0.9113                 1.1919
 IR Inten    --      5.0571                 0.1769                 1.0668

                     31                     32                     33
                      A                      A                      A
 Frequencies --    837.4697               879.0377               888.9158
 Red. masses --      3.1379                 1.6490                 2.4967
 Frc consts  --      1.2967                 0.7507                 1.1623
 IR Inten    --     10.0662                 2.3283                 0.9361

                     34                     35                     36
                      A                      A                      A
 Frequencies --    897.5647               901.0463               909.8826
 Red. masses --      2.1897                 2.3425                 2.0503
 Frc consts  --      1.0393                 1.1205                 1.0001
 IR Inten    --      6.4029                 0.5026                 3.5822

                     37                     38                     39
                      A                      A                      A
 Frequencies --    936.0888               939.7987               961.9269
 Red. masses --      2.5304                 2.2233                 3.0508
 Frc consts  --      1.3064                 1.1570                 1.6632
 IR Inten    --      6.2598                10.0616                 9.3809

                     40                     41                     42
                      A                      A                      A
 Frequencies --    966.6267               976.1129               998.8864
 Red. masses --      2.1182                 2.1452                 1.2943
 Frc consts  --      1.1661                 1.2043                 0.7609
 IR Inten    --      3.0382                 2.7950                 1.5585

                     43                     44                     45
                      A                      A                      A
 Frequencies --   1006.4601              1013.5579              1041.6281
 Red. masses --      1.6971                 1.9075                 2.0971
 Frc consts  --      1.0128                 1.1545                 1.3406
 IR Inten    --      3.4470                 3.4860                34.6003

                     46                     47                     48
                      A                      A                      A
 Frequencies --   1047.9519              1062.6475              1068.9757
 Red. masses --      2.2448                 2.0461                 2.3720
 Frc consts  --      1.4525                 1.3613                 1.5970
 IR Inten    --      3.7367                18.0008                23.9447

                     49                     50                     51
                      A                      A                      A
 Frequencies --   1103.2639              1116.9630              1118.6018
 Red. masses --      2.0323                 4.5553                 2.0366
 Frc consts  --      1.4575                 3.3484                 1.5015
 IR Inten    --     13.2396               132.5203                33.8328

                     52                     53                     54
                      A                      A                      A
 Frequencies --   1124.3006              1145.4139              1179.0763
 Red. masses --      2.0173                 1.8548                 1.0644
 Frc consts  --      1.5024                 1.4338                 0.8718
 IR Inten    --      2.3554                36.7028                 0.3240

                     55                     56                     57
                      A                      A                      A
 Frequencies --   1185.7553              1204.3276              1214.7553
 Red. masses --      1.4841                 1.4158                 1.1584
 Frc consts  --      1.2294                 1.2098                 1.0071
 IR Inten    --    115.7318                18.1971                 1.3791

                     58                     59                     60
                      A                      A                      A
 Frequencies --   1220.1833              1244.4626              1252.5960
 Red. masses --      1.4852                 1.5208                 1.2395
 Frc consts  --      1.3028                 1.3877                 1.1458
 IR Inten    --     16.7159                54.8567                 2.0795

                     61                     62                     63
                      A                      A                      A
 Frequencies --   1278.3252              1282.4782              1307.3487
 Red. masses --      1.2806                 1.2643                 1.3641
 Frc consts  --      1.2329                 1.2252                 1.3737
 IR Inten    --     33.7542                 1.8721                35.7394

                     64                     65                     66
                      A                      A                      A
 Frequencies --   1319.6147              1336.1299              1340.6464
 Red. masses --      1.3624                 1.3366                 1.2847
 Frc consts  --      1.3978                 1.4059                 1.3604
 IR Inten    --     71.2994                 3.0183                 2.2206

                     67                     68                     69
                      A                      A                      A
 Frequencies --   1344.6829              1357.9994              1368.1761
 Red. masses --      1.5006                 1.2756                 1.3917
 Frc consts  --      1.5986                 1.3860                 1.5349
 IR Inten    --     15.6105                 5.8453                10.1755

                     70                     71                     72
                      A                      A                      A
 Frequencies --   1373.9951              1377.0718              1378.2606
 Red. masses --      1.3914                 1.4584                 1.3892
 Frc consts  --      1.5477                 1.6295                 1.5549
 IR Inten    --     21.6389                 5.3179                 7.4199

                     73                     74                     75
                      A                      A                      A
 Frequencies --   1399.3923              1413.3145              1417.8705
 Red. masses --      1.6068                 1.3656                 1.5339
 Frc consts  --      1.8539                 1.6072                 1.8169
 IR Inten    --      4.1662                10.5188                 2.5372

                     76                     77                     78
                      A                      A                      A
 Frequencies --   1432.0002              1439.4932              1442.2675
 Red. masses --      1.4178                 1.4367                 1.4514
 Frc consts  --      1.7129                 1.7540                 1.7788
 IR Inten    --      3.2296                 1.6125                 1.7859

                     79                     80                     81
                      A                      A                      A
 Frequencies --   1505.6442              1507.2027              1510.1001
 Red. masses --      1.0924                 1.0976                 1.0887
 Frc consts  --      1.4591                 1.4691                 1.4628
 IR Inten    --      5.0440                 5.3469                 7.8194

                     82                     83                     84
                      A                      A                      A
 Frequencies --   1515.6039              1519.5682              1524.6970
 Red. masses --      1.0877                 1.0868                 1.0898
 Frc consts  --      1.4720                 1.4786                 1.4927
 IR Inten    --      5.4970                 4.6493                 8.7506

                     85                     86                     87
                      A                      A                      A
 Frequencies --   1530.5643              1531.9915              1553.9927
 Red. masses --      1.0974                 1.0977                 1.1007
 Frc consts  --      1.5147                 1.5178                 1.5660
 IR Inten    --      1.3807                 5.6107                 1.7790

                     88                     89                     90
                      A                      A                      A
 Frequencies --   1737.2675              1822.9713              2985.9186
 Red. masses --      6.1624                10.8180                 1.0729
 Frc consts  --     10.9580                21.1815                 5.6362
 IR Inten    --      2.2524               225.2670                76.6388

                     91                     92                     93
                      A                      A                      A
 Frequencies --   3009.9272              3019.7839              3042.9142
 Red. masses --      1.0708                 1.0610                 1.1000
 Frc consts  --      5.7156                 5.7004                 6.0009
 IR Inten    --     31.1674                37.7088                20.0254

                     94                     95                     96
                      A                      A                      A
 Frequencies --   3048.6158              3051.3001              3062.7230
 Red. masses --      1.0769                 1.0629                 1.0844
 Frc consts  --      5.8969                 5.8305                 5.9931
 IR Inten    --     14.4415                16.0686                48.9624

                     97                     98                     99
                      A                      A                      A
 Frequencies --   3065.9158              3067.3865              3067.9400
 Red. masses --      1.0658                 1.0646                 1.0637
 Frc consts  --      5.9026                 5.9019                 5.8987
 IR Inten    --      7.8140                17.4831                17.2769

                    100                    101                    102
                      A                      A                      A
 Frequencies --   3086.1638              3091.7771              3095.3000
 Red. masses --      1.0853                 1.0878                 1.0594
 Frc consts  --      6.0902                 6.1268                 5.9800
 IR Inten    --     14.7390                23.3092                29.8934

                    103                    104                    105
                      A                      A                      A
 Frequencies --   3100.2543              3106.6806              3111.2593
 Red. masses --      1.0973                 1.0913                 1.1007
 Frc consts  --      6.2139                 6.2059                 6.2774
 IR Inten    --     41.5081                35.7132                35.9454

                    106                    107                    108
                      A                      A                      A
 Frequencies --   3121.5699              3125.2022              3138.9719
 Red. masses --      1.0932                 1.1057                 1.0990
 Frc consts  --      6.2763                 6.3629                 6.3803
 IR Inten    --     25.7424                50.3252                13.2815

                    109                    110                    111
                      A                      A                      A
 Frequencies --   3149.5332              3154.5344              3172.7015
 Red. masses --      1.0842                 1.1076                 1.0966
 Frc consts  --      6.3364                 6.4940                 6.5035
 IR Inten    --     10.5801                15.3091                55.0182

 - Thermochemistry -
 -------------------
 Temperature   298.150 Kelvin.  Pressure   1.00000 Atm.
 Atom     1 has atomic number  6 and mass  12.00000

 Molecular mass:   238.15689 amu.
 Principal axes and moments of inertia in atomic units:
                           1         2         3
     Eigenvalues --  2648.604566093.392547934.41346
           X            0.99999  -0.00291  -0.00426
           Y            0.00289   0.99999  -0.00378
           Z            0.00427   0.00377   0.99998
 This molecule is an asymmetric top.
 Rotational symmetry number  1.
 Warning -- assumption of classical behavior for rotation
           may cause significant error
 Rotational temperatures (Kelvin)      0.03270     0.01421     0.01092
 Rotational constants (GHZ):           0.68139     0.29618     0.22746
 Zero-point vibrational energy     911637.3 (Joules/Mol)
                                  217.88653 (Kcal/Mol)
 Warning -- explicit consideration of  23 degrees of freedom as
           vibrations may cause significant error
 Vibrational temperatures:     30.62    40.21    44.97    53.44   100.04
          (Kelvin)            121.42   132.23   190.63   246.29   268.82
                              349.01   380.05   419.01   439.94   465.03
                              562.73   578.21   582.63   609.43   691.64
                              793.51   801.55   858.78   945.13   956.89
                             1012.89  1076.29  1108.14  1142.00  1148.05
                             1204.93  1264.74  1278.95  1291.40  1296.40
                             1309.12  1346.82  1352.16  1384.00  1390.76
                             1404.41  1437.17  1448.07  1458.28  1498.67
                             1507.77  1528.91  1538.02  1587.35  1607.06
                             1609.42  1617.62  1648.00  1696.43  1706.04
                             1732.76  1747.76  1755.57  1790.50  1802.21
                             1839.22  1845.20  1880.98  1898.63  1922.39
                             1928.89  1934.70  1953.86  1968.50  1976.87
                             1981.30  1983.01  2013.41  2033.44  2040.00
                             2060.33  2071.11  2075.10  2166.29  2168.53
                             2172.70  2180.62  2186.32  2193.70  2202.14
                             2204.19  2235.85  2499.54  2622.85  4296.07
                             4330.61  4344.80  4378.07  4386.28  4390.14
                             4406.58  4411.17  4413.29  4414.08  4440.30
                             4448.38  4453.45  4460.57  4469.82  4476.41
                             4491.24  4496.47  4516.28  4531.48  4538.67
                             4564.81

 Zero-point correction=                           0.347224 (Hartree/Particle)
 Thermal correction to Energy=                    0.363862
 Thermal correction to Enthalpy=                  0.364807
 Thermal correction to Gibbs Free Energy=         0.299771
 Sum of electronic and zero-point Energies=           -772.125673
 Sum of electronic and thermal Energies=              -772.109035
 Sum of electronic and thermal Enthalpies=            -772.108091
 Sum of electronic and thermal Free Energies=         -772.173126

                     E (Thermal)             CV                S
                      KCal/Mol        Cal/Mol-Kelvin    Cal/Mol-Kelvin
 Total                  228.327             62.930            136.878
 Electronic               0.000              0.000              0.000
 Translational            0.889              2.981             42.305
 Rotational               0.889              2.981             33.215
 Vibrational            226.550             56.968             61.359
 Vibration     1          0.593              1.985              6.511
 Vibration     2          0.593              1.984              5.970
 Vibration     3          0.594              1.983              5.748
 Vibration     4          0.594              1.982              5.406
 Vibration     5          0.598              1.969              4.167
 Vibration     6          0.601              1.960              3.786
 Vibration     7          0.602              1.955              3.619
 Vibration     8          0.613              1.921              2.910
 Vibration     9          0.626              1.878              2.422
 Vibration    10          0.632              1.858              2.259
 Vibration    11          0.659              1.775              1.784
 Vibration    12          0.671              1.739              1.634
 Vibration    13          0.687              1.690              1.467
 Vibration    14          0.696              1.663              1.385
 Vibration    15          0.708              1.629              1.294
 Vibration    16          0.759              1.489              0.996
 Vibration    17          0.767              1.466              0.956
 Vibration    18          0.770              1.459              0.945
 Vibration    19          0.786              1.419              0.880
 Vibration    20          0.837              1.293              0.708
 Vibration    21          0.907              1.136              0.541
 Vibration    22          0.913              1.124              0.530
 Vibration    23          0.955              1.038              0.455

                           ! Non-Optimized Parameters !
 Normal termination of Gaussian 16 at Fri Dec 11 13:47:07 2020.

 ----------------------------------------------------------------------
 # B3LYP/6-311++G(d,p) empiricaldispersion=gd3bj scf=xqc pop=npa geom=c
 heck
 ----------------------------------------------------------------------

 --------------------------------------
 CID_78859283_JID_7994_Energie_neutraal
 --------------------------------------
 Structure from the checkpoint file:  "JID_7994.chk"
 Charge =  0 Multiplicity = 1

 SCF Done:  E(RB3LYP) =  -772.690859253     A.U. after   14 cycles
 Normal termination of Gaussian 16 at Fri Dec 11 13:53:22 2020.

 ----------------------------------------------------------------------
 # B3LYP/6-311++G(d,p) empiricaldispersion=gd3bj scf=xqc pop=npa geom=c
 heck
 ----------------------------------------------------------------------

 ------------------------------------
 CID_78859283_JID_7994_Energie_kation
 ------------------------------------
 Structure from the checkpoint file:  "JID_7994.chk"
 Charge =  1 Multiplicity = 2

 SCF Done:  E(UB3LYP) =  -772.380707082     A.U. after   23 cycles
 Normal termination of Gaussian 16 at Fri Dec 11 14:06:37 2020.
 Gaussian 16:  ES64L-G16RevA.03 25-Dec-2016

 ----------------------------------------------------------------------
 # B3LYP/6-311++G(d,p) empiricaldispersion=gd3bj scf=xqc pop=npa geom=c
 heck
 ----------------------------------------------------------------------

 -----------------------------------
 CID_78859283_JID_7994_Energie_anion
 -----------------------------------
 Structure from the checkpoint file:  "JID_7994.chk"
 Charge = -1 Multiplicity = 2

                         Standard orientation:
 ---------------------------------------------------------------------
 Center     Atomic      Atomic             Coordinates (Angstroms)
 Number     Number       Type             X           Y           Z
 ---------------------------------------------------------------------
      1          6           0       -4.298843   -1.121889    0.371013
      2          6           0       -3.244625   -0.275226    1.101996
      3          6           0       -2.109268   -0.145772    0.057728
      4          8           0       -2.363253   -1.149294   -0.944660
      5          6           0       -3.410446   -2.006193   -0.502624
      6          6           0       -2.066494    1.209218   -0.651810
      7          6           0       -1.420458    2.340428    0.179003
      8          6           0        0.092103    2.287333    0.124557
      9          8           0        0.792396    3.055290   -0.499406
     10          8           0        0.572422    1.240474    0.835440
     11          6           0        1.995594    0.998800    0.755683
     12          6           0        2.414260    0.330844   -0.558553
     13          6           0        1.536134   -0.876420   -0.929038
     14          6           0        1.591823   -1.975233    0.139776
     15          6           0        3.002274   -2.232273    0.604939
     16          6           0        4.023590   -1.411635    0.339022
     17          6           0        3.882328   -0.122673   -0.434974
     18          1           0       -4.944974   -1.688453    1.048255
     19          1           0       -4.932875   -0.490711   -0.261894
     20          1           0       -2.886747   -0.801387    1.993463
     21          1           0       -3.626417    0.698507    1.424925
     22          1           0       -1.138478   -0.349990    0.518198
     23          1           0       -3.005385   -2.849413    0.081847
     24          1           0       -3.910695   -2.409859   -1.388118
     25          1           0       -1.524241    1.090503   -1.596806
     26          1           0       -3.090794    1.499072   -0.917330
     27          1           0       -1.714377    3.314467   -0.217712
     28          1           0       -1.751474    2.279561    1.222640
     29          1           0        2.521146    1.949139    0.880036
     30          1           0        2.205779    0.353425    1.610334
     31          1           0        2.336748    1.084302   -1.348721
     32          1           0        0.499880   -0.575564   -1.105544
     33          1           0        1.908948   -1.283123   -1.877786
     34          1           0        0.962298   -1.701385    1.000954
     35          1           0        1.153303   -2.900680   -0.255747
     36          1           0        3.178953   -3.137215    1.184792
     37          1           0        5.022563   -1.666271    0.690080
     38          1           0        4.312242   -0.246404   -1.439775
     39          1           0        4.484245    0.663869    0.042621
 ---------------------------------------------------------------------

 SCF Done:  E(UB3LYP) =  -772.677677880     A.U. after   33 cycles
 SCF Done:  E(UB3LYP) =  -772.677677880     a.u. after    1 cycles

 The electronic state is 2-A.
 Alpha  occ. eigenvalues --  -19.07818 -19.02435 -19.02420 -10.21288 -10.13446
 Alpha  occ. eigenvalues --  -10.12247 -10.11849 -10.09611 -10.08745 -10.08572
 Alpha  occ. eigenvalues --  -10.08475 -10.07692 -10.07666 -10.07579 -10.07544
 Alpha  occ. eigenvalues --  -10.07495 -10.07333  -1.01865  -0.94150  -0.93326
 Alpha  occ. eigenvalues --   -0.75460  -0.71894  -0.68776  -0.67677  -0.65454
 Alpha  occ. eigenvalues --   -0.64506  -0.60970  -0.55769  -0.53277  -0.51496
 Alpha  occ. eigenvalues --   -0.50446  -0.48143  -0.46001  -0.42736  -0.41937
 Alpha  occ. eigenvalues --   -0.41422  -0.40492  -0.39910  -0.38873  -0.37543
 Alpha  occ. eigenvalues --   -0.36543  -0.35171  -0.34169  -0.33628  -0.32795
 Alpha  occ. eigenvalues --   -0.32419  -0.31789  -0.30595  -0.30273  -0.29835
 Alpha  occ. eigenvalues --   -0.28916  -0.27796  -0.27162  -0.27032  -0.26079
 Alpha  occ. eigenvalues --   -0.25439  -0.24234  -0.23446  -0.22820  -0.22409
 Alpha  occ. eigenvalues --   -0.21977  -0.21204  -0.19013  -0.16018  -0.15673
 Alpha  occ. eigenvalues --    0.04106
 Alpha virt. eigenvalues --    0.05496   0.06684   0.07160   0.07632   0.07815
 Alpha virt. eigenvalues --    0.08392   0.08699   0.09316   0.09477   0.09741
 Alpha virt. eigenvalues --    0.09968   0.10353   0.10539   0.10797   0.11940

  Beta  occ. eigenvalues --  -19.07812 -19.02422 -19.02416 -10.21273 -10.13436
  Beta  occ. eigenvalues --  -10.12245 -10.11830 -10.09600 -10.08744 -10.08559
  Beta  occ. eigenvalues --  -10.08462 -10.07679 -10.07653 -10.07567 -10.07516
  Beta  occ. eigenvalues --  -10.07466 -10.07326  -1.01845  -0.94140  -0.93306
  Beta  occ. eigenvalues --   -0.75441  -0.71868  -0.68734  -0.67652  -0.65428
  Beta  occ. eigenvalues --   -0.64475  -0.60941  -0.55726  -0.53240  -0.51472
  Beta  occ. eigenvalues --   -0.50374  -0.48103  -0.45973  -0.42702  -0.41904
  Beta  occ. eigenvalues --   -0.41386  -0.40447  -0.39878  -0.38837  -0.37501
  Beta  occ. eigenvalues --   -0.36519  -0.35141  -0.34145  -0.33608  -0.32770
  Beta  occ. eigenvalues --   -0.32385  -0.31760  -0.30567  -0.30247  -0.29810
  Beta  occ. eigenvalues --   -0.28889  -0.27770  -0.27133  -0.27009  -0.26032
  Beta  occ. eigenvalues --   -0.25408  -0.24205  -0.23406  -0.22798  -0.22390
  Beta  occ. eigenvalues --   -0.21953  -0.21174  -0.18996  -0.15994  -0.15654
  Beta virt. eigenvalues --    0.06062   0.06466   0.07309   0.07565   0.08100
  Beta virt. eigenvalues --    0.08193   0.08704   0.08981   0.09560   0.09810
  Beta virt. eigenvalues --    0.10011   0.10271   0.10584   0.10733   0.11032

 Mulliken charges and spin densities:
               1          2
     1  C    0.240745  -0.751780
     2  C    0.472503  -0.855183
     3  C   -1.437612   1.026320
     4  O   -0.057613   0.017823
     5  C    0.322567  -0.405357
     6  C    0.665947  -0.586205
     7  C    0.091372  -0.550978
     8  C   -0.398092   0.231929
     9  O   -0.254160   0.023120
    10  O    0.074543   0.020580
    11  C   -0.253108  -0.465770
    12  C   -0.443096   1.062423
    13  C   -0.089711  -0.310145
    14  C    0.111513  -0.423616
    15  C    0.540195  -0.769862
    16  C    0.172686  -0.093069
    17  C    0.026270  -0.875202
    18  H   -0.369973   0.533244
    19  H   -0.021579   0.155411
    20  H   -0.345184   0.525108
    21  H   -0.272962   0.422977
    22  H    0.629130  -0.386144
    23  H   -0.018126   0.137670
    24  H   -0.135126   0.293691
    25  H    0.193507  -0.022479
    26  H   -0.075956   0.296469
    27  H    0.006361   0.194033
    28  H    0.011155   0.147850
    29  H    0.103035   0.107359
    30  H    0.028154   0.165061
    31  H    0.205100   0.027972
    32  H    0.378684  -0.138225
    33  H   -0.031868   0.204621
    34  H   -0.116827   0.256181
    35  H    0.014618   0.142669
    36  H   -0.368249   0.556851
    37  H   -0.528460   0.712700
    38  H   -0.080535   0.237535
    39  H    0.010153   0.134415
 Sum of Mulliken charges =  -1.00000   1.00000

 Dipole moment (field-independent basis, Debye):
    X=              1.0308    Y=              2.8235    Z=             -2.1477  Tot=              3.6942
 Quadrupole moment (field-independent basis, Debye-Ang):
   XX=           -201.1039   YY=           -158.7591   ZZ=           -140.0642
   XY=              3.9906   XZ=              4.0324   YZ=              6.2020

 Summary of Natural Population Analysis:

                                       Natural Population
                Natural  -----------------------------------------------
    Atom  No    Charge         Core      Valence    Rydberg      Total
 -----------------------------------------------------------------------
      C    1   -0.20434      0.99964     2.19671    0.00799     3.20434
      C    2   -0.20291      0.99962     2.19463    0.00865     3.20291
      C    3    0.05784      0.99954     1.92877    0.01385     2.94216
      O    4   -0.30518      0.99989     3.29736    0.00793     4.30518
      C    5   -0.00799      0.99960     1.99582    0.01258     3.00799
      C    6   -0.19278      0.99959     2.18317    0.01001     3.19278
      C    7   -0.23611      0.99957     2.22781    0.00873     3.23611
      C    8    0.41379      0.99969     1.56211    0.02441     2.58621
      O    9   -0.30791      0.99987     3.30291    0.00513     4.30791
      O   10   -0.28478      0.99986     3.27610    0.00882     4.28478
      C   11   -0.01691      0.99952     2.00537    0.01203     3.01691
      C   12   -0.12412      0.99959     2.11515    0.00938     3.12412
      C   13   -0.19011      0.99961     2.18194    0.00856     3.19011
      C   14   -0.21238      0.99962     2.20350    0.00927     3.21238
      C   15   -0.09163      0.99953     2.08210    0.01001     3.09163
      C   16   -0.09951      0.99953     2.08969    0.01029     3.09951
      C   17   -0.20630      0.99960     2.19658    0.01012     3.20630
      H   18    0.10483      0.00000     0.39339    0.00178     0.39517
      H   19    0.09652      0.00000     0.40203    0.00145     0.40348
      H   20    0.10205      0.00000     0.39638    0.00157     0.39795
      H   21    0.10413      0.00000     0.39418    0.00169     0.39587
      H   22    0.09305      0.00000     0.40404    0.00291     0.40695
      H   23    0.07742      0.00000     0.42109    0.00149     0.42258
      H   24    0.08861      0.00000     0.41020    0.00119     0.41139
      H   25    0.10430      0.00000     0.39440    0.00129     0.39570
      H   26    0.10178      0.00000     0.39694    0.00128     0.39822
      H   27    0.11030      0.00000     0.38882    0.00087     0.38970
      H   28    0.11079      0.00000     0.38772    0.00150     0.38921
      H   29    0.09648      0.00000     0.40244    0.00107     0.40352
      H   30    0.09736      0.00000     0.40145    0.00119     0.40264
      H   31    0.10656      0.00000     0.39190    0.00154     0.39344
      H   32    0.10649      0.00000     0.39144    0.00207     0.39351
      H   33    0.09735      0.00000     0.40152    0.00113     0.40265
      H   34    0.10304      0.00000     0.39524    0.00172     0.39696
      H   35    0.10625      0.00000     0.39263    0.00112     0.39375
      H   36    0.09826      0.00000     0.40051    0.00123     0.40174
      H   37    0.09827      0.00000     0.40032    0.00141     0.40173
      H   38    0.10557      0.00000     0.39339    0.00103     0.39443
      H   39    0.10192      0.00000     0.39695    0.00114     0.39808
 =======================================================================
   * Total *    0.00000     16.99386    47.79670    0.20944    65.00000

 Normal termination of Gaussian 16 at Fri Dec 11 14:25:38 2020.
