 Gaussian 16, Revision A.03,

 -----------------------------------------------------------
 # opt freq B3LYP/6-31G(d) empiricaldispersion=gd3bj scf=xqc
 -----------------------------------------------------------

 -------------------------------
 CID_105306206_JID_5519_neutraal
 -------------------------------
 Symbolic Z-matrix:
 Charge =  0 Multiplicity = 1

 SCF Done:  E(RB3LYP) =  -655.203805614     A.U. after   12 cycles
 SCF Done:  E(RB3LYP) =  -655.215887071     A.U. after   11 cycles
 SCF Done:  E(RB3LYP) =  -655.216439212     A.U. after   11 cycles
 SCF Done:  E(RB3LYP) =  -655.217571898     A.U. after   11 cycles
 SCF Done:  E(RB3LYP) =  -655.218207031     A.U. after   10 cycles
 SCF Done:  E(RB3LYP) =  -655.218165451     A.U. after   10 cycles
 SCF Done:  E(RB3LYP) =  -655.218324823     A.U. after   10 cycles
 SCF Done:  E(RB3LYP) =  -655.218360884     A.U. after    9 cycles
 SCF Done:  E(RB3LYP) =  -655.218388633     A.U. after   10 cycles
 SCF Done:  E(RB3LYP) =  -655.218405002     A.U. after    9 cycles
 SCF Done:  E(RB3LYP) =  -655.218529566     A.U. after   10 cycles
 SCF Done:  E(RB3LYP) =  -655.218552845     A.U. after   10 cycles
 SCF Done:  E(RB3LYP) =  -655.218551595     A.U. after    9 cycles
 SCF Done:  E(RB3LYP) =  -655.218553309     A.U. after    9 cycles
 SCF Done:  E(RB3LYP) =  -655.218553185     A.U. after    7 cycles
 SCF Done:  E(RB3LYP) =  -655.218553358     A.U. after    7 cycles
 Optimization completed.
    -- Stationary point found.
 Normal termination of Gaussian 16 at Thu Dec 10 17:09:07 2020.

 --------------------------------------------------------------------
 #N Geom=AllCheck Guess=TCheck SCRF=Check GenChk RB3LYP/6-31G(d) Freq
 --------------------------------------------------------------------

 Structure from the checkpoint file:  "JID_5519.chk"
 -------------------------------
 CID_105306206_JID_5519_neutraal
 -------------------------------
 Charge =  0 Multiplicity = 1

 SCF Done:  E(RB3LYP) =  -655.218553358     A.U. after    1 cycles

  Exact polarizability: 146.465   5.480 136.339   1.480  -0.032 118.704
 Approx polarizability: 185.616   2.806 193.178   2.010   0.477 188.166

                      1                      2                      3
                      A                      A                      A
 Frequencies --     28.5256                78.0712                80.6602
 Red. masses --      3.4386                 3.4409                 3.6628
 Frc consts  --      0.0016                 0.0124                 0.0140
 IR Inten    --      0.1633                 2.2297                 1.3460

                      4                      5                      6
                      A                      A                      A
 Frequencies --     96.4439               111.8419               163.0005
 Red. masses --      1.9741                 1.4888                 2.9725
 Frc consts  --      0.0108                 0.0110                 0.0465
 IR Inten    --     13.4990                33.0599                 1.2579

                      7                      8                      9
                      A                      A                      A
 Frequencies --    180.5643               210.3477               212.7020
 Red. masses --      3.3907                 3.1662                 3.0677
 Frc consts  --      0.0651                 0.0825                 0.0818
 IR Inten    --      4.7057                 3.7165                 3.4197

                     10                     11                     12
                      A                      A                      A
 Frequencies --    237.8573               301.3792               314.2149
 Red. masses --      3.7561                 3.0173                 2.4091
 Frc consts  --      0.1252                 0.1615                 0.1401
 IR Inten    --      0.8935                 6.1087                 0.0365

                     13                     14                     15
                      A                      A                      A
 Frequencies --    342.6777               397.4181               412.3021
 Red. masses --      1.9616                 2.2919                 2.3822
 Frc consts  --      0.1357                 0.2133                 0.2386
 IR Inten    --      1.1306                 2.3948                 0.1205

                     16                     17                     18
                      A                      A                      A
 Frequencies --    450.1971               484.1613               497.4531
 Red. masses --      2.0314                 3.1747                 2.5558
 Frc consts  --      0.2426                 0.4385                 0.3726
 IR Inten    --      0.5734                 2.7350                 4.3457

                     19                     20                     21
                      A                      A                      A
 Frequencies --    524.4110               546.7853               640.5934
 Red. masses --      2.8484                 3.1129                 2.0554
 Frc consts  --      0.4615                 0.5483                 0.4970
 IR Inten    --      1.4908                 2.2593                 7.4500

                     22                     23                     24
                      A                      A                      A
 Frequencies --    680.2118               741.3974               778.8030
 Red. masses --      3.6866                 5.1662                 2.5471
 Frc consts  --      1.0050                 1.6731                 0.9102
 IR Inten    --      2.0242                 2.6575                12.3614

                     25                     26                     27
                      A                      A                      A
 Frequencies --    798.5357               820.5589               825.8096
 Red. masses --      2.0713                 1.5416                 1.6141
 Frc consts  --      0.7782                 0.6116                 0.6486
 IR Inten    --      1.5288                18.6243                 0.9266

                     28                     29                     30
                      A                      A                      A
 Frequencies --    838.6491               871.7154               885.4089
 Red. masses --      3.3547                 1.4848                 2.6908
 Frc consts  --      1.3901                 0.6648                 1.2428
 IR Inten    --      2.7845                 1.5368                 4.4056

                     31                     32                     33
                      A                      A                      A
 Frequencies --    893.3306               895.8116               926.8307
 Red. masses --      2.9153                 2.3766                 2.1687
 Frc consts  --      1.3707                 1.1237                 1.0976
 IR Inten    --     11.1877                 4.6713                12.5047

                     34                     35                     36
                      A                      A                      A
 Frequencies --    942.1453               965.9059               994.2391
 Red. masses --      2.8683                 2.3018                 1.7954
 Frc consts  --      1.5000                 1.2653                 1.0457
 IR Inten    --     32.6672                31.2204                 3.9328

                     37                     38                     39
                      A                      A                      A
 Frequencies --   1001.1002              1015.9537              1030.3486
 Red. masses --      2.9111                 1.8270                 2.2073
 Frc consts  --      1.7189                 1.1111                 1.3807
 IR Inten    --      4.5990                48.9880                 6.5375

                     40                     41                     42
                      A                      A                      A
 Frequencies --   1032.3426              1039.4104              1057.4142
 Red. masses --      1.9968                 1.4429                 1.6718
 Frc consts  --      1.2538                 0.9184                 1.1013
 IR Inten    --      5.2743                 2.6855                 2.4611

                     43                     44                     45
                      A                      A                      A
 Frequencies --   1067.0556              1070.3124              1085.3029
 Red. masses --      2.2901                 1.3768                 2.0420
 Frc consts  --      1.5363                 0.9293                 1.4171
 IR Inten    --      8.6890                 4.7427                 4.5960

                     46                     47                     48
                      A                      A                      A
 Frequencies --   1109.2700              1111.2964              1115.3866
 Red. masses --      1.5021                 1.8618                 1.4407
 Frc consts  --      1.0890                 1.3547                 1.0560
 IR Inten    --     17.7785                41.4522                 4.1449

                     49                     50                     51
                      A                      A                      A
 Frequencies --   1141.2546              1143.9776              1162.2696
 Red. masses --      1.8628                 2.7286                 2.1039
 Frc consts  --      1.4295                 2.1039                 1.6745
 IR Inten    --     20.4782                25.0891                 4.7723

                     52                     53                     54
                      A                      A                      A
 Frequencies --   1206.0543              1219.6850              1229.5849
 Red. masses --      1.3011                 1.5646                 1.2155
 Frc consts  --      1.1150                 1.3714                 1.0828
 IR Inten    --     43.6285                 0.4780                 3.5357

                     55                     56                     57
                      A                      A                      A
 Frequencies --   1232.6468              1247.1907              1249.7483
 Red. masses --      1.2296                 1.3456                 1.3282
 Frc consts  --      1.1008                 1.2332                 1.2222
 IR Inten    --      0.9549                25.6460                 7.2375

                     58                     59                     60
                      A                      A                      A
 Frequencies --   1272.0395              1284.8140              1305.4927
 Red. masses --      1.2922                 1.3301                 1.2970
 Frc consts  --      1.2319                 1.2936                 1.3024
 IR Inten    --      1.7612                 2.6968                 3.6304

                     61                     62                     63
                      A                      A                      A
 Frequencies --   1316.1466              1333.4193              1337.5236
 Red. masses --      1.4226                 1.3616                 1.2502
 Frc consts  --      1.4519                 1.4264                 1.3178
 IR Inten    --      6.3371                 2.0230                11.9891

                     64                     65                     66
                      A                      A                      A
 Frequencies --   1347.5368              1348.8225              1378.6500
 Red. masses --      1.5596                 1.4096                 1.4777
 Frc consts  --      1.6685                 1.5110                 1.6548
 IR Inten    --      0.7242                 4.3261                 0.4345

                     67                     68                     69
                      A                      A                      A
 Frequencies --   1380.6075              1387.5063              1398.0139
 Red. masses --      1.3095                 1.3694                 1.6358
 Frc consts  --      1.4706                 1.5533                 1.8836
 IR Inten    --      0.8461                 1.9380                 1.7686

                     70                     71                     72
                      A                      A                      A
 Frequencies --   1406.0623              1412.7813              1417.0768
 Red. masses --      1.4583                 1.3999                 1.3066
 Frc consts  --      1.6986                 1.6462                 1.5459
 IR Inten    --      6.0395                 6.2869                 3.1353

                     73                     74                     75
                      A                      A                      A
 Frequencies --   1444.0659              1449.5426              1494.5576
 Red. masses --      1.3043                 1.3779                 1.0970
 Frc consts  --      1.6025                 1.7058                 1.4438
 IR Inten    --      7.5604                 2.5000                 3.3722

                     76                     77                     78
                      A                      A                      A
 Frequencies --   1509.9420              1512.5409              1521.7353
 Red. masses --      1.1223                 1.2067                 1.1449
 Frc consts  --      1.5076                 1.6266                 1.5620
 IR Inten    --      6.8630                 3.8965                 4.6363

                     79                     80                     81
                      A                      A                      A
 Frequencies --   1527.0457              1533.8085              1540.0580
 Red. masses --      1.0838                 1.1087                 1.1052
 Frc consts  --      1.4891                 1.5368                 1.5444
 IR Inten    --      0.1432                10.0307                 4.5823

                     82                     83                     84
                      A                      A                      A
 Frequencies --   1543.9324              1694.9208              2969.8201
 Red. masses --      1.0928                 1.0589                 1.0726
 Frc consts  --      1.5348                 1.7922                 5.5735
 IR Inten    --      5.7379                35.2434                45.1119

                     85                     86                     87
                      A                      A                      A
 Frequencies --   3004.2783              3019.0712              3043.2741
 Red. masses --      1.0707                 1.0811                 1.0680
 Frc consts  --      5.6939                 5.8060                 5.8276
 IR Inten    --     34.3237                42.8322                56.1726

                     88                     89                     90
                      A                      A                      A
 Frequencies --   3046.1952              3046.8348              3056.5841
 Red. masses --      1.0649                 1.0664                 1.0720
 Frc consts  --      5.8218                 5.8325                 5.9009
 IR Inten    --     17.7192                26.7708                23.9074

                     91                     92                     93
                      A                      A                      A
 Frequencies --   3072.7797              3080.3169              3091.1694
 Red. masses --      1.1002                 1.0853                 1.0938
 Frc consts  --      6.1203                 6.0673                 6.1578
 IR Inten    --     40.7806                33.1036                28.0068

                     94                     95                     96
                      A                      A                      A
 Frequencies --   3098.5403              3098.9176              3104.4520
 Red. masses --      1.0881                 1.0911                 1.0959
 Frc consts  --      6.1550                 6.1737                 6.2229
 IR Inten    --     40.5314                41.6239                58.2053

                     97                     98                     99
                      A                      A                      A
 Frequencies --   3124.9646              3128.5683              3142.1423
 Red. masses --      1.0553                 1.0929                 1.0901
 Frc consts  --      6.0720                 6.3024                 6.3413
 IR Inten    --     26.9753                24.7499                25.4331

                    100                    101                    102
                      A                      A                      A
 Frequencies --   3170.1163              3178.7359              3210.1981
 Red. masses --      1.0890                 1.0944                 1.1145
 Frc consts  --      6.4482                 6.5151                 6.7667
 IR Inten    --     15.8831                15.8410                23.7462

                    103                    104                    105
                      A                      A                      A
 Frequencies --   3400.1871              3423.4924              3491.9325
 Red. masses --      1.0526                 1.0724                 1.0912
 Frc consts  --      7.1698                 7.4053                 7.8391
 IR Inten    --      2.5352                 1.9791                 1.7971

 - Thermochemistry -
 -------------------
 Temperature   298.150 Kelvin.  Pressure   1.00000 Atm.
 Atom     1 has atomic number  6 and mass  12.00000

 Molecular mass:   210.17321 amu.
 Principal axes and moments of inertia in atomic units:
                           1         2         3
     Eigenvalues --  2022.226874136.169585180.30124
           X            0.99990   0.01376   0.00160
           Y           -0.01376   0.99991   0.00074
           Z           -0.00159  -0.00076   1.00000
 This molecule is an asymmetric top.
 Rotational symmetry number  1.
 Warning -- assumption of classical behavior for rotation
           may cause significant error
 Rotational temperatures (Kelvin)      0.04283     0.02094     0.01672
 Rotational constants (GHZ):           0.89245     0.43633     0.34839
 Zero-point vibrational energy     890259.6 (Joules/Mol)
                                  212.77715 (Kcal/Mol)
 Warning -- explicit consideration of  20 degrees of freedom as
           vibrations may cause significant error
 Vibrational temperatures:     41.04   112.33   116.05   138.76   160.92
          (Kelvin)            234.52   259.79   302.64   306.03   342.22
                              433.62   452.09   493.04   571.80   593.21
                              647.73   696.60   715.72   754.51   786.70
                              921.67   978.67  1066.71  1120.52  1148.91
                             1180.60  1188.16  1206.63  1254.20  1273.91
                             1285.30  1288.87  1333.50  1355.54  1389.72
                             1430.49  1440.36  1461.73  1482.44  1485.31
                             1495.48  1521.38  1535.25  1539.94  1561.51
                             1595.99  1598.91  1604.79  1642.01  1645.93
                             1672.25  1735.24  1754.85  1769.10  1773.50
                             1794.43  1798.11  1830.18  1848.56  1878.31
                             1893.64  1918.49  1924.40  1938.80  1940.65
                             1983.57  1986.39  1996.31  2011.43  2023.01
                             2032.68  2038.86  2077.69  2085.57  2150.34
                             2172.47  2176.21  2189.44  2197.08  2206.81
                             2215.80  2221.37  2438.61  4272.91  4322.49
                             4343.77  4378.59  4382.80  4383.72  4397.74
                             4421.04  4431.89  4447.50  4458.11  4458.65
                             4466.61  4496.13  4501.31  4520.84  4561.09
                             4573.49  4618.76  4892.11  4925.64  5024.11

 Zero-point correction=                           0.339082 (Hartree/Particle)
 Thermal correction to Energy=                    0.353349
 Thermal correction to Enthalpy=                  0.354293
 Thermal correction to Gibbs Free Energy=         0.297680
 Sum of electronic and zero-point Energies=           -654.879471
 Sum of electronic and thermal Energies=              -654.865205
 Sum of electronic and thermal Enthalpies=            -654.864261
 Sum of electronic and thermal Free Energies=         -654.920874

                     E (Thermal)             CV                S
                      KCal/Mol        Cal/Mol-Kelvin    Cal/Mol-Kelvin
 Total                  221.730             56.799            119.152
 Electronic               0.000              0.000              0.000
 Translational            0.889              2.981             41.932
 Rotational               0.889              2.981             32.138
 Vibrational            219.952             50.837             45.082
 Vibration     1          0.593              1.984              5.929
 Vibration     2          0.599              1.964              3.939
 Vibration     3          0.600              1.962              3.875
 Vibration     4          0.603              1.952              3.525
 Vibration     5          0.607              1.940              3.237
 Vibration     6          0.623              1.888              2.515
 Vibration     7          0.630              1.866              2.323
 Vibration     8          0.643              1.825              2.041
 Vibration     9          0.644              1.822              2.020
 Vibration    10          0.656              1.783              1.819
 Vibration    11          0.693              1.671              1.409
 Vibration    12          0.702              1.647              1.340
 Vibration    13          0.722              1.590              1.200
 Vibration    14          0.764              1.476              0.972
 Vibration    15          0.776              1.444              0.919
 Vibration    16          0.809              1.360              0.795
 Vibration    17          0.840              1.285              0.699
 Vibration    18          0.853              1.256              0.665
 Vibration    19          0.879              1.196              0.600
 Vibration    20          0.902              1.147              0.551

 Optimization completed.
    -- Stationary point found.
 Normal termination of Gaussian 16 at Thu Dec 10 17:24:09 2020.

 ----------------------------------------------------------------------
 # B3LYP/6-311++G(d,p) empiricaldispersion=gd3bj scf=xqc pop=npa geom=c
 heck
 ----------------------------------------------------------------------

 ---------------------------------------
 CID_105306206_JID_5519_Energie_neutraal
 ---------------------------------------
 Structure from the checkpoint file:  "JID_5519.chk"
 Charge =  0 Multiplicity = 1

 SCF Done:  E(RB3LYP) =  -655.407296864     A.U. after   14 cycles
 Normal termination of Gaussian 16 at Thu Dec 10 17:30:10 2020.

 ----------------------------------------------------------------------
 # B3LYP/6-311++G(d,p) empiricaldispersion=gd3bj scf=xqc pop=npa geom=c
 heck
 ----------------------------------------------------------------------

 -------------------------------------
 CID_105306206_JID_5519_Energie_kation
 -------------------------------------
 Structure from the checkpoint file:  "JID_5519.chk"
 Charge =  1 Multiplicity = 2

 SCF Done:  E(UB3LYP) =  -655.121575586     A.U. after   23 cycles
 Normal termination of Gaussian 16 at Thu Dec 10 17:45:25 2020.
 Gaussian 16:  ES64L-G16RevA.03 25-Dec-2016

 ----------------------------------------------------------------------
 # B3LYP/6-311++G(d,p) empiricaldispersion=gd3bj scf=xqc pop=npa geom=c
 heck
 ----------------------------------------------------------------------

 ------------------------------------
 CID_105306206_JID_5519_Energie_anion
 ------------------------------------
 Structure from the checkpoint file:  "JID_5519.chk"
 Charge = -1 Multiplicity = 2

                         Standard orientation:
 ---------------------------------------------------------------------
 Center     Atomic      Atomic             Coordinates (Angstroms)
 Number     Number       Type             X           Y           Z
 ---------------------------------------------------------------------
      1          6           0        0.943977   -1.663243   -0.097423
      2          6           0        2.188224   -1.622849   -0.987353
      3          8           0        3.358816   -1.292108   -0.256820
      4          6           0        3.236304   -0.026550    0.386512
      5          6           0        2.062006   -0.001156    1.361631
      6          6           0        0.727846   -0.329132    0.654122
      7          6           0        0.201071    0.808444   -0.273354
      8          6           0       -1.341564    0.837872   -0.487780
      9          6           0       -1.902867   -0.339511   -1.330270
     10          6           0       -2.496731   -1.338693   -0.335840
     11          6           0       -3.866986   -1.026245    0.210166
     12          6           0       -2.643069   -0.638944    1.000640
     13          6           0       -2.140646    0.797465    0.844191
     14          7           0        0.712348    2.105470    0.215306
     15          7           0        0.305238    3.185110   -0.708146
     16          1           0        1.085207   -2.457445    0.646288
     17          1           0        0.074525   -1.941608   -0.696454
     18          1           0        2.375501   -2.604978   -1.432754
     19          1           0        2.049095   -0.905079   -1.815134
     20          1           0        3.118616    0.772419   -0.362953
     21          1           0        4.184615    0.134847    0.908064
     22          1           0        2.025969    0.970161    1.859722
     23          1           0        2.236903   -0.767204    2.128556
     24          1           0       -0.022159   -0.502765    1.432531
     25          1           0        0.658583    0.682740   -1.265485
     26          1           0       -1.528662    1.784301   -1.002097
     27          1           0       -2.677220    0.024756   -2.017343
     28          1           0       -1.130333   -0.795063   -1.958304
     29          1           0       -2.194029   -2.380675   -0.389087
     30          1           0       -4.469917   -1.853033    0.576763
     31          1           0       -4.441151   -0.233398   -0.267234
     32          1           0       -2.444868   -1.165082    1.930653
     33          1           0       -1.525470    1.097318    1.701533
     34          1           0       -2.977554    1.505269    0.810798
     35          1           0        0.192753    2.320275    1.070637
     36          1           0        0.896088    3.969890   -0.422585
     37          1           0        0.714489    2.902425   -1.603111
 ---------------------------------------------------------------------

 SCF Done:  E(UB3LYP) =  -655.393014480     A.U. after   30 cycles

 The electronic state is 2-A.
 Alpha  occ. eigenvalues --  -19.02319 -14.22242 -14.21966 -10.11657 -10.11106
 Alpha  occ. eigenvalues --  -10.10029 -10.07802 -10.07597 -10.07564 -10.07175
 Alpha  occ. eigenvalues --  -10.06892 -10.06886 -10.06871 -10.06774 -10.06372
 Alpha  occ. eigenvalues --   -0.93763  -0.85764  -0.78306  -0.72868  -0.67994
 Alpha  occ. eigenvalues --   -0.66636  -0.65378  -0.61222  -0.57096  -0.53814
 Alpha  occ. eigenvalues --   -0.53533  -0.50062  -0.46827  -0.45336  -0.44389
 Alpha  occ. eigenvalues --   -0.41872  -0.40286  -0.39252  -0.37731  -0.36607
 Alpha  occ. eigenvalues --   -0.35970  -0.35724  -0.33762  -0.32790  -0.31735
 Alpha  occ. eigenvalues --   -0.31135  -0.30877  -0.29475  -0.28739  -0.27559
 Alpha  occ. eigenvalues --   -0.26620  -0.25505  -0.25386  -0.24882  -0.23081
 Alpha  occ. eigenvalues --   -0.22699  -0.21541  -0.21226  -0.20143  -0.18748
 Alpha  occ. eigenvalues --   -0.17254  -0.15485  -0.10508   0.04332
 Alpha virt. eigenvalues --    0.06031   0.06864   0.07247   0.08261   0.08649
 Alpha virt. eigenvalues --    0.08877   0.09366   0.09528   0.10757   0.11249
 Alpha virt. eigenvalues --    0.11516   0.11791   0.12317   0.12496   0.12904

  Beta  occ. eigenvalues --  -19.02315 -14.22223 -14.21918 -10.11644 -10.11096
  Beta  occ. eigenvalues --  -10.10019 -10.07799 -10.07587 -10.07554 -10.07158
  Beta  occ. eigenvalues --  -10.06881 -10.06878 -10.06856 -10.06770 -10.06363
  Beta  occ. eigenvalues --   -0.93754  -0.85713  -0.78280  -0.72828  -0.67956
  Beta  occ. eigenvalues --   -0.66611  -0.65324  -0.61192  -0.57056  -0.53788
  Beta  occ. eigenvalues --   -0.53502  -0.50020  -0.46793  -0.45302  -0.44352
  Beta  occ. eigenvalues --   -0.41825  -0.40252  -0.39207  -0.37702  -0.36561
  Beta  occ. eigenvalues --   -0.35941  -0.35695  -0.33733  -0.32758  -0.31706
  Beta  occ. eigenvalues --   -0.31110  -0.30848  -0.29441  -0.28715  -0.27537
  Beta  occ. eigenvalues --   -0.26593  -0.25482  -0.25358  -0.24856  -0.23057
  Beta  occ. eigenvalues --   -0.22674  -0.21522  -0.21204  -0.20128  -0.18725
  Beta  occ. eigenvalues --   -0.17234  -0.15462  -0.10471
  Beta virt. eigenvalues --    0.06455   0.07142   0.07448   0.07622   0.08823
  Beta virt. eigenvalues --    0.08912   0.09490   0.09638   0.09784   0.11005
  Beta virt. eigenvalues --    0.11700   0.11855   0.11997   0.12586   0.12991

 Mulliken charges and spin densities:
               1          2
     1  C   -0.381295  -0.011333
     2  C   -0.047882  -0.473683
     3  O   -0.132167   0.029079
     4  C    0.029032  -0.494406
     5  C    0.037661  -0.161985
     6  C   -0.011309   0.698227
     7  C   -0.355572  -1.334956
     8  C   -0.225143   1.020780
     9  C    0.806040  -1.545683
    10  C   -0.703014   0.840214
    11  C    0.972861  -1.620808
    12  C   -0.880962   0.855146
    13  C    0.837014  -1.505331
    14  N   -0.116254   0.212355
    15  N   -0.096890  -0.259943
    16  H   -0.002611   0.175539
    17  H    0.242878  -0.147067
    18  H   -0.086716   0.280574
    19  H   -0.174891   0.322092
    20  H    0.081606   0.096675
    21  H   -0.006452   0.202589
    22  H   -0.201339   0.308679
    23  H    0.063307   0.103759
    24  H    0.161199   0.086241
    25  H    0.365825  -0.151965
    26  H    0.479838  -0.184985
    27  H   -0.163369   0.331837
    28  H    0.081233   0.039898
    29  H   -0.382067   0.615500
    30  H   -0.360966   0.501315
    31  H    0.028722   0.097151
    32  H   -0.407579   0.634388
    33  H    0.022519   0.096369
    34  H   -0.151855   0.324722
    35  H    0.075577   0.136075
    36  H   -0.149514   0.406808
    37  H   -0.247464   0.476131
 Sum of Mulliken charges =  -1.00000   1.00000

 Dipole moment (field-independent basis, Debye):
    X=              0.8079    Y=             -0.9321    Z=              0.1623  Tot=              1.2441
 Quadrupole moment (field-independent basis, Debye-Ang):
   XX=           -160.0081   YY=           -153.8501   ZZ=           -130.6978
   XY=             -9.1194   XZ=              6.0478   YZ=              3.5354

 Summary of Natural Population Analysis:

                                       Natural Population
                Natural  -----------------------------------------------
    Atom  No    Charge         Core      Valence    Rydberg      Total
 -----------------------------------------------------------------------
      C    1   -0.20280      0.99960     2.19453    0.00867     3.20280
      C    2   -0.00968      0.99958     1.99767    0.01243     3.00968
      O    3   -0.30349      0.99989     3.29452    0.00908     4.30349
      C    4   -0.01138      0.99957     1.99936    0.01244     3.01138
      C    5   -0.20233      0.99961     2.19341    0.00931     3.20233
      C    6   -0.11442      0.99956     2.10418    0.01067     3.11442
      C    7   -0.00513      0.99956     1.99112    0.01446     3.00513
      C    8   -0.11921      0.99957     2.10857    0.01106     3.11921
      C    9   -0.19273      0.99961     2.18439    0.00872     3.19273
      C   10   -0.11625      0.99958     2.10605    0.01062     3.11625
      C   11   -0.19221      0.99960     2.18302    0.00959     3.19221
      C   12   -0.11483      0.99958     2.10462    0.01062     3.11483
      C   13   -0.19525      0.99961     2.18645    0.00919     3.19525
      N   14   -0.26136      0.99974     2.74730    0.01432     3.76136
      N   15   -0.33213      0.99978     2.82115    0.01121     3.83213
      H   16    0.09870      0.00000     0.40005    0.00125     0.40130
      H   17    0.10464      0.00000     0.39373    0.00163     0.39536
      H   18    0.09008      0.00000     0.40876    0.00115     0.40992
      H   19    0.07597      0.00000     0.42251    0.00152     0.42403
      H   20    0.08286      0.00000     0.41539    0.00174     0.41714
      H   21    0.08787      0.00000     0.41098    0.00115     0.41213
      H   22    0.10937      0.00000     0.38931    0.00132     0.39063
      H   23    0.09553      0.00000     0.40332    0.00115     0.40447
      H   24    0.10231      0.00000     0.39507    0.00262     0.39769
      H   25    0.09091      0.00000     0.40659    0.00250     0.40909
      H   26    0.11180      0.00000     0.38610    0.00210     0.38820
      H   27    0.09821      0.00000     0.40056    0.00123     0.40179
      H   28    0.10225      0.00000     0.39652    0.00123     0.39775
      H   29    0.10570      0.00000     0.39282    0.00148     0.39430
      H   30    0.10420      0.00000     0.39459    0.00121     0.39580
      H   31    0.09643      0.00000     0.40227    0.00130     0.40357
      H   32    0.10529      0.00000     0.39314    0.00157     0.39471
      H   33    0.09928      0.00000     0.39906    0.00165     0.40072
      H   34    0.10056      0.00000     0.39829    0.00115     0.39944
      H   35    0.16635      0.00000     0.33070    0.00295     0.33365
      H   36    0.17544      0.00000     0.32165    0.00291     0.32456
      H   37    0.16946      0.00000     0.32780    0.00273     0.33054
 =======================================================================
   * Total *    0.00000     14.99447    42.80559    0.19994    58.00000

 Normal termination of Gaussian 16 at Thu Dec 10 18:01:31 2020.
