 Gaussian 16, Revision A.03,

 -----------------------------------------------------------
 # opt freq B3LYP/6-31G(d) empiricaldispersion=gd3bj scf=xqc
 -----------------------------------------------------------

 -------------------------------
 CID_105588492_JID_8188_neutraal
 -------------------------------
 Symbolic Z-matrix:
 Charge =  0 Multiplicity = 1

 SCF Done:  E(RB3LYP) =  -764.553140846     A.U. after   15 cycles
 SCF Done:  E(RB3LYP) =  -764.559841860     A.U. after   13 cycles
 SCF Done:  E(RB3LYP) =  -764.560817535     A.U. after   15 cycles
 SCF Done:  E(RB3LYP) =  -764.562050192     A.U. after   13 cycles
 SCF Done:  E(RB3LYP) =  -764.563030883     A.U. after   12 cycles
 SCF Done:  E(RB3LYP) =  -764.564116829     A.U. after   13 cycles
 SCF Done:  E(RB3LYP) =  -764.564327681     A.U. after   12 cycles
 SCF Done:  E(RB3LYP) =  -764.564661919     A.U. after   12 cycles
 SCF Done:  E(RB3LYP) =  -764.564683569     A.U. after   10 cycles
 SCF Done:  E(RB3LYP) =  -764.564689140     A.U. after   10 cycles
 SCF Done:  E(RB3LYP) =  -764.564690192     A.U. after    8 cycles
 SCF Done:  E(RB3LYP) =  -764.564690352     A.U. after    8 cycles
 Optimization completed.
    -- Stationary point found.
 Normal termination of Gaussian 16 at Fri Dec 11 19:27:34 2020.

 --------------------------------------------------------------------
 #N Geom=AllCheck Guess=TCheck SCRF=Check GenChk RB3LYP/6-31G(d) Freq
 --------------------------------------------------------------------

 Structure from the checkpoint file:  "JID_8188.chk"
 -------------------------------
 CID_105588492_JID_8188_neutraal
 -------------------------------
 Charge =  0 Multiplicity = 1

 SCF Done:  E(RB3LYP) =  -764.564690352     A.U. after    1 cycles

  Exact polarizability: 178.610  -1.363 182.073 -15.203 -12.775 134.069
 Approx polarizability: 236.600  -8.691 302.987 -34.485 -34.352 214.932

                      1                      2                      3
                      A                      A                      A
 Frequencies --     30.1278                40.4840                69.3313
 Red. masses --      4.6920                 4.5997                 4.2830
 Frc consts  --      0.0025                 0.0044                 0.0121
 IR Inten    --      1.7669                 1.2283                 1.0878

                      4                      5                      6
                      A                      A                      A
 Frequencies --     98.1056               124.1134               131.7587
 Red. masses --      3.5489                 3.9289                 2.6434
 Frc consts  --      0.0201                 0.0357                 0.0270
 IR Inten    --      1.1872                 0.1970                 0.4766

                      7                      8                      9
                      A                      A                      A
 Frequencies --    139.2964               162.0146               190.6840
 Red. masses --      5.3575                 2.5854                 2.5759
 Frc consts  --      0.0612                 0.0400                 0.0552
 IR Inten    --      4.9445                 1.5349                 0.2414

                     10                     11                     12
                      A                      A                      A
 Frequencies --    207.1048               231.8392               242.0891
 Red. masses --      1.1585                 4.1125                 3.9706
 Frc consts  --      0.0293                 0.1302                 0.1371
 IR Inten    --      0.3705                 1.1230                 1.8716

                     13                     14                     15
                      A                      A                      A
 Frequencies --    269.8005               309.6291               336.9587
 Red. masses --      1.3315                 2.3352                 3.3863
 Frc consts  --      0.0571                 0.1319                 0.2265
 IR Inten    --      0.3321                 0.2004                 3.5552

                     16                     17                     18
                      A                      A                      A
 Frequencies --    367.0597               383.5879               399.5945
 Red. masses --      2.7241                 2.8658                 4.0179
 Frc consts  --      0.2162                 0.2484                 0.3780
 IR Inten    --      5.4916                 2.5752                 4.1243

                     19                     20                     21
                      A                      A                      A
 Frequencies --    430.9335               450.9886               455.4066
 Red. masses --      2.3268                 2.5136                 3.5281
 Frc consts  --      0.2546                 0.3012                 0.4311
 IR Inten    --      4.7089                 0.5989                 1.5699

                     22                     23                     24
                      A                      A                      A
 Frequencies --    476.4470               495.5610               523.1829
 Red. masses --      2.5398                 2.9965                 4.1188
 Frc consts  --      0.3397                 0.4336                 0.6642
 IR Inten    --      2.1655                 0.1727                 2.1600

                     25                     26                     27
                      A                      A                      A
 Frequencies --    561.4592               586.1985               599.6546
 Red. masses --      3.5346                 4.0994                 3.6715
 Frc consts  --      0.6565                 0.8300                 0.7779
 IR Inten    --     12.6607                 4.5350                 3.0489

                     28                     29                     30
                      A                      A                      A
 Frequencies --    619.9465               660.1599               733.7040
 Red. masses --      5.1513                 3.7929                 4.9408
 Frc consts  --      1.1665                 0.9739                 1.5671
 IR Inten    --      3.7963                 1.9904                 6.7061

                     31                     32                     33
                      A                      A                      A
 Frequencies --    748.3727               762.5834               802.9433
 Red. masses --      2.3846                 1.7516                 2.3590
 Frc consts  --      0.7869                 0.6002                 0.8961
 IR Inten    --      1.5663                 5.1156                18.6586

                     34                     35                     36
                      A                      A                      A
 Frequencies --    830.5292               837.6423               855.5242
 Red. masses --      2.2560                 3.0262                 4.4251
 Frc consts  --      0.9169                 1.2510                 1.9083
 IR Inten    --      7.1636                 3.2933                 9.7553

                     37                     38                     39
                      A                      A                      A
 Frequencies --    869.1432               924.1669               927.7057
 Red. masses --      2.2886                 2.2438                 1.5832
 Frc consts  --      1.0186                 1.1291                 0.8028
 IR Inten    --      3.1401                19.1808                 1.9404

                     40                     41                     42
                      A                      A                      A
 Frequencies --    957.2210               968.6265               999.7862
 Red. masses --      1.7908                 1.4985                 1.3711
 Frc consts  --      0.9667                 0.8284                 0.8075
 IR Inten    --      7.0743                 2.8431                 1.0962

                     43                     44                     45
                      A                      A                      A
 Frequencies --   1006.5901              1031.2589              1060.5755
 Red. masses --      2.0163                 2.2699                 2.0826
 Frc consts  --      1.2037                 1.4223                 1.3802
 IR Inten    --      3.1148                10.7985                 9.9558

                     46                     47                     48
                      A                      A                      A
 Frequencies --   1090.9724              1091.0219              1100.4956
 Red. masses --      2.3159                 2.6846                 1.8565
 Frc consts  --      1.6241                 1.8828                 1.3247
 IR Inten    --      6.5391                 2.3052                40.3782

                     49                     50                     51
                      A                      A                      A
 Frequencies --   1109.5887              1124.4254              1145.2840
 Red. masses --      2.4523                 2.7370                 2.1234
 Frc consts  --      1.7789                 2.0389                 1.6410
 IR Inten    --     21.3125                31.4465                 2.9652

                     52                     53                     54
                      A                      A                      A
 Frequencies --   1161.0826              1170.8891              1192.5184
 Red. masses --      1.8607                 1.6063                 1.7502
 Frc consts  --      1.4779                 1.2975                 1.4664
 IR Inten    --      4.1035                12.8774                 6.3168

                     55                     56                     57
                      A                      A                      A
 Frequencies --   1201.9153              1210.8414              1247.3191
 Red. masses --      1.7869                 1.9941                 3.2828
 Frc consts  --      1.5209                 1.7225                 3.0092
 IR Inten    --      2.4646                31.5218                 2.5042

                     58                     59                     60
                      A                      A                      A
 Frequencies --   1261.5882              1292.3375              1304.0244
 Red. masses --      1.6316                 1.4647                 1.7301
 Frc consts  --      1.5300                 1.4413                 1.7334
 IR Inten    --     15.8397                 6.3978                 1.5378

                     61                     62                     63
                      A                      A                      A
 Frequencies --   1309.4655              1331.6302              1348.3811
 Red. masses --      2.7664                 1.7705                 1.4211
 Frc consts  --      2.7948                 1.8497                 1.5223
 IR Inten    --     10.3038                 4.6445                 9.7250

                     64                     65                     66
                      A                      A                      A
 Frequencies --   1364.2363              1375.2107              1388.6214
 Red. masses --      1.5202                 1.4425                 1.4364
 Frc consts  --      1.6670                 1.6073                 1.6319
 IR Inten    --     12.6326                18.3373                 7.8929

                     67                     68                     69
                      A                      A                      A
 Frequencies --   1399.5078              1412.8429              1417.6042
 Red. masses --      1.2516                 1.3345                 1.2650
 Frc consts  --      1.4444                 1.5694                 1.4978
 IR Inten    --     20.0664                10.9536                 9.9225

                     70                     71                     72
                      A                      A                      A
 Frequencies --   1426.5377              1436.0697              1442.3089
 Red. masses --      1.3899                 1.3421                 1.2317
 Frc consts  --      1.6665                 1.6307                 1.5096
 IR Inten    --     23.4487                 4.8442                15.6161

                     73                     74                     75
                      A                      A                      A
 Frequencies --   1455.5547              1470.7633              1479.3653
 Red. masses --      1.3203                 2.1897                 1.1269
 Frc consts  --      1.6481                 2.7908                 1.4531
 IR Inten    --      7.6342                28.4984                 4.6668

                     76                     77                     78
                      A                      A                      A
 Frequencies --   1491.5175              1495.5865              1507.0371
 Red. masses --      1.1037                 2.1002                 1.0814
 Frc consts  --      1.4466                 2.7678                 1.4471
 IR Inten    --      3.0417                 3.8475                 4.0090

                     79                     80                     81
                      A                      A                      A
 Frequencies --   1514.3163              1517.7509              1521.5336
 Red. masses --      1.1052                 1.0788                 1.0915
 Frc consts  --      1.4933                 1.4642                 1.4889
 IR Inten    --     12.3983                 2.8965                 4.2625

                     82                     83                     84
                      A                      A                      A
 Frequencies --   1532.0582              1536.2584              1550.5238
 Red. masses --      1.0736                 1.0852                 1.0604
 Frc consts  --      1.4847                 1.5091                 1.5021
 IR Inten    --      5.2478                 6.1495                 9.4108

                     85                     86                     87
                      A                      A                      A
 Frequencies --   1552.7369              1615.0804              1640.0789
 Red. masses --      1.0608                 5.2889                 5.6628
 Frc consts  --      1.5069                 8.1284                 8.9746
 IR Inten    --      3.0537                16.1396                 2.2770

                     88                     89                     90
                      A                      A                      A
 Frequencies --   2352.9055              2916.3654              2965.5070
 Red. masses --     12.6915                 1.0807                 1.0595
 Frc consts  --     41.3974                 5.4156                 5.4899
 IR Inten    --      5.4261                36.1840                63.2844

                     91                     92                     93
                      A                      A                      A
 Frequencies --   2999.0677              3017.2991              3026.5271
 Red. masses --      1.0713                 1.0581                 1.0661
 Frc consts  --      5.6773                 5.6758                 5.7536
 IR Inten    --     51.5570                44.3995                40.6995

                     94                     95                     96
                      A                      A                      A
 Frequencies --   3041.3042              3056.2016              3059.6147
 Red. masses --      1.0624                 1.0724                 1.0384
 Frc consts  --      5.7900                 5.9016                 5.7272
 IR Inten    --     63.0373                68.8573                19.3589

                     97                     98                     99
                      A                      A                      A
 Frequencies --   3065.0420              3071.7507              3092.8029
 Red. masses --      1.1056                 1.1006                 1.0651
 Frc consts  --      6.1194                 6.1183                 6.0024
 IR Inten    --     31.4306                 7.2657                23.1942

                    100                    101                    102
                      A                      A                      A
 Frequencies --   3095.7527              3101.7926              3114.8978
 Red. masses --      1.0988                 1.1031                 1.0899
 Frc consts  --      6.2046                 6.2533                 6.2307
 IR Inten    --     40.0787                34.7058                17.4221

                    103                    104                    105
                      A                      A                      A
 Frequencies --   3124.4106              3131.5707              3141.6537
 Red. masses --      1.1014                 1.1014                 1.0991
 Frc consts  --      6.3348                 6.3640                 6.3917
 IR Inten    --     26.2690                41.2549                19.5741

                    106                    107                    108
                      A                      A                      A
 Frequencies --   3185.9417              3212.7842              3241.3114
 Red. masses --      1.0893                 1.0929                 1.0921
 Frc consts  --      6.5146                 6.6464                 6.7604
 IR Inten    --     14.9345                16.2378                 6.1587

 - Thermochemistry -
 -------------------
 Temperature   298.150 Kelvin.  Pressure   1.00000 Atm.
 Atom     1 has atomic number  6 and mass  12.00000

 Molecular mass:   244.16880 amu.
 Principal axes and moments of inertia in atomic units:
                           1         2         3
     Eigenvalues --  2620.021656551.531597549.36706
           X            0.99990   0.01391   0.00305
           Y           -0.01401   0.99934   0.03338
           Z           -0.00259  -0.03342   0.99944
 This molecule is an asymmetric top.
 Rotational symmetry number  1.
 Warning -- assumption of classical behavior for rotation
           may cause significant error
 Rotational temperatures (Kelvin)      0.03306     0.01322     0.01147
 Rotational constants (GHZ):           0.68883     0.27547     0.23906
 Zero-point vibrational energy     868257.2 (Joules/Mol)
                                  207.51846 (Kcal/Mol)
 Warning -- explicit consideration of  28 degrees of freedom as
           vibrations may cause significant error
 Vibrational temperatures:     43.35    58.25    99.75   141.15   178.57
          (Kelvin)            189.57   200.42   233.10   274.35   297.98
                              333.56   348.31   388.18   445.49   484.81
                              528.12   551.90   574.93   620.02   648.87
                              655.23   685.50   713.00   752.74   807.81
                              843.41   862.77   891.96   949.82  1055.64
                             1076.74  1097.19  1155.26  1194.95  1205.18
                             1230.91  1250.50  1329.67  1334.76  1377.23
                             1393.64  1438.47  1448.26  1483.75  1525.93
                             1569.67  1569.74  1583.37  1596.45  1617.80
                             1647.81  1670.54  1684.65  1715.77  1729.29
                             1742.13  1794.61  1815.14  1859.39  1876.20
                             1884.03  1915.92  1940.02  1962.83  1978.62
                             1997.92  2013.58  2032.77  2039.62  2052.47
                             2066.18  2075.16  2094.22  2116.10  2128.48
                             2145.96  2151.82  2168.29  2178.76  2183.71
                             2189.15  2204.29  2210.33  2230.86  2234.04
                             2323.74  2359.71  3385.31  4196.00  4266.70
                             4314.99  4341.22  4354.50  4375.76  4397.19
                             4402.10  4409.91  4419.56  4449.85  4454.10
                             4462.79  4481.64  4495.33  4505.63  4520.14
                             4583.86  4622.48  4663.52

 Zero-point correction=                           0.330702 (Hartree/Particle)
 Thermal correction to Energy=                    0.347463
 Thermal correction to Enthalpy=                  0.348407
 Thermal correction to Gibbs Free Energy=         0.286152
 Sum of electronic and zero-point Energies=           -764.233989
 Sum of electronic and thermal Energies=              -764.217228
 Sum of electronic and thermal Enthalpies=            -764.216283
 Sum of electronic and thermal Free Energies=         -764.278538

                     E (Thermal)             CV                S
                      KCal/Mol        Cal/Mol-Kelvin    Cal/Mol-Kelvin
 Total                  218.036             65.295            131.027
 Electronic               0.000              0.000              0.000
 Translational            0.889              2.981             42.379
 Rotational               0.889              2.981             33.227
 Vibrational            216.259             59.333             55.421
 Vibration     1          0.594              1.984              5.821
 Vibration     2          0.594              1.981              5.235
 Vibration     3          0.598              1.969              4.172
 Vibration     4          0.604              1.950              3.492
 Vibration     5          0.610              1.929              3.035
 Vibration     6          0.612              1.922              2.920
 Vibration     7          0.615              1.914              2.814
 Vibration     8          0.622              1.889              2.526
 Vibration     9          0.634              1.853              2.221
 Vibration    10          0.641              1.830              2.069
 Vibration    11          0.653              1.792              1.865
 Vibration    12          0.658              1.776              1.787
 Vibration    13          0.674              1.729              1.597
 Vibration    14          0.699              1.655              1.364
 Vibration    15          0.718              1.602              1.227
 Vibration    16          0.740              1.540              1.092
 Vibration    17          0.753              1.505              1.025
 Vibration    18          0.766              1.471              0.964
 Vibration    19          0.792              1.403              0.856
 Vibration    20          0.810              1.359              0.793
 Vibration    21          0.814              1.349              0.780
 Vibration    22          0.833              1.302              0.720
 Vibration    23          0.851              1.260              0.669
 Vibration    24          0.878              1.199              0.603
 Vibration    25          0.917              1.115              0.521
 Vibration    26          0.943              1.061              0.474
 Vibration    27          0.958              1.033              0.450
 Vibration    28          0.980              0.990              0.417

                           ! Non-Optimized Parameters !
 Normal termination of Gaussian 16 at Fri Dec 11 19:46:45 2020.

 ----------------------------------------------------------------------
 # B3LYP/6-311++G(d,p) empiricaldispersion=gd3bj scf=xqc pop=npa geom=c
 heck
 ----------------------------------------------------------------------

 ---------------------------------------
 CID_105588492_JID_8188_Energie_neutraal
 ---------------------------------------
 Structure from the checkpoint file:  "JID_8188.chk"
 Charge =  0 Multiplicity = 1

 SCF Done:  E(RB3LYP) =  -764.765138105     A.U. after   16 cycles
 Normal termination of Gaussian 16 at Fri Dec 11 19:56:00 2020.

 ----------------------------------------------------------------------
 # B3LYP/6-311++G(d,p) empiricaldispersion=gd3bj scf=xqc pop=npa geom=c
 heck
 ----------------------------------------------------------------------

 -------------------------------------
 CID_105588492_JID_8188_Energie_kation
 -------------------------------------
 Structure from the checkpoint file:  "JID_8188.chk"
 Charge =  1 Multiplicity = 2

 SCF Done:  E(UB3LYP) =  -764.494121630     A.U. after   23 cycles
 Normal termination of Gaussian 16 at Fri Dec 11 20:14:43 2020.
 Gaussian 16:  ES64L-G16RevA.03 25-Dec-2016

 ----------------------------------------------------------------------
 # B3LYP/6-311++G(d,p) empiricaldispersion=gd3bj scf=xqc pop=npa geom=c
 heck
 ----------------------------------------------------------------------

 ------------------------------------
 CID_105588492_JID_8188_Energie_anion
 ------------------------------------
 Structure from the checkpoint file:  "JID_8188.chk"
 Charge = -1 Multiplicity = 2

                         Standard orientation:
 ---------------------------------------------------------------------
 Center     Atomic      Atomic             Coordinates (Angstroms)
 Number     Number       Type             X           Y           Z
 ---------------------------------------------------------------------
      1          6           0        1.209585   -2.189169   -1.657422
      2          6           0        1.409728   -1.170242   -0.529425
      3          6           0        2.948233   -0.968081   -0.418708
      4          7           0        3.504803    0.026165    0.469380
      5          6           0        3.276946    1.404801    0.074823
      6          6           0        1.902824    2.004031    0.431412
      7          6           0        0.741869    1.003976    0.389261
      8          7           0        0.725490    0.110748   -0.782554
      9          6           0       -0.613817    0.043932   -1.381184
     10          6           0       -1.744817   -0.368006   -0.444454
     11          6           0       -2.726696    0.549586   -0.018479
     12          7           0       -3.731378    0.269277    0.829987
     13          6           0       -3.798523   -0.971673    1.308291
     14          6           0       -2.884470   -1.970960    0.965226
     15          6           0       -1.855489   -1.660814    0.083394
     16          6           0       -2.696987    1.913104   -0.496781
     17          7           0       -2.645777    3.007980   -0.883841
     18          6           0        3.470213   -0.255182    1.888693
     19          1           0        0.188306   -2.569282   -1.740844
     20          1           0        1.861517   -3.052314   -1.488191
     21          1           0        1.483819   -1.745212   -2.621182
     22          1           0        1.050856   -1.613857    0.420344
     23          1           0        3.376324   -1.941025   -0.139895
     24          1           0        3.305690   -0.733780   -1.430673
     25          1           0        3.409763    1.444856   -1.011495
     26          1           0        4.066239    2.029089    0.516391
     27          1           0        1.696766    2.834807   -0.255141
     28          1           0        1.922427    2.434659    1.441509
     29          1           0       -0.183714    1.584979    0.401253
     30          1           0        0.728244    0.404358    1.312807
     31          1           0       -0.836966    1.037238   -1.780092
     32          1           0       -0.589306   -0.630557   -2.238992
     33          1           0       -4.617790   -1.176334    1.993840
     34          1           0       -2.982412   -2.969500    1.379604
     35          1           0       -1.139599   -2.423697   -0.197570
     36          1           0        2.474190   -0.191740    2.361968
     37          1           0        3.855983   -1.266165    2.067332
     38          1           0        4.126109    0.452473    2.410337
 ---------------------------------------------------------------------

 SCF Done:  E(UB3LYP) =  -764.779824411     A.U. after   33 cycles
 SCF Done:  E(UB3LYP) =  -764.779824411     a.u. after    1 cycles

 The electronic state is 2-A.
 Alpha  occ. eigenvalues --  -14.21185 -14.19633 -14.14174 -14.13894 -10.10453
 Alpha  occ. eigenvalues --  -10.10025 -10.10001 -10.09924 -10.07950 -10.07638
 Alpha  occ. eigenvalues --  -10.06991 -10.06398 -10.05698 -10.05601 -10.04401
 Alpha  occ. eigenvalues --  -10.04258 -10.02704 -10.01533  -0.84132  -0.80794
 Alpha  occ. eigenvalues --   -0.79135  -0.74273  -0.69296  -0.67042  -0.64881
 Alpha  occ. eigenvalues --   -0.62903  -0.61233  -0.59937  -0.55564  -0.53287
 Alpha  occ. eigenvalues --   -0.50539  -0.48066  -0.46936  -0.44390  -0.40545
 Alpha  occ. eigenvalues --   -0.40500  -0.39128  -0.37681  -0.36766  -0.35174
 Alpha  occ. eigenvalues --   -0.34529  -0.33825  -0.32979  -0.31141  -0.31054
 Alpha  occ. eigenvalues --   -0.30170  -0.29146  -0.28642  -0.28345  -0.27298
 Alpha  occ. eigenvalues --   -0.26544  -0.25956  -0.25662  -0.24957  -0.24208
 Alpha  occ. eigenvalues --   -0.23505  -0.23081  -0.22409  -0.20878  -0.19797
 Alpha  occ. eigenvalues --   -0.17767  -0.14494  -0.12335  -0.11768  -0.11082
 Alpha  occ. eigenvalues --   -0.09730   0.04682
 Alpha virt. eigenvalues --    0.06223   0.07487   0.08068   0.08908   0.09632
 Alpha virt. eigenvalues --    0.09876   0.10452   0.10852   0.11123   0.11609
 Alpha virt. eigenvalues --    0.12248   0.12449   0.12963   0.13062   0.13943

  Beta  occ. eigenvalues --  -14.21184 -14.19633 -14.13832 -14.13362 -10.10451
  Beta  occ. eigenvalues --  -10.10023 -10.09998 -10.09923 -10.07945 -10.07634
  Beta  occ. eigenvalues --  -10.06988 -10.06397 -10.05729 -10.05347 -10.04452
  Beta  occ. eigenvalues --  -10.04275 -10.02492 -10.01163  -0.84129  -0.80756
  Beta  occ. eigenvalues --   -0.78370  -0.73761  -0.69289  -0.66811  -0.64574
  Beta  occ. eigenvalues --   -0.62353  -0.61222  -0.59827  -0.55449  -0.53268
  Beta  occ. eigenvalues --   -0.49625  -0.47989  -0.46915  -0.44308  -0.40537
  Beta  occ. eigenvalues --   -0.40289  -0.39011  -0.37642  -0.36743  -0.35154
  Beta  occ. eigenvalues --   -0.34336  -0.33685  -0.32842  -0.31122  -0.30982
  Beta  occ. eigenvalues --   -0.30071  -0.29091  -0.28610  -0.28301  -0.27236
  Beta  occ. eigenvalues --   -0.26196  -0.25869  -0.24852  -0.24562  -0.24072
  Beta  occ. eigenvalues --   -0.23332  -0.22855  -0.22359  -0.20371  -0.18364
  Beta  occ. eigenvalues --   -0.17571  -0.12656  -0.12071  -0.10984  -0.09880
  Beta  occ. eigenvalues --   -0.09338
  Beta virt. eigenvalues --    0.06154   0.07412   0.07989   0.08840   0.09556
  Beta virt. eigenvalues --    0.09788   0.10368   0.10774   0.11163   0.11428
  Beta virt. eigenvalues --    0.11770   0.12193   0.12393   0.12931   0.13019

 Mulliken charges and spin densities:
               1          2
     1  C   -0.584738  -0.056366
     2  C    0.161009   0.008324
     3  C   -0.894919  -0.028585
     4  N    0.111087   0.010914
     5  C   -0.371793  -0.030178
     6  C   -0.319337   0.036875
     7  C   -0.143933  -0.003952
     8  N    0.366616   0.023559
     9  C   -1.149898   0.038715
    10  C    2.084638   0.047641
    11  C   -0.054008   0.248468
    12  N   -0.027107   0.253222
    13  C    0.142335  -0.099659
    14  C   -0.537028   0.371378
    15  C   -0.454009   0.039177
    16  C   -1.300903  -0.116219
    17  N   -0.333303   0.183339
    18  C   -0.252202  -0.033570
    19  H    0.122928   0.034008
    20  H    0.110694   0.014077
    21  H    0.139529   0.014576
    22  H    0.129084   0.003716
    23  H    0.130263   0.004596
    24  H    0.142240   0.007529
    25  H    0.131079   0.001588
    26  H    0.138588   0.017948
    27  H    0.153890  -0.000204
    28  H    0.138213  -0.000980
    29  H    0.148105   0.010747
    30  H    0.083505  -0.016754
    31  H    0.192803  -0.001150
    32  H    0.141919   0.013772
    33  H    0.135844   0.005223
    34  H    0.103681  -0.012239
    35  H    0.071351  -0.033785
    36  H    0.118785   0.016977
    37  H    0.094918   0.021365
    38  H    0.130074   0.005909
 Sum of Mulliken charges =  -1.00000   1.00000

 Dipole moment (field-independent basis, Debye):
    X=             10.6450    Y=             -4.8460    Z=              0.4433  Tot=             11.7045
 Quadrupole moment (field-independent basis, Debye-Ang):
   XX=           -172.1097   YY=           -142.0883   ZZ=           -121.8576
   XY=             14.9906   XZ=              1.9657   YZ=              6.0676

 Summary of Natural Population Analysis:

                                       Natural Population
                Natural  -----------------------------------------------
    Atom  No    Charge         Core      Valence    Rydberg      Total
 -----------------------------------------------------------------------
      C    1   -0.29377      0.99965     2.28870    0.00543     3.29377
      C    2   -0.01454      0.99959     2.00283    0.01212     3.01454
      C    3   -0.07697      0.99959     2.06574    0.01164     3.07697
      N    4   -0.28280      0.99972     2.76923    0.01385     3.78280
      C    5   -0.08041      0.99962     2.06976    0.01102     3.08041
      C    6   -0.20027      0.99963     2.19453    0.00611     3.20027
      C    7   -0.09101      0.99961     2.08108    0.01032     3.09101
      N    8   -0.28823      0.99970     2.77399    0.01454     3.78823
      C    9   -0.09269      0.99958     2.08073    0.01238     3.09269
      C   10   -0.03760      0.99947     2.02803    0.01009     3.03760
      C   11    0.07925      0.99938     1.90655    0.01483     2.92075
      N   12   -0.15260      0.99968     2.64064    0.01228     3.65260
      C   13   -0.00565      0.99960     1.99187    0.01418     3.00565
      C   14   -0.05647      0.99957     2.04811    0.00879     3.05647
      C   15   -0.06225      0.99952     2.05490    0.00783     3.06225
      C   16    0.13898      0.99964     1.84162    0.01976     2.86102
      N   17   -0.16294      0.99978     2.65171    0.01145     3.66294
      C   18   -0.17484      0.99965     2.16820    0.00698     3.17484
      H   19    0.10559      0.00000     0.39309    0.00131     0.39441
      H   20    0.09743      0.00000     0.40154    0.00103     0.40257
      H   21    0.09909      0.00000     0.39960    0.00131     0.40091
      H   22    0.08235      0.00000     0.41514    0.00251     0.41765
      H   23    0.08851      0.00000     0.41031    0.00118     0.41149
      H   24    0.09102      0.00000     0.40755    0.00143     0.40898
      H   25    0.09535      0.00000     0.40325    0.00140     0.40465
      H   26    0.08739      0.00000     0.41154    0.00107     0.41261
      H   27    0.09945      0.00000     0.39951    0.00104     0.40055
      H   28    0.09194      0.00000     0.40708    0.00098     0.40806
      H   29    0.11308      0.00000     0.38562    0.00130     0.38692
      H   30    0.08348      0.00000     0.41442    0.00210     0.41652
      H   31    0.10695      0.00000     0.39215    0.00090     0.39305
      H   32    0.09697      0.00000     0.40201    0.00102     0.40303
      H   33    0.07906      0.00000     0.41956    0.00138     0.42094
      H   34    0.08692      0.00000     0.41191    0.00116     0.41308
      H   35    0.08676      0.00000     0.41182    0.00142     0.41324
      H   36    0.08187      0.00000     0.41589    0.00224     0.41813
      H   37    0.09112      0.00000     0.40774    0.00113     0.40888
      H   38    0.09047      0.00000     0.40851    0.00102     0.40953
 =======================================================================
   * Total *   -0.00000     17.99297    47.77646    0.23057    66.00000

 Normal termination of Gaussian 16 at Fri Dec 11 20:41:59 2020.
