 Gaussian 16, Revision A.03,

 -----------------------------------------------------------
 # opt freq B3LYP/6-31G(d) empiricaldispersion=gd3bj scf=xqc
 -----------------------------------------------------------

 ------------------------------
 CID_137183775_JID_385_neutraal
 ------------------------------
 Symbolic Z-matrix:
 Charge =  0 Multiplicity = 1

 SCF Done:  E(RB3LYP) =  -504.182344194     A.U. after   20 cycles
 SCF Done:  E(RB3LYP) =  -504.222898268     A.U. after   16 cycles
 SCF Done:  E(RB3LYP) =  -504.229793185     A.U. after   15 cycles
 SCF Done:  E(RB3LYP) =  -504.242369297     A.U. after   16 cycles
 SCF Done:  E(RB3LYP) =  -504.245991209     A.U. after   15 cycles
 SCF Done:  E(RB3LYP) =  -504.251784096     A.U. after   15 cycles
 SCF Done:  E(RB3LYP) =  -504.255290051     A.U. after   15 cycles
 SCF Done:  E(RB3LYP) =  -504.256748807     A.U. after   15 cycles
 SCF Done:  E(RB3LYP) =  -504.258474142     A.U. after   16 cycles
 SCF Done:  E(RB3LYP) =  -504.258873919     A.U. after   15 cycles
 SCF Done:  E(RB3LYP) =  -504.259759974     A.U. after   15 cycles
 SCF Done:  E(RB3LYP) =  -504.259780123     A.U. after   14 cycles
 SCF Done:  E(RB3LYP) =  -504.259784834     A.U. after   11 cycles
 SCF Done:  E(RB3LYP) =  -504.259787296     A.U. after   11 cycles
 SCF Done:  E(RB3LYP) =  -504.259787629     A.U. after   11 cycles
 SCF Done:  E(RB3LYP) =  -504.259787792     A.U. after   11 cycles
 Optimization completed.
    -- Stationary point found.
 Normal termination of Gaussian 16 at Tue Dec  8 10:31:20 2020.

 --------------------------------------------------------------------
 #N Geom=AllCheck Guess=TCheck SCRF=Check GenChk RB3LYP/6-31G(d) Freq
 --------------------------------------------------------------------

 Structure from the checkpoint file:  "JID_385.chk"
 ------------------------------
 CID_137183775_JID_385_neutraal
 ------------------------------
 Charge =  0 Multiplicity = 1

 SCF Done:  E(RB3LYP) =  -504.259787792     A.U. after    1 cycles

  Exact polarizability: 100.738   5.079 101.934   2.931   0.362  43.253
 Approx polarizability: 179.917  63.404 383.757  19.322  24.751  70.716

                      1                      2                      3
                      A                      A                      A
 Frequencies --     48.3324               143.5831               170.4645
 Red. masses --      7.0132                 5.0864                 4.0051
 Frc consts  --      0.0097                 0.0618                 0.0686
 IR Inten    --     11.4134                 4.2821                 1.3436

                      4                      5                      6
                      A                      A                      A
 Frequencies --    218.2017               257.5800               310.2317
 Red. masses --      2.0913                 1.8278                 5.2654
 Frc consts  --      0.0587                 0.0714                 0.2986
 IR Inten    --      0.7689                 0.0157                11.0920

                      7                      8                      9
                      A                      A                      A
 Frequencies --    358.8351               420.7358               489.5861
 Red. masses --      5.1074                 5.7181                 7.1578
 Frc consts  --      0.3875                 0.5964                 1.0109
 IR Inten    --      4.3942                 2.0478                22.3903

                     10                     11                     12
                      A                      A                      A
 Frequencies --    525.9531               562.4328               576.4844
 Red. masses --      6.5706                 1.6771                 4.8062
 Frc consts  --      1.0709                 0.3126                 0.9411
 IR Inten    --     26.4717                91.0363                 9.7859

                     13                     14                     15
                      A                      A                      A
 Frequencies --    653.6653               671.4144               720.2515
 Red. masses --      7.0002                 2.3766                 7.4060
 Frc consts  --      1.7623                 0.6312                 2.2636
 IR Inten    --     23.4950                 6.6276                25.8988

                     16                     17                     18
                      A                      A                      A
 Frequencies --    722.7211               800.2073               958.5666
 Red. masses --      9.2724                 1.4168                 7.8772
 Frc consts  --      2.8536                 0.5345                 4.2645
 IR Inten    --      2.0688                15.9448                 2.0016

                     19                     20                     21
                      A                      A                      A
 Frequencies --    996.4962              1078.9668              1130.6297
 Red. masses --      3.4611                 1.6766                 2.5025
 Frc consts  --      2.0249                 1.1500                 1.8848
 IR Inten    --     31.5927                11.9229                20.1926

                     22                     23                     24
                      A                      A                      A
 Frequencies --   1142.7070              1201.3624              1286.1863
 Red. masses --      1.3995                 2.4711                 2.4155
 Frc consts  --      1.0767                 2.1013                 2.3543
 IR Inten    --      4.4387                94.0713                23.9016

                     25                     26                     27
                      A                      A                      A
 Frequencies --   1317.7454              1379.8650              1397.6248
 Red. masses --      5.0927                 7.0461                 2.6677
 Frc consts  --      5.2103                 7.9044                 3.0702
 IR Inten    --    121.7804                46.6151                94.7948

                     28                     29                     30
                      A                      A                      A
 Frequencies --   1449.6293              1452.7882              1489.7454
 Red. masses --      5.1918                 1.2492                 1.0729
 Frc consts  --      6.4280                 1.5535                 1.4030
 IR Inten    --     11.1815                 3.9960                 2.8679

                     31                     32                     33
                      A                      A                      A
 Frequencies --   1504.8908              1524.8442              1573.7198
 Red. masses --      4.5144                 1.1675                 4.0777
 Frc consts  --      6.0237                 1.5994                 5.9500
 IR Inten    --      4.1746                 2.4008                58.7657

                     34                     35                     36
                      A                      A                      A
 Frequencies --   1798.2434              3058.5497              3149.5108
 Red. masses --     13.5969                 1.0386                 1.0974
 Frc consts  --     25.9052                 5.7243                 6.4134
 IR Inten    --    340.4287                35.0557                 5.6390

                     37                     38                     39
                      A                      A                      A
 Frequencies --   3193.4330              3280.8522              3630.6444
 Red. masses --      1.1056                 1.0975                 1.0809
 Frc consts  --      6.6431                 6.9604                 8.3949
 IR Inten    --      5.3464                 0.3622                77.3805

 - Thermochemistry -
 -------------------
 Temperature   298.150 Kelvin.  Pressure   1.00000 Atm.
 Atom     1 has atomic number  6 and mass  12.00000

 Molecular mass:   139.04941 amu.
 Principal axes and moments of inertia in atomic units:
                           1         2         3
     Eigenvalues --   819.080491279.736591839.22988
           X            0.99896  -0.03709  -0.02660
           Y            0.03689   0.99929  -0.00793
           Z            0.02688   0.00695   0.99961
 This molecule is an asymmetric top.
 Rotational symmetry number  1.
 Warning -- assumption of classical behavior for rotation
           may cause significant error
 Rotational temperatures (Kelvin)      0.10575     0.06768     0.04709
 Rotational constants (GHZ):           2.20337     1.41024     0.98125
 Zero-point vibrational energy     279015.1 (Joules/Mol)
                                   66.68621 (Kcal/Mol)
 Warning -- explicit consideration of  12 degrees of freedom as
           vibrations may cause significant error
 Vibrational temperatures:     69.54   206.58   245.26   313.94   370.60
          (Kelvin)            446.35   516.28   605.35   704.41   756.73
                              809.22   829.43   940.48   966.02  1036.28
                             1039.83  1151.32  1379.16  1433.74  1552.39
                             1626.72  1644.10  1728.49  1850.54  1895.94
                             1985.32  2010.87  2085.69  2090.24  2143.41
                             2165.20  2193.91  2264.23  2587.27  4400.57
                             4531.44  4594.64  4720.41  5223.69

 Zero-point correction=                           0.106271 (Hartree/Particle)
 Thermal correction to Energy=                    0.114837
 Thermal correction to Enthalpy=                  0.115781
 Thermal correction to Gibbs Free Energy=         0.072446
 Sum of electronic and zero-point Energies=           -504.153517
 Sum of electronic and thermal Energies=              -504.144951
 Sum of electronic and thermal Enthalpies=            -504.144007
 Sum of electronic and thermal Free Energies=         -504.187342

                     E (Thermal)             CV                S
                      KCal/Mol        Cal/Mol-Kelvin    Cal/Mol-Kelvin
 Total                   72.061             31.426             91.206
 Electronic               0.000              0.000              0.000
 Translational            0.889              2.981             40.701
 Rotational               0.889              2.981             29.046
 Vibrational             70.284             25.464             21.459
 Vibration     1          0.595              1.978              4.884
 Vibration     2          0.616              1.910              2.756
 Vibration     3          0.626              1.879              2.430
 Vibration     4          0.646              1.813              1.974
 Vibration     5          0.667              1.750              1.678
 Vibration     6          0.699              1.654              1.361
 Vibration     7          0.734              1.557              1.127
 Vibration     8          0.783              1.425              0.889
 Vibration     9          0.845              1.273              0.685
 Vibration    10          0.881              1.193              0.596
 Vibration    11          0.918              1.113              0.519
 Vibration    12          0.933              1.082              0.492

                           ! Non-Optimized Parameters !
 Normal termination of Gaussian 16 at Tue Dec  8 10:33:49 2020.

 ----------------------------------------------------------------------
 # B3LYP/6-311++G(d,p) empiricaldispersion=gd3bj scf=xqc pop=npa geom=c
 heck
 ----------------------------------------------------------------------

 --------------------------------------
 CID_137183775_JID_385_Energie_neutraal
 --------------------------------------
 Structure from the checkpoint file:  "JID_385.chk"
 Charge =  0 Multiplicity = 1

 SCF Done:  E(RB3LYP) =  -504.405206783     A.U. after   19 cycles
 Normal termination of Gaussian 16 at Tue Dec  8 10:36:56 2020.

 ----------------------------------------------------------------------
 # B3LYP/6-311++G(d,p) empiricaldispersion=gd3bj scf=xqc pop=npa geom=c
 heck
 ----------------------------------------------------------------------

 ------------------------------------
 CID_137183775_JID_385_Energie_kation
 ------------------------------------
 Structure from the checkpoint file:  "JID_385.chk"
 Charge =  1 Multiplicity = 2

 SCF Done:  E(UB3LYP) =  -504.125647722     A.U. after   25 cycles
 Normal termination of Gaussian 16 at Tue Dec  8 10:42:13 2020.
 Gaussian 16:  ES64L-G16RevA.03 25-Dec-2016

 ----------------------------------------------------------------------
 # B3LYP/6-311++G(d,p) empiricaldispersion=gd3bj scf=xqc pop=npa geom=c
 heck
 ----------------------------------------------------------------------

 -----------------------------------
 CID_137183775_JID_385_Energie_anion
 -----------------------------------
 Structure from the checkpoint file:  "JID_385.chk"
 Charge = -1 Multiplicity = 2

                         Standard orientation:
 ---------------------------------------------------------------------
 Center     Atomic      Atomic             Coordinates (Angstroms)
 Number     Number       Type             X           Y           Z
 ---------------------------------------------------------------------
      1          6           0       -2.112049   -0.234092    1.019753
      2          7           0       -1.225255   -0.460193   -0.139598
      3          6           0        0.152089   -0.377076    0.045415
      4          6           0        0.884371    0.790020    0.000720
      5          7           0        2.223357    0.572540    0.087848
      6          6           0        2.324967   -0.741680    0.129883
      7          7           0        1.092551   -1.364513    0.094720
      8          7           0        0.142161    1.979863   -0.157016
      9          7           0       -1.025853    1.896184   -0.372071
     10          8           0       -1.635620   -1.346260   -0.983736
     11          1           0       -3.076877    0.087510    0.628678
     12          1           0       -1.695147    0.532337    1.676009
     13          1           0       -2.226835   -1.183471    1.555595
     14          1           0        3.248576   -1.301059    0.176664
     15          1           0        0.890248   -2.355430    0.061136
 ---------------------------------------------------------------------

 SCF Done:  E(UB3LYP) =  -504.453337220     A.U. after   27 cycles

 The electronic state is 2-A.
 Alpha  occ. eigenvalues --  -18.89331 -14.23943 -14.22207 -14.20567 -14.17613
 Alpha  occ. eigenvalues --  -14.17042 -10.10320 -10.08153 -10.06657 -10.05001
 Alpha  occ. eigenvalues --   -0.91438  -0.88456  -0.87747  -0.75355  -0.66192
 Alpha  occ. eigenvalues --   -0.61245  -0.54480  -0.50923  -0.49131  -0.40783
 Alpha  occ. eigenvalues --   -0.38571  -0.34207  -0.32931  -0.32274  -0.30196
 Alpha  occ. eigenvalues --   -0.27943  -0.26500  -0.25220  -0.24103  -0.22078
 Alpha  occ. eigenvalues --   -0.18727  -0.16249  -0.15887  -0.09552  -0.06227
 Alpha  occ. eigenvalues --   -0.02436   0.02469
 Alpha virt. eigenvalues --    0.08404   0.10050   0.11479   0.11602   0.13434
 Alpha virt. eigenvalues --    0.14045   0.14230   0.15578   0.16723   0.17896
 Alpha virt. eigenvalues --    0.18361   0.18907   0.20129   0.20619   0.21366

  Beta  occ. eigenvalues --  -18.89171 -14.23881 -14.21904 -14.20316 -14.17628
  Beta  occ. eigenvalues --  -14.15595 -10.10318 -10.08124 -10.06376 -10.05008
  Beta  occ. eigenvalues --   -0.91028  -0.87927  -0.86730  -0.75235  -0.65795
  Beta  occ. eigenvalues --   -0.60799  -0.53660  -0.50355  -0.49029  -0.40460
  Beta  occ. eigenvalues --   -0.37780  -0.33870  -0.32637  -0.32065  -0.29669
  Beta  occ. eigenvalues --   -0.27773  -0.25025  -0.24089  -0.23136  -0.19575
  Beta  occ. eigenvalues --   -0.17926  -0.16062  -0.15338  -0.08994  -0.06045
  Beta  occ. eigenvalues --    0.01237
  Beta virt. eigenvalues --    0.08408   0.10107   0.11573   0.12072   0.12559
  Beta virt. eigenvalues --    0.13608   0.14108   0.14357   0.15671   0.16784
  Beta virt. eigenvalues --    0.17927   0.18430   0.18979   0.20167   0.20666

 Mulliken charges and spin densities:
               1          2
     1  C   -0.303439   0.002895
     2  N    0.028818   0.058834
     3  C   -0.241594   0.184631
     4  C   -0.084379  -0.091101
     5  N   -0.240230   0.001849
     6  C    0.050330   0.006141
     7  N   -0.169326   0.012342
     8  N   -0.140866   0.145061
     9  N   -0.156816   0.631199
    10  O   -0.456819   0.059854
    11  H    0.150431   0.008041
    12  H    0.119337   0.001118
    13  H    0.051264  -0.013634
    14  H    0.135925   0.004709
    15  H    0.257363  -0.011938
 Sum of Mulliken charges =  -1.00000   1.00000

 Dipole moment (field-independent basis, Debye):
    X=              3.2601    Y=             -3.3198    Z=              3.5543  Tot=              5.8551
 Quadrupole moment (field-independent basis, Debye-Ang):
   XX=            -79.3022   YY=            -75.9742   ZZ=            -66.5616
   XY=            -11.1793   XZ=             -6.4299   YZ=             -2.5640

 Summary of Natural Population Analysis:

                                       Natural Population
                Natural  -----------------------------------------------
    Atom  No    Charge         Core      Valence    Rydberg      Total
 -----------------------------------------------------------------------
      C    1   -0.18142      0.99963     2.17442    0.00737     3.18142
      N    2   -0.02014      0.99963     2.49856    0.02195     3.52014
      C    3    0.15057      0.99938     1.83283    0.01721     2.84943
      C    4    0.12305      0.99932     1.85697    0.02067     2.87695
      N    5   -0.25544      0.99969     2.74290    0.01284     3.75544
      C    6    0.07851      0.99970     1.90352    0.01827     2.92149
      N    7   -0.26712      0.99965     2.75928    0.00819     3.76712
      N    8   -0.06451      0.99964     2.54181    0.02306     3.56451
      N    9    0.22510      0.99984     2.25928    0.01578     3.27490
      O   10   -0.33368      0.99992     3.32441    0.00936     4.33368
      H   11    0.09675      0.00000     0.40131    0.00194     0.40325
      H   12    0.09314      0.00000     0.40576    0.00110     0.40686
      H   13    0.07260      0.00000     0.41893    0.00847     0.42740
      H   14    0.08235      0.00000     0.41636    0.00130     0.41765
      H   15    0.20023      0.00000     0.29491    0.00486     0.29977
 =======================================================================
   * Total *    0.00000      9.99640    25.83124    0.17235    36.00000

 Normal termination of Gaussian 16 at Tue Dec  8 10:48:02 2020.
