 Gaussian 16, Revision A.03,

 -----------------------------------------------------------
 # opt freq B3LYP/6-31G(d) empiricaldispersion=gd3bj scf=xqc
 -----------------------------------------------------------

 -----------------------------
 CID_56986353_JID_575_neutraal
 -----------------------------
 Symbolic Z-matrix:
 Charge =  0 Multiplicity = 1

 SCF Done:  E(RB3LYP) =  -518.102520846     A.U. after   12 cycles
 SCF Done:  E(RB3LYP) =  -518.106328728     A.U. after   11 cycles
 SCF Done:  E(RB3LYP) =  -518.107177154     A.U. after   11 cycles
 SCF Done:  E(RB3LYP) =  -518.108603437     A.U. after   11 cycles
 SCF Done:  E(RB3LYP) =  -518.109203874     A.U. after   11 cycles
 SCF Done:  E(RB3LYP) =  -518.109460521     A.U. after   10 cycles
 SCF Done:  E(RB3LYP) =  -518.109217475     A.U. after   11 cycles
 SCF Done:  E(RB3LYP) =  -518.109588521     A.U. after   11 cycles
 SCF Done:  E(RB3LYP) =  -518.109950454     A.U. after   10 cycles
 SCF Done:  E(RB3LYP) =  -518.110001241     A.U. after   10 cycles
 SCF Done:  E(RB3LYP) =  -518.110017088     A.U. after    9 cycles
 SCF Done:  E(RB3LYP) =  -518.110024779     A.U. after    8 cycles
 SCF Done:  E(RB3LYP) =  -518.110028021     A.U. after    8 cycles
 SCF Done:  E(RB3LYP) =  -518.110029572     A.U. after    7 cycles
 SCF Done:  E(RB3LYP) =  -518.110030442     A.U. after    8 cycles
 SCF Done:  E(RB3LYP) =  -518.110030556     A.U. after    7 cycles
 Optimization completed.
    -- Stationary point found.
 Normal termination of Gaussian 16 at Tue Dec  8 12:16:53 2020.

 --------------------------------------------------------------------
 #N Geom=AllCheck Guess=TCheck SCRF=Check GenChk RB3LYP/6-31G(d) Freq
 --------------------------------------------------------------------

 Structure from the checkpoint file:  "JID_575.chk"
 -----------------------------
 CID_56986353_JID_575_neutraal
 -----------------------------
 Charge =  0 Multiplicity = 1

 SCF Done:  E(RB3LYP) =  -518.110030556     A.U. after    1 cycles

  Exact polarizability:  86.965   1.101  78.875   0.177  -0.014  73.754
 Approx polarizability: 111.107   0.909 113.170   0.621   2.328 107.533

                      1                      2                      3
                      A                      A                      A
 Frequencies --     61.1239               114.5252               128.2336
 Red. masses --      3.7517                 2.3140                 5.9437
 Frc consts  --      0.0083                 0.0179                 0.0576
 IR Inten    --      0.8059                 2.0760                16.4179

                      4                      5                      6
                      A                      A                      A
 Frequencies --    202.9574               228.7882               240.3982
 Red. masses --      2.4295                 1.4686                 2.8147
 Frc consts  --      0.0590                 0.0453                 0.0958
 IR Inten    --      0.3529                 0.4208                 4.7624

                      7                      8                      9
                      A                      A                      A
 Frequencies --    267.2545               278.7883               286.2631
 Red. masses --      2.6687                 2.4909                 1.8429
 Frc consts  --      0.1123                 0.1141                 0.0890
 IR Inten    --     13.0293                 5.3869                21.7643

                     10                     11                     12
                      A                      A                      A
 Frequencies --    311.9121               359.9502               386.2099
 Red. masses --      1.7501                 3.6467                 2.3765
 Frc consts  --      0.1003                 0.2784                 0.2089
 IR Inten    --      8.7406                17.3164                15.6515

                     13                     14                     15
                      A                      A                      A
 Frequencies --    424.7019               468.0112               471.4579
 Red. masses --      4.2330                 1.8816                 2.0584
 Frc consts  --      0.4498                 0.2428                 0.2696
 IR Inten    --      9.0264                31.4944                18.4834

                     16                     17                     18
                      A                      A                      A
 Frequencies --    526.0050               558.2524               586.1207
 Red. masses --      1.8012                 1.3607                 2.0352
 Frc consts  --      0.2936                 0.2499                 0.4119
 IR Inten    --     66.7706                74.0141                67.0446

                     19                     20                     21
                      A                      A                      A
 Frequencies --    642.0356               659.8910               788.8350
 Red. masses --      1.2956                 2.1237                 2.0179
 Frc consts  --      0.3147                 0.5449                 0.7398
 IR Inten    --     45.9614                10.3397                31.0281

                     22                     23                     24
                      A                      A                      A
 Frequencies --    801.8773               851.6474               885.4123
 Red. masses --      1.8638                 2.9846                 1.6413
 Frc consts  --      0.7061                 1.2754                 0.7581
 IR Inten    --      5.6563                10.9052                80.8509

                     25                     26                     27
                      A                      A                      A
 Frequencies --    902.2910               942.9285               983.3112
 Red. masses --      1.9470                 2.0861                 2.0778
 Frc consts  --      0.9339                 1.0928                 1.1837
 IR Inten    --     63.4458                25.7158                56.6540

                     28                     29                     30
                      A                      A                      A
 Frequencies --   1003.0924              1061.0906              1085.2296
 Red. masses --      2.0162                 1.7821                 1.6184
 Frc consts  --      1.1953                 1.1822                 1.1230
 IR Inten    --     56.2961                 9.5670                13.9260

                     31                     32                     33
                      A                      A                      A
 Frequencies --   1092.0226              1118.3241              1131.4710
 Red. masses --      2.7885                 3.0922                 1.9721
 Frc consts  --      1.9592                 2.2785                 1.4875
 IR Inten    --     98.6276                21.3376                52.8994

                     34                     35                     36
                      A                      A                      A
 Frequencies --   1147.4227              1174.1798              1251.7782
 Red. masses --      2.0991                 2.2003                 1.1888
 Frc consts  --      1.6283                 1.7873                 1.0975
 IR Inten    --     17.6763                39.2884                53.0697

                     37                     38                     39
                      A                      A                      A
 Frequencies --   1270.0285              1304.6295              1326.3372
 Red. masses --      1.1589                 1.1864                 1.2167
 Frc consts  --      1.1014                 1.1898                 1.2611
 IR Inten    --      4.3792                27.9612                27.5902

                     40                     41                     42
                      A                      A                      A
 Frequencies --   1341.7484              1369.1142              1386.2167
 Red. masses --      1.4152                 1.4846                 1.2583
 Frc consts  --      1.5010                 1.6396                 1.4246
 IR Inten    --     28.9021                20.2667                10.5357

                     43                     44                     45
                      A                      A                      A
 Frequencies --   1406.5854              1422.4034              1427.8838
 Red. masses --      1.4126                 1.4725                 1.5047
 Frc consts  --      1.6467                 1.7553                 1.8075
 IR Inten    --      1.8303                23.7583                15.2398

                     46                     47                     48
                      A                      A                      A
 Frequencies --   1442.5730              1462.9586              1501.4174
 Red. masses --      1.3198                 1.6112                 1.0881
 Frc consts  --      1.6182                 2.0317                 1.4451
 IR Inten    --      8.5148                36.7407                 6.1271

                     49                     50                     51
                      A                      A                      A
 Frequencies --   1511.0509              1518.5593              1532.3552
 Red. masses --      1.1999                 1.0751                 1.0432
 Frc consts  --      1.6141                 1.4608                 1.4432
 IR Inten    --    108.8471                 2.5642                 5.5500

                     52                     53                     54
                      A                      A                      A
 Frequencies --   1541.8539              1560.5893              1717.0200
 Red. masses --      1.0595                 1.0882                 1.1014
 Frc consts  --      1.4840                 1.5614                 1.9131
 IR Inten    --      6.3992                 0.9244                49.3165

                     55                     56                     57
                      A                      A                      A
 Frequencies --   3022.8560              3031.8360              3034.2145
 Red. masses --      1.0592                 1.0798                 1.0615
 Frc consts  --      5.7024                 5.8481                 5.7578
 IR Inten    --     74.1032                15.5129                34.3961

                     58                     59                     60
                      A                      A                      A
 Frequencies --   3043.2272              3058.9858              3060.8860
 Red. masses --      1.0990                 1.0484                 1.0618
 Frc consts  --      5.9969                 5.7799                 5.8614
 IR Inten    --     39.3559                15.6950                55.1367

                     61                     62                     63
                      A                      A                      A
 Frequencies --   3069.7223              3096.2651              3120.1050
 Red. masses --      1.0993                 1.1024                 1.1019
 Frc consts  --      6.1031                 6.2270                 6.3202
 IR Inten    --     32.2371                35.0540                41.8526

                     64                     65                     66
                      A                      A                      A
 Frequencies --   3143.2294              3470.4207              3577.6710
 Red. masses --      1.1020                 1.0549                 1.0886
 Frc consts  --      6.4150                 7.4855                 8.2099
 IR Inten    --     17.2360                54.2635                19.4490

                     67                     68                     69
                      A                      A                      A
 Frequencies --   3613.7622              3651.6694              3717.2003
 Red. masses --      1.0674                 1.0642                 1.0649
 Frc consts  --      8.2125                 8.3607                 8.6697
 IR Inten    --    212.7091                45.6167                40.6650

 - Thermochemistry -
 -------------------
 Temperature   298.150 Kelvin.  Pressure   1.00000 Atm.
 Atom     1 has atomic number  6 and mass  12.00000

 Molecular mass:   149.10519 amu.
 Principal axes and moments of inertia in atomic units:
                           1         2         3
     Eigenvalues --   941.525171928.030752071.68550
           X            0.99993  -0.01172   0.00073
           Y            0.01174   0.99892  -0.04497
           Z           -0.00021   0.04498   0.99899
 This molecule is an asymmetric top.
 Rotational symmetry number  1.
 Warning -- assumption of classical behavior for rotation
           may cause significant error
 Rotational temperatures (Kelvin)      0.09199     0.04492     0.04181
 Rotational constants (GHZ):           1.91683     0.93605     0.87115
 Zero-point vibrational energy     587241.8 (Joules/Mol)
                                  140.35417 (Kcal/Mol)
 Warning -- explicit consideration of  18 degrees of freedom as
           vibrations may cause significant error
 Vibrational temperatures:     87.94   164.78   184.50   292.01   329.18
          (Kelvin)            345.88   384.52   401.11   411.87   448.77
                              517.89   555.67   611.05   673.36   678.32
                              756.80   803.20   843.30   923.75   949.44
                             1134.96  1153.72  1225.33  1273.91  1298.20
                             1356.66  1414.77  1443.23  1526.67  1561.40
                             1571.18  1609.02  1627.93  1650.89  1689.38
                             1801.03  1827.29  1877.07  1908.30  1930.48
                             1969.85  1994.46  2023.76  2046.52  2054.41
                             2075.54  2104.87  2160.20  2174.07  2184.87
                             2204.72  2218.38  2245.34  2470.41  4349.22
                             4362.14  4365.56  4378.53  4401.20  4403.93
                             4416.65  4454.83  4489.14  4522.41  4993.16
                             5147.47  5199.40  5253.94  5348.22

 Zero-point correction=                           0.223669 (Hartree/Particle)
 Thermal correction to Energy=                    0.235065
 Thermal correction to Enthalpy=                  0.236009
 Thermal correction to Gibbs Free Energy=         0.187663
 Sum of electronic and zero-point Energies=           -517.886362
 Sum of electronic and thermal Energies=              -517.874966
 Sum of electronic and thermal Enthalpies=            -517.874021
 Sum of electronic and thermal Free Energies=         -517.922368

                     E (Thermal)             CV                S
                      KCal/Mol        Cal/Mol-Kelvin    Cal/Mol-Kelvin
 Total                  147.505             44.227            101.753
 Electronic               0.000              0.000              0.000
 Translational            0.889              2.981             40.909
 Rotational               0.889              2.981             29.710
 Vibrational            145.728             38.265             31.135
 Vibration     1          0.597              1.973              4.421
 Vibration     2          0.607              1.937              3.191
 Vibration     3          0.611              1.925              2.972
 Vibration     4          0.639              1.836              2.106
 Vibration     5          0.651              1.797              1.888
 Vibration     6          0.657              1.779              1.800
 Vibration     7          0.672              1.733              1.614
 Vibration     8          0.679              1.713              1.541
 Vibration     9          0.684              1.699              1.496
 Vibration    10          0.700              1.651              1.352
 Vibration    11          0.734              1.555              1.122
 Vibration    12          0.755              1.500              1.015
 Vibration    13          0.787              1.417              0.876
 Vibration    14          0.825              1.321              0.743
 Vibration    15          0.828              1.313              0.733
 Vibration    16          0.881              1.192              0.596
 Vibration    17          0.914              1.122              0.527
 Vibration    18          0.943              1.061              0.474

 Optimization completed.
    -- Stationary point found.
 Normal termination of Gaussian 16 at Tue Dec  8 12:22:13 2020.

 ----------------------------------------------------------------------
 # B3LYP/6-311++G(d,p) empiricaldispersion=gd3bj scf=xqc pop=npa geom=c
 heck
 ----------------------------------------------------------------------

 -------------------------------------
 CID_56986353_JID_575_Energie_neutraal
 -------------------------------------
 Structure from the checkpoint file:  "JID_575.chk"
 Charge =  0 Multiplicity = 1

 SCF Done:  E(RB3LYP) =  -518.295453138     A.U. after   13 cycles
 Normal termination of Gaussian 16 at Tue Dec  8 12:25:05 2020.

 ----------------------------------------------------------------------
 # B3LYP/6-311++G(d,p) empiricaldispersion=gd3bj scf=xqc pop=npa geom=c
 heck
 ----------------------------------------------------------------------

 -----------------------------------
 CID_56986353_JID_575_Energie_kation
 -----------------------------------
 Structure from the checkpoint file:  "JID_575.chk"
 Charge =  1 Multiplicity = 2

 SCF Done:  E(UB3LYP) =  -517.960624823     A.U. after   22 cycles
 Normal termination of Gaussian 16 at Tue Dec  8 12:30:06 2020.
 Gaussian 16:  ES64L-G16RevA.03 25-Dec-2016

 ----------------------------------------------------------------------
 # B3LYP/6-311++G(d,p) empiricaldispersion=gd3bj scf=xqc pop=npa geom=c
 heck
 ----------------------------------------------------------------------

 ----------------------------------
 CID_56986353_JID_575_Energie_anion
 ----------------------------------
 Structure from the checkpoint file:  "JID_575.chk"
 Charge = -1 Multiplicity = 2

                         Standard orientation:
 ---------------------------------------------------------------------
 Center     Atomic      Atomic             Coordinates (Angstroms)
 Number     Number       Type             X           Y           Z
 ---------------------------------------------------------------------
      1          6           0       -2.756854    1.126841   -0.356475
      2          6           0       -1.765979    0.706858    0.729565
      3          6           0       -0.770426   -0.388334    0.313768
      4          6           0        0.106066    0.013053   -0.899067
      5          6           0        1.071933    1.188766   -0.732516
      6          6           0        2.096792    1.075260    0.402846
      7          8           0        2.728706   -0.200075    0.483706
      8          8           0        0.886130   -1.124095   -1.297946
      9          7           0       -0.038752   -0.845667    1.482968
     10          8           0       -1.492089   -1.536018   -0.203480
     11          1           0       -2.267273    1.667743   -1.173583
     12          1           0       -3.524561    1.787355    0.059798
     13          1           0       -3.249235    0.246287   -0.778629
     14          1           0       -1.202115    1.578647    1.088368
     15          1           0       -2.317947    0.313397    1.593492
     16          1           0       -0.585724    0.259616   -1.715622
     17          1           0        1.604012    1.277588   -1.687744
     18          1           0        0.500677    2.116240   -0.605419
     19          1           0        2.862925    1.851635    0.265834
     20          1           0        1.612452    1.276040    1.367819
     21          1           0        2.402352   -0.731994   -0.267813
     22          1           0        0.266147   -1.874280   -1.216236
     23          1           0        0.943992   -1.026676    1.276581
     24          1           0       -0.071156   -0.160556    2.231642
     25          1           0       -1.574450   -2.114522    0.573776
 ---------------------------------------------------------------------

 SCF Done:  E(UB3LYP) =  -518.281137414     A.U. after   26 cycles

 The electronic state is 2-A.
 Alpha  occ. eigenvalues --  -19.02915 -19.01947 -19.00937 -14.19258 -10.15187
 Alpha  occ. eigenvalues --  -10.12263 -10.10903 -10.06994 -10.06160 -10.04889
 Alpha  occ. eigenvalues --   -0.94901  -0.91855  -0.90714  -0.77883  -0.68254
 Alpha  occ. eigenvalues --   -0.65749  -0.58919  -0.54542  -0.51438  -0.46263
 Alpha  occ. eigenvalues --   -0.43115  -0.40768  -0.40025  -0.37761  -0.35894
 Alpha  occ. eigenvalues --   -0.34626  -0.34061  -0.32996  -0.31212  -0.29576
 Alpha  occ. eigenvalues --   -0.28180  -0.26775  -0.26209  -0.25501  -0.24378
 Alpha  occ. eigenvalues --   -0.23625  -0.22306  -0.19167  -0.18268  -0.16824
 Alpha  occ. eigenvalues --   -0.14878   0.04847
 Alpha virt. eigenvalues --    0.07633   0.08101   0.08195   0.10033   0.10452
 Alpha virt. eigenvalues --    0.10692   0.10982   0.11990   0.13235   0.13478
 Alpha virt. eigenvalues --    0.14059   0.15063   0.15327   0.16668   0.17035

  Beta  occ. eigenvalues --  -19.02901 -19.01924 -19.00933 -14.19230 -10.15186
  Beta  occ. eigenvalues --  -10.12252 -10.10873 -10.06965 -10.06118 -10.04851
  Beta  occ. eigenvalues --   -0.94870  -0.91824  -0.90691  -0.77844  -0.68200
  Beta  occ. eigenvalues --   -0.65685  -0.58862  -0.54468  -0.51353  -0.46201
  Beta  occ. eigenvalues --   -0.43062  -0.40727  -0.39987  -0.37712  -0.35855
  Beta  occ. eigenvalues --   -0.34574  -0.34017  -0.32948  -0.31179  -0.29539
  Beta  occ. eigenvalues --   -0.28134  -0.26733  -0.26162  -0.25429  -0.24330
  Beta  occ. eigenvalues --   -0.23579  -0.22272  -0.19137  -0.18235  -0.16802
  Beta  occ. eigenvalues --   -0.14837
  Beta virt. eigenvalues --    0.07379   0.08505   0.08812   0.09050   0.10780
  Beta virt. eigenvalues --    0.11032   0.11242   0.11511   0.12355   0.13778
  Beta virt. eigenvalues --    0.13867   0.14477   0.15375   0.15759   0.17080

 Mulliken charges and spin densities:
               1          2
     1  C    1.669108  -2.350173
     2  C   -0.575394   0.536246
     3  C    0.269704  -0.498778
     4  C    0.274292  -0.393288
     5  C    0.368328  -0.801578
     6  C    0.353229  -0.820814
     7  O   -0.307592   0.035965
     8  O   -0.282287   0.003700
     9  N   -0.404120   0.035066
    10  O   -0.314650   0.051452
    11  H   -0.122465   0.245430
    12  H   -0.489942   0.638671
    13  H   -0.096069   0.278162
    14  H   -0.662405   0.840374
    15  H   -0.202441   0.352154
    16  H   -0.089495   0.326649
    17  H    0.114244   0.077302
    18  H   -0.471870   0.647503
    19  H   -0.407963   0.575997
    20  H    0.037786   0.138218
    21  H    0.262150   0.013964
    22  H    0.119792   0.186187
    23  H    0.179172   0.081782
    24  H   -0.129902   0.389893
    25  H   -0.091212   0.409915
 Sum of Mulliken charges =  -1.00000   1.00000

 Dipole moment (field-independent basis, Debye):
    X=              2.1987    Y=             -3.8344    Z=             -1.8547  Tot=              4.7934
 Quadrupole moment (field-independent basis, Debye-Ang):
   XX=           -116.3666   YY=           -106.6387   ZZ=            -95.1944
   XY=              2.4660   XZ=              0.8594   YZ=             -1.8713

 Summary of Natural Population Analysis:

                                       Natural Population
                Natural  -----------------------------------------------
    Atom  No    Charge         Core      Valence    Rydberg      Total
 -----------------------------------------------------------------------
      C    1   -0.28802      0.99966     2.28198    0.00638     3.28802
      C    2   -0.20450      0.99958     2.19431    0.01062     3.20450
      C    3    0.20207      0.99955     1.77935    0.01903     2.79793
      C    4    0.05415      0.99948     1.93118    0.01519     2.94585
      C    5   -0.21695      0.99960     2.20679    0.01055     3.21695
      C    6   -0.01133      0.99960     1.99852    0.01321     3.01133
      O    7   -0.38813      0.99990     3.38159    0.00665     4.38813
      O    8   -0.39136      0.99989     3.38515    0.00632     4.39136
      N    9   -0.44166      0.99973     2.93153    0.01040     3.94166
      O   10   -0.39591      0.99989     3.38867    0.00734     4.39591
      H   11    0.09599      0.00000     0.40270    0.00131     0.40401
      H   12    0.10215      0.00000     0.39650    0.00134     0.39785
      H   13    0.10396      0.00000     0.39452    0.00151     0.39604
      H   14    0.10450      0.00000     0.39164    0.00387     0.39550
      H   15    0.10093      0.00000     0.39709    0.00198     0.39907
      H   16    0.09165      0.00000     0.40617    0.00218     0.40835
      H   17    0.10164      0.00000     0.39715    0.00121     0.39836
      H   18    0.11491      0.00000     0.38267    0.00242     0.38509
      H   19    0.08195      0.00000     0.41657    0.00148     0.41805
      H   20    0.08033      0.00000     0.41766    0.00202     0.41967
      H   21    0.24406      0.00000     0.25249    0.00345     0.25594
      H   22    0.24484      0.00000     0.25206    0.00310     0.25516
      H   23    0.19136      0.00000     0.30542    0.00322     0.30864
      H   24    0.18405      0.00000     0.31324    0.00270     0.31595
      H   25    0.23931      0.00000     0.25650    0.00419     0.26069
 =======================================================================
   * Total *   -0.00000      9.99688    30.86144    0.14168    41.00000

 Normal termination of Gaussian 16 at Tue Dec  8 12:41:28 2020.
