 Gaussian 16, Revision A.03,

 -----------------------------------------------------------
 # opt freq B3LYP/6-31G(d) empiricaldispersion=gd3bj scf=xqc
 -----------------------------------------------------------

 -------------------------------
 CID_105293719_JID_4756_neutraal
 -------------------------------
 Symbolic Z-matrix:
 Charge =  0 Multiplicity = 1

 SCF Done:  E(RB3LYP) =  -938.912419068     A.U. after   14 cycles
 SCF Done:  E(RB3LYP) =  -938.921906516     A.U. after   13 cycles
 SCF Done:  E(RB3LYP) =  -938.923136632     A.U. after   12 cycles
 SCF Done:  E(RB3LYP) =  -938.923283041     A.U. after   11 cycles
 SCF Done:  E(RB3LYP) =  -938.923341019     A.U. after   11 cycles
 SCF Done:  E(RB3LYP) =  -938.923375466     A.U. after   10 cycles
 SCF Done:  E(RB3LYP) =  -938.923405214     A.U. after   12 cycles
 SCF Done:  E(RB3LYP) =  -938.923414207     A.U. after   10 cycles
 SCF Done:  E(RB3LYP) =  -938.923436280     A.U. after   12 cycles
 SCF Done:  E(RB3LYP) =  -938.923521754     A.U. after   12 cycles
 SCF Done:  E(RB3LYP) =  -938.932524863     A.U. after    9 cycles
 SCF Done:  E(RB3LYP) =  -938.932535479     A.U. after   10 cycles
 SCF Done:  E(RB3LYP) =  -938.932538079     A.U. after   10 cycles
 SCF Done:  E(RB3LYP) =  -938.932538317     A.U. after    9 cycles
 SCF Done:  E(RB3LYP) =  -938.932538342     A.U. after    7 cycles
 Optimization completed.
    -- Stationary point found.
 Normal termination of Gaussian 16 at Thu Dec 10 10:55:09 2020.

 --------------------------------------------------------------------
 #N Geom=AllCheck Guess=TCheck SCRF=Check GenChk RB3LYP/6-31G(d) Freq
 --------------------------------------------------------------------

 Structure from the checkpoint file:  "JID_4756.chk"
 -------------------------------
 CID_105293719_JID_4756_neutraal
 -------------------------------
 Charge =  0 Multiplicity = 1

 SCF Done:  E(RB3LYP) =  -938.932538342     A.U. after    1 cycles

  Exact polarizability: 170.507   8.595 130.246  -5.528  13.101 132.257
 Approx polarizability: 229.879  17.521 193.895 -11.902  34.136 218.049

                      1                      2                      3
                      A                      A                      A
 Frequencies --     14.7452                32.2318                42.9503
 Red. masses --      4.1535                 1.0262                 3.6811
 Frc consts  --      0.0005                 0.0006                 0.0040
 IR Inten    --      0.1983                 0.1581                 0.0805

                      4                      5                      6
                      A                      A                      A
 Frequencies --     56.0794                70.5265                81.2026
 Red. masses --      2.8820                 3.4893                 1.0425
 Frc consts  --      0.0053                 0.0102                 0.0041
 IR Inten    --      0.0442                 0.0550                 0.0051

                      7                      8                      9
                      A                      A                      A
 Frequencies --    113.2931               146.7545               154.4781
 Red. masses --      2.8413                 3.2058                 2.8938
 Frc consts  --      0.0215                 0.0407                 0.0407
 IR Inten    --      0.4049                 0.7414                 4.1168

                     10                     11                     12
                      A                      A                      A
 Frequencies --    169.4022               190.5152               217.4271
 Red. masses --      2.9282                 1.8243                 3.3940
 Frc consts  --      0.0495                 0.0390                 0.0945
 IR Inten    --      0.7592                 1.6764                 3.6327

                     13                     14                     15
                      A                      A                      A
 Frequencies --    266.4386               284.4679               299.8185
 Red. masses --      1.5888                 2.1706                 2.5896
 Frc consts  --      0.0665                 0.1035                 0.1372
 IR Inten    --      0.9372                 1.0806                 0.2833

                     16                     17                     18
                      A                      A                      A
 Frequencies --    344.3878               350.8672               378.5201
 Red. masses --      3.0124                 1.9224                 1.9641
 Frc consts  --      0.2105                 0.1394                 0.1658
 IR Inten    --      3.9379                15.7586                 2.8022

                     19                     20                     21
                      A                      A                      A
 Frequencies --    387.7339               421.9203               474.0660
 Red. masses --      2.0270                 3.8410                 3.2222
 Frc consts  --      0.1795                 0.4029                 0.4267
 IR Inten    --     13.3137                 1.4464                 5.1787

                     22                     23                     24
                      A                      A                      A
 Frequencies --    508.1315               522.7058               582.0624
 Red. masses --      2.8756                 5.8949                 3.7318
 Frc consts  --      0.4374                 0.9489                 0.7449
 IR Inten    --      5.8297                 1.7190                 3.4650

                     25                     26                     27
                      A                      A                      A
 Frequencies --    603.1473               631.6806               681.6353
 Red. masses --      3.9030                 3.2382                 3.2482
 Frc consts  --      0.8366                 0.7613                 0.8892
 IR Inten    --      0.1770                 4.5816                 1.9762

                     28                     29                     30
                      A                      A                      A
 Frequencies --    730.2352               763.7648               808.6895
 Red. masses --      2.0887                 1.4971                 2.0754
 Frc consts  --      0.6562                 0.5145                 0.7997
 IR Inten    --      7.1589                34.5247               130.6157

                     31                     32                     33
                      A                      A                      A
 Frequencies --    827.7369               848.7958               871.3286
 Red. masses --      2.5135                 1.3976                 1.5908
 Frc consts  --      1.0147                 0.5932                 0.7116
 IR Inten    --      6.8336                 8.3305                 1.4539

                     34                     35                     36
                      A                      A                      A
 Frequencies --    887.4373               962.2636               976.2743
 Red. masses --      2.2850                 2.0072                 1.7383
 Frc consts  --      1.0603                 1.0950                 0.9762
 IR Inten    --      0.6250                18.9960                 5.0198

                     37                     38                     39
                      A                      A                      A
 Frequencies --    991.6320              1012.4487              1027.5364
 Red. masses --      1.7069                 1.4545                 1.8088
 Frc consts  --      0.9889                 0.8785                 1.1252
 IR Inten    --     75.5574                 2.5113                 1.9611

                     40                     41                     42
                      A                      A                      A
 Frequencies --   1062.0744              1074.8342              1078.4794
 Red. masses --      1.3709                 1.8368                 2.1107
 Frc consts  --      0.9111                 1.2503                 1.4465
 IR Inten    --      2.3746                 2.8599                 3.6575

                     43                     44                     45
                      A                      A                      A
 Frequencies --   1084.5213              1098.8144              1130.9149
 Red. masses --      1.8439                 2.2148                 1.9867
 Frc consts  --      1.2778                 1.5756                 1.4971
 IR Inten    --      3.6643                 5.4412                13.5856

                     46                     47                     48
                      A                      A                      A
 Frequencies --   1145.4380              1164.3030              1192.0949
 Red. masses --      2.2106                 2.3681                 2.3240
 Frc consts  --      1.7088                 1.8914                 1.9458
 IR Inten    --      2.5785                44.4383                11.2634

                     49                     50                     51
                      A                      A                      A
 Frequencies --   1200.4689              1213.2065              1242.3662
 Red. masses --      2.9454                 1.4434                 1.5103
 Frc consts  --      2.5009                 1.2517                 1.3734
 IR Inten    --      2.1871                 8.8391                18.4199

                     52                     53                     54
                      A                      A                      A
 Frequencies --   1282.4475              1314.6969              1335.7525
 Red. masses --      1.3497                 1.2087                 1.1952
 Frc consts  --      1.3079                 1.2309                 1.2564
 IR Inten    --      3.0932                 0.4399                 2.1551

                     55                     56                     57
                      A                      A                      A
 Frequencies --   1355.5551              1378.5902              1386.4944
 Red. masses --      1.2427                 2.0277                 1.4865
 Frc consts  --      1.3454                 2.2705                 1.6837
 IR Inten    --      4.0518                12.3703                12.0918

                     58                     59                     60
                      A                      A                      A
 Frequencies --   1406.3841              1414.2286              1426.0463
 Red. masses --      1.4837                 1.4256                 1.4875
 Frc consts  --      1.7290                 1.6799                 1.7823
 IR Inten    --      3.5975                 1.9183                 3.7950

                     61                     62                     63
                      A                      A                      A
 Frequencies --   1440.7987              1444.4708              1453.5508
 Red. masses --      1.4744                 1.2739                 1.2340
 Frc consts  --      1.8033                 1.5660                 1.5362
 IR Inten    --      0.7440                 4.8100                 0.1745

                     64                     65                     66
                      A                      A                      A
 Frequencies --   1510.4903              1510.8306              1515.5903
 Red. masses --      1.0472                 1.0691                 1.2822
 Frc consts  --      1.4077                 1.4379                 1.7352
 IR Inten    --      1.5247                 3.1679                 4.0209

                     67                     68                     69
                      A                      A                      A
 Frequencies --   1517.6914              1520.1482              1521.8815
 Red. masses --      1.1385                 1.0726                 1.0877
 Frc consts  --      1.5451                 1.4604                 1.4842
 IR Inten    --      9.3041                 1.6099                 5.1712

                     70                     71                     72
                      A                      A                      A
 Frequencies --   1523.5001              1530.7467              1535.4107
 Red. masses --      1.0834                 1.0843                 1.0657
 Frc consts  --      1.4815                 1.4969                 1.4802
 IR Inten    --      3.9947                 2.5573                10.6597

                     73                     74                     75
                      A                      A                      A
 Frequencies --   1542.9227              1551.8395              1638.5971
 Red. masses --      1.0756                 2.6816                 5.2412
 Frc consts  --      1.5087                 3.8049                 8.2914
 IR Inten    --      3.2928                 8.5718                 2.2741

                     76                     77                     78
                      A                      A                      A
 Frequencies --   1712.0409              3026.7260              3037.3758
 Red. masses --      1.0652                 1.0680                 1.0641
 Frc consts  --      1.8395                 5.7648                 5.7838
 IR Inten    --      9.0047                11.6180                26.4431

                     79                     80                     81
                      A                      A                      A
 Frequencies --   3042.4343              3043.1460              3044.5358
 Red. masses --      1.0621                 1.0398                 1.0421
 Frc consts  --      5.7922                 5.6732                 5.6911
 IR Inten    --     22.0263                32.4503                31.4810

                     82                     83                     84
                      A                      A                      A
 Frequencies --   3045.3889              3048.8572              3069.8572
 Red. masses --      1.0409                 1.0789                 1.0961
 Frc consts  --      5.6881                 5.9087                 6.0863
 IR Inten    --     33.2688                40.4834                18.2242

                     85                     86                     87
                      A                      A                      A
 Frequencies --   3077.4270              3093.9899              3096.3898
 Red. masses --      1.1007                 1.0996                 1.0988
 Frc consts  --      6.1420                 6.2021                 6.2067
 IR Inten    --     23.1686                18.0783                21.6468

                     88                     89                     90
                      A                      A                      A
 Frequencies --   3097.3601              3109.4342              3115.6762
 Red. masses --      1.0965                 1.1016                 1.1017
 Frc consts  --      6.1980                 6.2751                 6.3009
 IR Inten    --     72.9799                49.5879                45.7950

                     91                     92                     93
                      A                      A                      A
 Frequencies --   3131.7645              3139.3829              3193.4230
 Red. masses --      1.1002                 1.0970                 1.0918
 Frc consts  --      6.3575                 6.3699                 6.5603
 IR Inten    --     13.5270                24.6795                 9.0644

                     94                     95                     96
                      A                      A                      A
 Frequencies --   3377.2253              3488.5450              3523.1426
 Red. masses --      1.0543                 1.0753                 1.0856
 Frc consts  --      7.0847                 7.7102                 7.9390
 IR Inten    --     12.4707                 1.2676                 0.0512

 - Thermochemistry -
 -------------------
 Temperature   298.150 Kelvin.  Pressure   1.00000 Atm.
 Atom     1 has atomic number  6 and mass  12.00000

 Molecular mass:   212.13472 amu.
 Principal axes and moments of inertia in atomic units:
                           1         2         3
     Eigenvalues --  2230.964244726.017445486.68350
           X            0.99990  -0.01295  -0.00630
           Y            0.01301   0.99988   0.00857
           Z            0.00618  -0.00865   0.99994
 This molecule is an asymmetric top.
 Rotational symmetry number  1.
 Warning -- assumption of classical behavior for rotation
           may cause significant error
 Rotational temperatures (Kelvin)      0.03882     0.01833     0.01579
 Rotational constants (GHZ):           0.80895     0.38187     0.32893
 Zero-point vibrational energy     789509.2 (Joules/Mol)
                                  188.69723 (Kcal/Mol)
 Warning -- explicit consideration of  25 degrees of freedom as
           vibrations may cause significant error
 Vibrational temperatures:     21.21    46.37    61.80    80.69   101.47
          (Kelvin)            116.83   163.00   211.15   222.26   243.73
                              274.11   312.83   383.35   409.29   431.37
                              495.50   504.82   544.61   557.86   607.05
                              682.08   731.09   752.06   837.46   867.79
                              908.85   980.72  1050.65  1098.89  1163.52
                             1190.93  1221.23  1253.65  1276.82  1384.48
                             1404.64  1426.74  1456.69  1478.40  1528.09
                             1546.45  1551.69  1560.38  1580.95  1627.13
                             1648.03  1675.17  1715.16  1727.21  1745.53
                             1787.49  1845.16  1891.56  1921.85  1950.34
                             1983.48  1994.86  2023.47  2034.76  2051.76
                             2072.99  2078.27  2091.34  2173.26  2173.75
                             2180.60  2183.62  2187.15  2189.65  2191.98
                             2202.40  2209.11  2219.92  2232.75  2357.58
                             2463.25  4354.78  4370.11  4377.38  4378.41
                             4380.41  4381.64  4386.63  4416.84  4427.73
                             4451.56  4455.01  4456.41  4473.78  4482.76
                             4505.91  4516.87  4594.62  4859.07  5019.24
                             5069.02

 Zero-point correction=                           0.300708 (Hartree/Particle)
 Thermal correction to Energy=                    0.317649
 Thermal correction to Enthalpy=                  0.318593
 Thermal correction to Gibbs Free Energy=         0.253723
 Sum of electronic and zero-point Energies=           -938.631830
 Sum of electronic and thermal Energies=              -938.614889
 Sum of electronic and thermal Enthalpies=            -938.613945
 Sum of electronic and thermal Free Energies=         -938.678816

                     E (Thermal)             CV                S
                      KCal/Mol        Cal/Mol-Kelvin    Cal/Mol-Kelvin
 Total                  199.328             60.952            136.532
 Electronic               0.000              0.000              0.000
 Translational            0.889              2.981             41.960
 Rotational               0.889              2.981             32.425
 Vibrational            197.550             54.990             62.147
 Vibration     1          0.593              1.986              7.240
 Vibration     2          0.594              1.983              5.687
 Vibration     3          0.595              1.980              5.118
 Vibration     4          0.596              1.975              4.591
 Vibration     5          0.598              1.968              4.139
 Vibration     6          0.600              1.962              3.862
 Vibration     7          0.607              1.938              3.212
 Vibration     8          0.617              1.906              2.714
 Vibration     9          0.620              1.898              2.616
 Vibration    10          0.625              1.880              2.442
 Vibration    11          0.634              1.853              2.223
 Vibration    12          0.646              1.815              1.980
 Vibration    13          0.672              1.735              1.619
 Vibration    14          0.683              1.702              1.507
 Vibration    15          0.692              1.674              1.418
 Vibration    16          0.723              1.587              1.192
 Vibration    17          0.728              1.573              1.162
 Vibration    18          0.749              1.516              1.045
 Vibration    19          0.756              1.496              1.009
 Vibration    20          0.784              1.423              0.885
 Vibration    21          0.831              1.308              0.726
 Vibration    22          0.863              1.232              0.638
 Vibration    23          0.878              1.200              0.604
 Vibration    24          0.939              1.070              0.482
 Vibration    25          0.962              1.025              0.444

                           ! Non-Optimized Parameters !
 Normal termination of Gaussian 16 at Thu Dec 10 11:05:01 2020.

 ----------------------------------------------------------------------
 # B3LYP/6-311++G(d,p) empiricaldispersion=gd3bj scf=xqc pop=npa geom=c
 heck
 ----------------------------------------------------------------------

 ---------------------------------------
 CID_105293719_JID_4756_Energie_neutraal
 ---------------------------------------
 Structure from the checkpoint file:  "JID_4756.chk"
 Charge =  0 Multiplicity = 1

 SCF Done:  E(RB3LYP) =  -939.117415826     A.U. after   16 cycles
 Normal termination of Gaussian 16 at Thu Dec 10 11:10:00 2020.

 ----------------------------------------------------------------------
 # B3LYP/6-311++G(d,p) empiricaldispersion=gd3bj scf=xqc pop=npa geom=c
 heck
 ----------------------------------------------------------------------

 -------------------------------------
 CID_105293719_JID_4756_Energie_kation
 -------------------------------------
 Structure from the checkpoint file:  "JID_4756.chk"
 Charge =  1 Multiplicity = 2

 SCF Done:  E(UB3LYP) =  -938.830749838     A.U. after   29 cycles
 Normal termination of Gaussian 16 at Thu Dec 10 11:21:32 2020.
 Gaussian 16:  ES64L-G16RevA.03 25-Dec-2016

 ----------------------------------------------------------------------
 # B3LYP/6-311++G(d,p) empiricaldispersion=gd3bj scf=xqc pop=npa geom=c
 heck
 ----------------------------------------------------------------------

 ------------------------------------
 CID_105293719_JID_4756_Energie_anion
 ------------------------------------
 Structure from the checkpoint file:  "JID_4756.chk"
 Charge = -1 Multiplicity = 2

                         Standard orientation:
 ---------------------------------------------------------------------
 Center     Atomic      Atomic             Coordinates (Angstroms)
 Number     Number       Type             X           Y           Z
 ---------------------------------------------------------------------
      1          6           0        4.128541   -1.402003   -0.330718
      2          6           0        2.721350   -1.833826    0.091807
      3          6           0        2.156216   -1.047675    1.284588
      4          6           0        2.081328    0.472086    1.087608
      5          6           0        1.227100    0.924047   -0.108523
      6          6           0       -0.195279    0.410684   -0.010312
      7          6           0       -1.149855    0.722547    0.918230
      8          6           0       -2.413120    0.071297    0.715257
      9          6           0       -2.409129   -0.741929   -0.393076
     10         16           0       -0.848849   -0.702188   -1.185956
     11          6           0       -3.497923   -1.613880   -0.943022
     12          6           0       -3.577428    0.274894    1.646642
     13          7           0        1.319669    2.390571   -0.210013
     14          7           0        0.515383    2.985328   -1.229173
     15          1           0        4.144005   -0.370217   -0.699615
     16          1           0        4.514554   -2.043140   -1.130944
     17          1           0        4.828591   -1.460920    0.512017
     18          1           0        2.038464   -1.750651   -0.763449
     19          1           0        2.733739   -2.898776    0.357709
     20          1           0        1.154065   -1.427111    1.518929
     21          1           0        2.778887   -1.245969    2.167724
     22          1           0        1.664318    0.924095    1.998698
     23          1           0        3.082047    0.898718    0.958564
     24          1           0        1.673230    0.527692   -1.029440
     25          1           0       -0.971011    1.410183    1.740142
     26          1           0       -3.318264   -2.674947   -0.727430
     27          1           0       -4.464059   -1.347994   -0.505231
     28          1           0       -3.587901   -1.511223   -2.030297
     29          1           0       -3.392505   -0.193458    2.621903
     30          1           0       -3.751033    1.341993    1.828898
     31          1           0       -4.503622   -0.149173    1.250368
     32          1           0        1.018308    2.805592    0.669691
     33          1           0        1.026627    2.885165   -2.104231
     34          1           0       -0.363025    2.466403   -1.335290
 ---------------------------------------------------------------------

 SCF Done:  E(UB3LYP) =  -939.103965117     A.U. after   33 cycles
 SCF Done:  E(UB3LYP) =  -939.103965117     a.u. after    1 cycles

 The electronic state is 2-A.
 Alpha  occ. eigenvalues --  -88.77324 -14.23667 -14.23079 -10.12032 -10.10385
 Alpha  occ. eigenvalues --  -10.10270 -10.08340 -10.07845 -10.07666 -10.07552
 Alpha  occ. eigenvalues --  -10.07423 -10.07215 -10.07065 -10.06860  -7.85969
 Alpha  occ. eigenvalues --   -5.82249  -5.81890  -5.81566  -0.87775  -0.78674
 Alpha  occ. eigenvalues --   -0.73207  -0.69405  -0.66949  -0.66081  -0.63461
 Alpha  occ. eigenvalues --   -0.59538  -0.58762  -0.55829  -0.52708  -0.47659
 Alpha  occ. eigenvalues --   -0.45085  -0.42912  -0.41049  -0.40090  -0.38464
 Alpha  occ. eigenvalues --   -0.37431  -0.36354  -0.35156  -0.33646  -0.33516
 Alpha  occ. eigenvalues --   -0.32204  -0.31207  -0.31058  -0.30009  -0.29492
 Alpha  occ. eigenvalues --   -0.28340  -0.28022  -0.26574  -0.26012  -0.25532
 Alpha  occ. eigenvalues --   -0.24191  -0.23654  -0.23387  -0.22864  -0.17058
 Alpha  occ. eigenvalues --   -0.16039  -0.14876  -0.12546   0.04218
 Alpha virt. eigenvalues --    0.05781   0.06721   0.07019   0.07454   0.08030
 Alpha virt. eigenvalues --    0.08461   0.08691   0.09390   0.09764   0.10169
 Alpha virt. eigenvalues --    0.10857   0.11181   0.11480   0.11660   0.11922

  Beta  occ. eigenvalues --  -88.77321 -14.23660 -14.23071 -10.12030 -10.10382
  Beta  occ. eigenvalues --  -10.10263 -10.08340 -10.07836 -10.07615 -10.07537
  Beta  occ. eigenvalues --  -10.07414 -10.07201 -10.07044 -10.06810  -7.85964
  Beta  occ. eigenvalues --   -5.82244  -5.81886  -5.81563  -0.87763  -0.78655
  Beta  occ. eigenvalues --   -0.73190  -0.69381  -0.66915  -0.66044  -0.63433
  Beta  occ. eigenvalues --   -0.59481  -0.58717  -0.55780  -0.52667  -0.47622
  Beta  occ. eigenvalues --   -0.45062  -0.42868  -0.41022  -0.40065  -0.38440
  Beta  occ. eigenvalues --   -0.37400  -0.36325  -0.35129  -0.33609  -0.33476
  Beta  occ. eigenvalues --   -0.32173  -0.31157  -0.31015  -0.29970  -0.29458
  Beta  occ. eigenvalues --   -0.28312  -0.27994  -0.26541  -0.25984  -0.25510
  Beta  occ. eigenvalues --   -0.24158  -0.23627  -0.23365  -0.22839  -0.17048
  Beta  occ. eigenvalues --   -0.16025  -0.14863  -0.12527
  Beta virt. eigenvalues --    0.06087   0.06709   0.07107   0.07278   0.07678
  Beta virt. eigenvalues --    0.08540   0.08738   0.09080   0.09771   0.10137
  Beta virt. eigenvalues --    0.10558   0.11104   0.11444   0.11786   0.11811

 Mulliken charges and spin densities:
               1          2
     1  C    0.190399  -0.837455
     2  C   -0.345465   0.281575
     3  C   -0.006220  -0.482950
     4  C   -0.085483   0.095352
     5  C   -1.187259  -0.041770
     6  C    0.148103   1.052831
     7  C   -0.222547   0.155366
     8  C   -1.483553   1.360929
     9  C   -2.299171   2.221099
    10  S    0.693480  -1.158257
    11  C    1.830583  -2.241159
    12  C    3.571539  -4.249645
    13  N    0.166835  -0.006251
    14  N   -0.558199   0.005600
    15  H   -0.075680   0.213889
    16  H   -0.103892   0.238436
    17  H   -0.051389   0.189964
    18  H    0.133605  -0.037256
    19  H   -0.257613   0.413438
    20  H    0.160956   0.007757
    21  H   -0.215447   0.380191
    22  H   -0.157805   0.291949
    23  H    0.189095  -0.002147
    24  H    0.251982  -0.001627
    25  H   -0.169923   0.350458
    26  H   -0.305667   0.480931
    27  H   -0.261084   0.402131
    28  H   -0.333602   0.481563
    29  H   -0.182468   0.356606
    30  H   -0.293793   0.444477
    31  H   -0.369274   0.507571
    32  H    0.184991   0.069007
    33  H    0.193212   0.040447
    34  H    0.250752   0.016950
 Sum of Mulliken charges =  -1.00000   1.00000

 Dipole moment (field-independent basis, Debye):
    X=              4.4000    Y=              1.9898    Z=             -2.2835  Tot=              5.3417
 Quadrupole moment (field-independent basis, Debye-Ang):
   XX=           -186.0920   YY=           -147.2372   ZZ=           -132.4839
   XY=             -0.4898   XZ=              1.9623   YZ=             -0.6077

 Summary of Natural Population Analysis:

                                       Natural Population
                Natural  -----------------------------------------------
    Atom  No    Charge         Core      Valence    Rydberg      Total
 -----------------------------------------------------------------------
      C    1   -0.28670      0.99967     2.28281    0.00423     3.28670
      C    2   -0.19437      0.99964     2.18637    0.00836     3.19437
      C    3   -0.19065      0.99962     2.18223    0.00880     3.19065
      C    4   -0.18970      0.99960     2.17963    0.01046     3.18970
      C    5   -0.03216      0.99952     2.01835    0.01430     3.03216
      C    6   -0.11224      0.99947     2.09649    0.01628     3.11224
      C    7   -0.12333      0.99940     2.11143    0.01250     3.12333
      C    8   -0.04385      0.99942     2.03223    0.01219     3.04385
      C    9   -0.09449      0.99944     2.08154    0.01352     3.09449
      S   10    0.20299      4.99936     2.77734    0.02032     7.79701
      C   11   -0.29918      0.99961     2.29251    0.00706     3.29918
      C   12   -0.29000      0.99963     2.28469    0.00568     3.29000
      N   13   -0.24663      0.99974     2.73312    0.01378     3.74663
      N   14   -0.32508      0.99978     2.81439    0.01091     3.82508
      H   15    0.09516      0.00000     0.40380    0.00103     0.40484
      H   16    0.09833      0.00000     0.40071    0.00096     0.40167
      H   17    0.09572      0.00000     0.40311    0.00117     0.40428
      H   18    0.09438      0.00000     0.40405    0.00157     0.40562
      H   19    0.09730      0.00000     0.40159    0.00112     0.40270
      H   20    0.10397      0.00000     0.39458    0.00145     0.39603
      H   21    0.09647      0.00000     0.40245    0.00108     0.40353
      H   22    0.09876      0.00000     0.39995    0.00129     0.40124
      H   23    0.10162      0.00000     0.39694    0.00145     0.39838
      H   24    0.09532      0.00000     0.40247    0.00221     0.40468
      H   25    0.10596      0.00000     0.39251    0.00153     0.39404
      H   26    0.10741      0.00000     0.39106    0.00153     0.39259
      H   27    0.11058      0.00000     0.38775    0.00167     0.38942
      H   28    0.10555      0.00000     0.39299    0.00146     0.39445
      H   29    0.10643      0.00000     0.39204    0.00153     0.39357
      H   30    0.10447      0.00000     0.39408    0.00145     0.39553
      H   31    0.10558      0.00000     0.39284    0.00158     0.39442
      H   32    0.16702      0.00000     0.32977    0.00321     0.33298
      H   33    0.16707      0.00000     0.33090    0.00203     0.33293
      H   34    0.16827      0.00000     0.32959    0.00214     0.33173
 =======================================================================
   * Total *   -0.00000     17.99390    39.81629    0.18982    58.00000

 Normal termination of Gaussian 16 at Thu Dec 10 11:34:47 2020.
