 Gaussian 16, Revision A.03,

 -----------------------------------------------------------
 # opt freq B3LYP/6-31G(d) empiricaldispersion=gd3bj scf=xqc
 -----------------------------------------------------------

 ------------------------------
 CID_79195742_JID_3306_neutraal
 ------------------------------
 Symbolic Z-matrix:
 Charge =  0 Multiplicity = 1

 SCF Done:  E(RB3LYP) =  -579.102542046     A.U. after   14 cycles
 SCF Done:  E(RB3LYP) =  -579.105897390     A.U. after   12 cycles
 SCF Done:  E(RB3LYP) =  -579.106055441     A.U. after   11 cycles
 SCF Done:  E(RB3LYP) =  -579.106660629     A.U. after   11 cycles
 SCF Done:  E(RB3LYP) =  -579.106984977     A.U. after   11 cycles
 SCF Done:  E(RB3LYP) =  -579.107060719     A.U. after   10 cycles
 SCF Done:  E(RB3LYP) =  -579.107107174     A.U. after   10 cycles
 SCF Done:  E(RB3LYP) =  -579.107131466     A.U. after   10 cycles
 SCF Done:  E(RB3LYP) =  -579.107143774     A.U. after    9 cycles
 SCF Done:  E(RB3LYP) =  -579.107149496     A.U. after    9 cycles
 SCF Done:  E(RB3LYP) =  -579.107151563     A.U. after    8 cycles
 SCF Done:  E(RB3LYP) =  -579.107152430     A.U. after    8 cycles
 SCF Done:  E(RB3LYP) =  -579.107152642     A.U. after    7 cycles
 Optimization completed.
    -- Stationary point found.
 Normal termination of Gaussian 16 at Wed Dec  9 22:53:35 2020.

 --------------------------------------------------------------------
 #N Geom=AllCheck Guess=TCheck SCRF=Check GenChk RB3LYP/6-31G(d) Freq
 --------------------------------------------------------------------

 Structure from the checkpoint file:  "JID_3306.chk"
 ------------------------------
 CID_79195742_JID_3306_neutraal
 ------------------------------
 Charge =  0 Multiplicity = 1

 SCF Done:  E(RB3LYP) =  -579.107152642     A.U. after    1 cycles

  Exact polarizability: 135.525  -3.321 120.598   0.749  -0.040 110.463
 Approx polarizability: 171.366 -12.172 163.670   4.249  -9.235 170.498

                      1                      2                      3
                      A                      A                      A
 Frequencies --     15.1038                43.7318                64.0355
 Red. masses --      5.4537                 3.2997                 2.7619
 Frc consts  --      0.0007                 0.0037                 0.0067
 IR Inten    --      1.9769                 0.2026                 0.3342

                      4                      5                      6
                      A                      A                      A
 Frequencies --     70.8196                85.9150               122.5836
 Red. masses --      3.0160                 2.9984                 2.3332
 Frc consts  --      0.0089                 0.0130                 0.0207
 IR Inten    --      0.3254                 1.4128                 1.1082

                      7                      8                      9
                      A                      A                      A
 Frequencies --    158.5448               169.8729               211.0415
 Red. masses --      2.5747                 1.7348                 1.3195
 Frc consts  --      0.0381                 0.0295                 0.0346
 IR Inten    --      0.3611                 0.3972                 0.6534

                     10                     11                     12
                      A                      A                      A
 Frequencies --    216.1378               226.5010               232.2847
 Red. masses --      1.5235                 1.6713                 1.3155
 Frc consts  --      0.0419                 0.0505                 0.0418
 IR Inten    --      0.3132                 0.0778                 1.0206

                     13                     14                     15
                      A                      A                      A
 Frequencies --    243.7041               263.6715               283.4162
 Red. masses --      1.1014                 1.5818                 1.7091
 Frc consts  --      0.0385                 0.0648                 0.0809
 IR Inten    --      0.3496                 1.7813                 1.3231

                     16                     17                     18
                      A                      A                      A
 Frequencies --    304.7036               339.5655               371.8781
 Red. masses --      2.2318                 2.8246                 2.4130
 Frc consts  --      0.1221                 0.1919                 0.1966
 IR Inten    --      0.9838                 1.7976                 0.8706

                     19                     20                     21
                      A                      A                      A
 Frequencies --    385.0284               406.5165               425.8357
 Red. masses --      2.5802                 2.5668                 3.6380
 Frc consts  --      0.2254                 0.2499                 0.3887
 IR Inten    --      0.6513                 1.9077                 1.8927

                     22                     23                     24
                      A                      A                      A
 Frequencies --    442.8568               499.6481               550.6587
 Red. masses --      2.5237                 2.8714                 3.5956
 Frc consts  --      0.2916                 0.4223                 0.6424
 IR Inten    --      0.0319                 2.2679                 9.8033

                     25                     26                     27
                      A                      A                      A
 Frequencies --    601.2729               654.5411               738.5995
 Red. masses --      2.2314                 1.5839                 1.5141
 Frc consts  --      0.4753                 0.3998                 0.4866
 IR Inten    --     41.4404                51.5889                61.6885

                     28                     29                     30
                      A                      A                      A
 Frequencies --    756.9818               766.9921               822.0606
 Red. masses --      3.0743                 2.5761                 2.0358
 Frc consts  --      1.0379                 0.8929                 0.8106
 IR Inten    --     36.8584                22.6453                 0.9899

                     31                     32                     33
                      A                      A                      A
 Frequencies --    915.8693               930.7105               943.9999
 Red. masses --      1.9528                 1.6344                 1.1835
 Frc consts  --      0.9651                 0.8341                 0.6214
 IR Inten    --      6.5083                 0.7847                 0.9022

                     34                     35                     36
                      A                      A                      A
 Frequencies --    965.2613               970.0691               980.3291
 Red. masses --      1.5680                 1.4780                 1.4521
 Frc consts  --      0.8608                 0.8195                 0.8222
 IR Inten    --      3.0368                 3.5693                 1.1783

                     37                     38                     39
                      A                      A                      A
 Frequencies --    996.9984              1017.4897              1064.7434
 Red. masses --      2.4450                 1.2671                 2.0725
 Frc consts  --      1.4319                 0.7729                 1.3843
 IR Inten    --      2.2104                23.2872                21.2898

                     40                     41                     42
                      A                      A                      A
 Frequencies --   1093.8640              1116.9476              1141.2142
 Red. masses --      2.4015                 1.9170                 1.8036
 Frc consts  --      1.6930                 1.4091                 1.3840
 IR Inten    --      4.3769                 8.5084                 4.0204

                     43                     44                     45
                      A                      A                      A
 Frequencies --   1151.8661              1170.4647              1180.4373
 Red. masses --      2.2536                 1.7831                 2.4331
 Frc consts  --      1.7617                 1.4393                 1.9976
 IR Inten    --     23.3544                37.2959                 5.3640

                     46                     47                     48
                      A                      A                      A
 Frequencies --   1189.6768              1204.6661              1215.2374
 Red. masses --      2.3175                 1.8605                 1.7464
 Frc consts  --      1.9326                 1.5908                 1.5196
 IR Inten    --     16.5492                 2.2914                23.6136

                     49                     50                     51
                      A                      A                      A
 Frequencies --   1220.3052              1280.8702              1315.2539
 Red. masses --      2.1839                 1.4466                 1.3477
 Frc consts  --      1.9161                 1.3984                 1.3736
 IR Inten    --      2.6336                10.6580                 5.3420

                     52                     53                     54
                      A                      A                      A
 Frequencies --   1345.0133              1357.1183              1370.3292
 Red. masses --      1.3586                 1.2598                 1.3664
 Frc consts  --      1.4481                 1.3670                 1.5117
 IR Inten    --     13.4243                 2.1525                 2.8018

                     55                     56                     57
                      A                      A                      A
 Frequencies --   1374.0632              1386.9545              1400.1896
 Red. masses --      1.5492                 1.9205                 1.5078
 Frc consts  --      1.7233                 2.1767                 1.7416
 IR Inten    --     39.4187                88.9181                25.6624

                     58                     59                     60
                      A                      A                      A
 Frequencies --   1418.5830              1429.8843              1436.4379
 Red. masses --      1.4029                 1.2710                 1.2384
 Frc consts  --      1.6634                 1.5310                 1.5055
 IR Inten    --     15.9336                 3.2387                 5.2836

                     61                     62                     63
                      A                      A                      A
 Frequencies --   1445.1657              1449.7304              1484.5292
 Red. masses --      1.2385                 1.2248                 1.1796
 Frc consts  --      1.5240                 1.5167                 1.5317
 IR Inten    --     15.9244                 4.2551                 0.9472

                     64                     65                     66
                      A                      A                      A
 Frequencies --   1496.8211              1513.4871              1516.7342
 Red. masses --      1.5196                 1.0868                 1.0552
 Frc consts  --      2.0060                 1.4668                 1.4302
 IR Inten    --     51.9642                15.9728                 1.6394

                     67                     68                     69
                      A                      A                      A
 Frequencies --   1520.9134              1522.7397              1527.3528
 Red. masses --      1.0673                 1.1039                 1.1056
 Frc consts  --      1.4546                 1.5081                 1.5196
 IR Inten    --      2.8173                 4.9050                 7.5077

                     70                     71                     72
                      A                      A                      A
 Frequencies --   1527.7022              1529.2820              1532.3586
 Red. masses --      1.0698                 1.0747                 1.0443
 Frc consts  --      1.4711                 1.4809                 1.4448
 IR Inten    --     20.9142                 3.0275                 9.6078

                     73                     74                     75
                      A                      A                      A
 Frequencies --   1538.3642              1546.8811              1548.5442
 Red. masses --      1.0531                 1.0631                 1.0520
 Frc consts  --      1.4684                 1.4988                 1.4863
 IR Inten    --      2.9135                18.1608                 5.6505

                     76                     77                     78
                      A                      A                      A
 Frequencies --   1559.7452              1765.3450              2939.8976
 Red. masses --      1.0792                 7.2229                 1.0625
 Frc consts  --      1.5469                13.2623                 5.4106
 IR Inten    --      3.6178               350.3206                61.9509

                     79                     80                     81
                      A                      A                      A
 Frequencies --   2955.1788              2996.4545              3038.6436
 Red. masses --      1.0721                 1.0827                 1.0857
 Frc consts  --      5.5166                 5.7276                 5.9065
 IR Inten    --    109.7990                22.4949                38.9034

                     82                     83                     84
                      A                      A                      A
 Frequencies --   3043.7005              3048.8115              3053.3883
 Red. masses --      1.0393                 1.0395                 1.0401
 Frc consts  --      5.6728                 5.6929                 5.7134
 IR Inten    --     16.4763                28.4296                15.1009

                     85                     86                     87
                      A                      A                      A
 Frequencies --   3058.8434              3069.9386              3098.3637
 Red. masses --      1.0366                 1.0724                 1.0865
 Frc consts  --      5.7145                 5.9547                 6.1455
 IR Inten    --     27.3427                53.4408                 2.3572

                     88                     89                     90
                      A                      A                      A
 Frequencies --   3106.4083              3111.7628              3115.4060
 Red. masses --      1.0994                 1.0968                 1.0928
 Frc consts  --      6.2504                 6.2574                 6.2491
 IR Inten    --      2.1805                58.5643                16.2441

                     91                     92                     93
                      A                      A                      A
 Frequencies --   3122.8118              3123.8138              3129.6720
 Red. masses --      1.1012                 1.1009                 1.0988
 Frc consts  --      6.3271                 6.3296                 6.3411
 IR Inten    --     27.1879                40.6870                40.8837

                     94                     95                     96
                      A                      A                      A
 Frequencies --   3131.6344              3140.5966              3141.4105
 Red. masses --      1.0984                 1.0983                 1.0961
 Frc consts  --      6.3470                 6.3825                 6.3732
 IR Inten    --     22.5198                 4.5680                42.2912

                     97                     98                     99
                      A                      A                      A
 Frequencies --   3144.0700              3505.2993              3550.5845
 Red. masses --      1.1016                 1.0742                 1.0744
 Frc consts  --      6.4160                 7.7768                 7.9805
 IR Inten    --     33.8670                 0.1100                 9.0574

 - Thermochemistry -
 -------------------
 Temperature   298.150 Kelvin.  Pressure   1.00000 Atm.
 Atom     1 has atomic number  6 and mass  12.00000

 Molecular mass:   186.17321 amu.
 Principal axes and moments of inertia in atomic units:
                           1         2         3
     Eigenvalues --  1821.039613630.966454274.74613
           X            0.99984   0.01742  -0.00403
           Y           -0.01714   0.99796   0.06151
           Z            0.00510  -0.06143   0.99810
 This molecule is an asymmetric top.
 Rotational symmetry number  1.
 Warning -- assumption of classical behavior for rotation
           may cause significant error
 Rotational temperatures (Kelvin)      0.04756     0.02385     0.02026
 Rotational constants (GHZ):           0.99105     0.49704     0.42219
 Zero-point vibrational energy     841643.1 (Joules/Mol)
                                  201.15753 (Kcal/Mol)
 Warning -- explicit consideration of  25 degrees of freedom as
           vibrations may cause significant error
 Vibrational temperatures:     21.73    62.92    92.13   101.89   123.61
          (Kelvin)            176.37   228.11   244.41   303.64   310.97
                              325.88   334.21   350.64   379.36   407.77
                              438.40   488.56   535.05   553.97   584.89
                              612.68   637.17   718.88   792.28   865.10
                              941.74  1062.68  1089.13  1103.53  1182.76
                             1317.73  1339.08  1358.21  1388.80  1395.71
                             1410.47  1434.46  1463.94  1531.93  1573.83
                             1607.04  1641.95  1657.28  1684.04  1698.39
                             1711.68  1733.25  1748.46  1755.75  1842.89
                             1892.36  1935.17  1952.59  1971.60  1976.97
                             1995.52  2014.56  2041.02  2057.28  2066.71
                             2079.27  2085.84  2135.91  2153.59  2177.57
                             2182.24  2188.26  2190.88  2197.52  2198.02
                             2200.30  2204.72  2213.36  2225.62  2228.01
                             2244.13  2539.94  4229.86  4251.84  4311.23
                             4371.93  4379.21  4386.56  4393.14  4400.99
                             4416.96  4457.85  4469.43  4477.13  4482.37
                             4493.03  4494.47  4502.90  4505.72  4518.62
                             4519.79  4523.62  5043.34  5108.50

 Zero-point correction=                           0.320565 (Hartree/Particle)
 Thermal correction to Energy=                    0.337054
 Thermal correction to Enthalpy=                  0.337998
 Thermal correction to Gibbs Free Energy=         0.275922
 Sum of electronic and zero-point Energies=           -578.786588
 Sum of electronic and thermal Energies=              -578.770099
 Sum of electronic and thermal Enthalpies=            -578.769155
 Sum of electronic and thermal Free Energies=         -578.831230

                     E (Thermal)             CV                S
                      KCal/Mol        Cal/Mol-Kelvin    Cal/Mol-Kelvin
 Total                  211.505             60.053            130.649
 Electronic               0.000              0.000              0.000
 Translational            0.889              2.981             41.571
 Rotational               0.889              2.981             31.714
 Vibrational            209.727             54.092             57.365
 Vibration     1          0.593              1.986              7.192
 Vibration     2          0.595              1.980              5.082
 Vibration     3          0.597              1.971              4.329
 Vibration     4          0.598              1.968              4.130
 Vibration     5          0.601              1.959              3.751
 Vibration     6          0.610              1.930              3.059
 Vibration     7          0.621              1.893              2.567
 Vibration     8          0.625              1.880              2.437
 Vibration     9          0.643              1.824              2.035
 Vibration    10          0.645              1.816              1.991
 Vibration    11          0.650              1.801              1.907
 Vibration    12          0.653              1.792              1.861
 Vibration    13          0.659              1.773              1.776
 Vibration    14          0.670              1.739              1.637
 Vibration    15          0.682              1.704              1.513
 Vibration    16          0.696              1.665              1.391
 Vibration    17          0.719              1.596              1.214
 Vibration    18          0.744              1.530              1.072
 Vibration    19          0.754              1.502              1.019
 Vibration    20          0.771              1.456              0.939
 Vibration    21          0.788              1.414              0.872
 Vibration    22          0.802              1.377              0.818
 Vibration    23          0.855              1.251              0.659
 Vibration    24          0.906              1.138              0.543
 Vibration    25          0.959              1.029              0.447

                           ! Non-Optimized Parameters !
 Normal termination of Gaussian 16 at Wed Dec  9 23:03:52 2020.

 ----------------------------------------------------------------------
 # B3LYP/6-311++G(d,p) empiricaldispersion=gd3bj scf=xqc pop=npa geom=c
 heck
 ----------------------------------------------------------------------

 --------------------------------------
 CID_79195742_JID_3306_Energie_neutraal
 --------------------------------------
 Structure from the checkpoint file:  "JID_3306.chk"
 Charge =  0 Multiplicity = 1

 SCF Done:  E(RB3LYP) =  -579.282065252     A.U. after   14 cycles
 Normal termination of Gaussian 16 at Wed Dec  9 23:09:02 2020.

 ----------------------------------------------------------------------
 # B3LYP/6-311++G(d,p) empiricaldispersion=gd3bj scf=xqc pop=npa geom=c
 heck
 ----------------------------------------------------------------------

 ------------------------------------
 CID_79195742_JID_3306_Energie_kation
 ------------------------------------
 Structure from the checkpoint file:  "JID_3306.chk"
 Charge =  1 Multiplicity = 2

 SCF Done:  E(UB3LYP) =  -578.974225020     A.U. after   33 cycles
 SCF Done:  E(UB3LYP) =  -578.974225020     a.u. after    1 cycles
 Normal termination of Gaussian 16 at Wed Dec  9 23:24:53 2020.
 Gaussian 16:  ES64L-G16RevA.03 25-Dec-2016

 ----------------------------------------------------------------------
 # B3LYP/6-311++G(d,p) empiricaldispersion=gd3bj scf=xqc pop=npa geom=c
 heck
 ----------------------------------------------------------------------

 -----------------------------------
 CID_79195742_JID_3306_Energie_anion
 -----------------------------------
 Structure from the checkpoint file:  "JID_3306.chk"
 Charge = -1 Multiplicity = 2

                         Standard orientation:
 ---------------------------------------------------------------------
 Center     Atomic      Atomic             Coordinates (Angstroms)
 Number     Number       Type             X           Y           Z
 ---------------------------------------------------------------------
      1          6           0       -3.409139    1.427012   -0.583614
      2          6           0       -2.673204    0.329290    0.195732
      3          6           0       -3.054174   -1.054764   -0.343828
      4          6           0       -1.140489    0.533277    0.174454
      5          6           0       -0.702954    1.930323    0.638420
      6          7           0       -0.508125   -0.491685    1.005211
      7          6           0        0.661770   -1.197176    0.860435
      8          8           0        1.111322   -1.818878    1.819319
      9          6           0        1.383195   -1.251907   -0.494717
     10          6           0        0.539051   -1.909364   -1.597626
     11          6           0        1.975758    0.095478   -0.937236
     12          7           0        2.870855    0.639864    0.072969
     13          6           0        3.327834    1.986155   -0.233637
     14          1           0       -3.051890    1.474751   -1.620596
     15          1           0       -3.279405    2.416309   -0.135519
     16          1           0       -4.483435    1.215951   -0.615234
     17          1           0       -2.991193    0.389032    1.249311
     18          1           0       -2.803559   -1.136271   -1.409280
     19          1           0       -2.526424   -1.851716    0.186582
     20          1           0       -4.131406   -1.226193   -0.243557
     21          1           0       -0.802715    0.383059   -0.852506
     22          1           0       -1.102828    2.148793    1.636424
     23          1           0        0.388059    1.982713    0.694363
     24          1           0       -1.046319    2.712624   -0.044696
     25          1           0       -0.841847   -0.539109    1.963234
     26          1           0        2.231949   -1.906638   -0.279163
     27          1           0       -0.300158   -1.286118   -1.919743
     28          1           0        1.163009   -2.104802   -2.476821
     29          1           0        0.131406   -2.865275   -1.254052
     30          1           0        2.560929   -0.075849   -1.851545
     31          1           0        1.174388    0.801646   -1.223342
     32          1           0        2.425718    0.616303    0.987878
     33          1           0        2.513139    2.715950   -0.406160
     34          1           0        3.954328    2.356400    0.583823
     35          1           0        3.942672    1.962264   -1.141517
 ---------------------------------------------------------------------

 SCF Done:  E(UB3LYP) =  -579.269927433     A.U. after   32 cycles

 The electronic state is 2-A.
 Alpha  occ. eigenvalues --  -18.99314 -14.24033 -14.20869 -10.17895 -10.12182
 Alpha  occ. eigenvalues --  -10.10525 -10.09603 -10.09379 -10.08555 -10.07877
 Alpha  occ. eigenvalues --  -10.06864 -10.06301 -10.06073  -0.94488  -0.83186
 Alpha  occ. eigenvalues --   -0.81753  -0.71498  -0.70167  -0.64577  -0.60843
 Alpha  occ. eigenvalues --   -0.59056  -0.55890  -0.54898  -0.53607  -0.49001
 Alpha  occ. eigenvalues --   -0.47424  -0.40892  -0.40501  -0.37790  -0.36843
 Alpha  occ. eigenvalues --   -0.35923  -0.35532  -0.34464  -0.34128  -0.33246
 Alpha  occ. eigenvalues --   -0.32272  -0.31017  -0.30571  -0.29760  -0.29180
 Alpha  occ. eigenvalues --   -0.28724  -0.28311  -0.27655  -0.27304  -0.25531
 Alpha  occ. eigenvalues --   -0.24880  -0.24720  -0.24021  -0.23027  -0.16449
 Alpha  occ. eigenvalues --   -0.15785  -0.13831   0.04208
 Alpha virt. eigenvalues --    0.06224   0.06616   0.07520   0.08073   0.08542
 Alpha virt. eigenvalues --    0.09268   0.09800   0.09895   0.10571   0.10780
 Alpha virt. eigenvalues --    0.11061   0.11695   0.12141   0.12287   0.13337

  Beta  occ. eigenvalues --  -18.99309 -14.24029 -14.20863 -10.17894 -10.12173
  Beta  occ. eigenvalues --  -10.10510 -10.09575 -10.09375 -10.08541 -10.07857
  Beta  occ. eigenvalues --  -10.06829 -10.06277 -10.06027  -0.94480  -0.83174
  Beta  occ. eigenvalues --   -0.81739  -0.71470  -0.70147  -0.64534  -0.60804
  Beta  occ. eigenvalues --   -0.58984  -0.55843  -0.54840  -0.53562  -0.48959
  Beta  occ. eigenvalues --   -0.47370  -0.40871  -0.40474  -0.37772  -0.36807
  Beta  occ. eigenvalues --   -0.35883  -0.35490  -0.34432  -0.34100  -0.33209
  Beta  occ. eigenvalues --   -0.32242  -0.30989  -0.30529  -0.29730  -0.29144
  Beta  occ. eigenvalues --   -0.28683  -0.28283  -0.27622  -0.27266  -0.25506
  Beta  occ. eigenvalues --   -0.24852  -0.24673  -0.23980  -0.22988  -0.16430
  Beta  occ. eigenvalues --   -0.15777  -0.13811
  Beta virt. eigenvalues --    0.06423   0.07052   0.07174   0.08167   0.08628
  Beta virt. eigenvalues --    0.08925   0.09718   0.10057   0.10317   0.10888
  Beta virt. eigenvalues --    0.11098   0.11479   0.12139   0.12350   0.12593

 Mulliken charges and spin densities:
               1          2
     1  C    1.254697  -1.940645
     2  C   -1.783747   2.242423
     3  C    0.193204  -0.831188
     4  C   -0.067518  -0.041340
     5  C    1.420858  -2.093988
     6  N   -0.183541   0.151354
     7  C   -0.297550  -0.092353
     8  O   -0.271083   0.002255
     9  C    0.139002   0.170387
    10  C   -0.195393  -0.445771
    11  C   -0.091546  -0.439158
    12  N   -0.165500   0.063274
    13  C    0.495234  -0.847828
    14  H   -0.530323   0.691856
    15  H   -0.274207   0.421920
    16  H   -0.389057   0.545046
    17  H   -0.244269   0.393831
    18  H    0.054038   0.091368
    19  H    0.053248   0.096089
    20  H   -0.263124   0.423761
    21  H    1.077815  -0.976208
    22  H   -0.117196   0.278085
    23  H    0.182583  -0.026828
    24  H   -0.407230   0.574975
    25  H    0.264507   0.046690
    26  H    0.184131   0.059307
    27  H   -0.357853   0.508366
    28  H   -0.228040   0.373706
    29  H    0.141082   0.017258
    30  H    0.038033   0.164367
    31  H   -0.445852   0.571334
    32  H    0.250667   0.020524
    33  H   -0.104067   0.230208
    34  H   -0.061100   0.194535
    35  H   -0.270901   0.402385
 Sum of Mulliken charges =  -1.00000   1.00000

 Dipole moment (field-independent basis, Debye):
    X=              2.7083    Y=             -3.2561    Z=              1.5285  Tot=              4.5026
 Quadrupole moment (field-independent basis, Debye-Ang):
   XX=           -161.4773   YY=           -135.9042   ZZ=           -126.3167
   XY=              8.1108   XZ=             -3.7753   YZ=              7.8204

 Summary of Natural Population Analysis:

                                       Natural Population
                Natural  -----------------------------------------------
    Atom  No    Charge         Core      Valence    Rydberg      Total
 -----------------------------------------------------------------------
      C    1   -0.28546      0.99965     2.27967    0.00615     3.28546
      C    2   -0.11111      0.99960     2.10101    0.01051     3.11111
      C    3   -0.28485      0.99965     2.27935    0.00586     3.28485
      C    4   -0.01533      0.99956     2.00326    0.01251     3.01533
      C    5   -0.28922      0.99964     2.28290    0.00668     3.28922
      N    6   -0.32059      0.99965     2.81028    0.01066     3.82059
      C    7    0.34474      0.99963     1.63132    0.02431     2.65526
      O    8   -0.32716      0.99988     3.32181    0.00547     4.32716
      C    9   -0.15336      0.99955     2.14357    0.01024     3.15336
      C   10   -0.28147      0.99964     2.27635    0.00547     3.28147
      C   11   -0.08373      0.99960     2.07286    0.01127     3.08373
      N   12   -0.33682      0.99974     2.82670    0.01038     3.83682
      C   13   -0.17882      0.99967     2.17101    0.00814     3.17882
      H   14    0.09913      0.00000     0.39915    0.00171     0.40087
      H   15    0.10312      0.00000     0.39522    0.00166     0.39688
      H   16    0.10243      0.00000     0.39611    0.00146     0.39757
      H   17    0.09102      0.00000     0.40704    0.00194     0.40898
      H   18    0.09707      0.00000     0.40180    0.00113     0.40293
      H   19    0.10256      0.00000     0.39637    0.00107     0.39744
      H   20    0.10066      0.00000     0.39850    0.00084     0.39934
      H   21    0.09852      0.00000     0.39810    0.00339     0.40148
      H   22    0.09901      0.00000     0.39965    0.00134     0.40099
      H   23    0.10004      0.00000     0.39847    0.00149     0.39996
      H   24    0.10721      0.00000     0.39139    0.00140     0.39279
      H   25    0.19095      0.00000     0.30667    0.00238     0.30905
      H   26    0.11258      0.00000     0.38550    0.00193     0.38742
      H   27    0.09981      0.00000     0.39898    0.00121     0.40019
      H   28    0.10119      0.00000     0.39792    0.00090     0.39881
      H   29    0.10279      0.00000     0.39636    0.00086     0.39721
      H   30    0.09359      0.00000     0.40504    0.00136     0.40641
      H   31    0.08124      0.00000     0.41648    0.00227     0.41876
      H   32    0.17316      0.00000     0.32345    0.00339     0.32684
      H   33    0.08166      0.00000     0.41673    0.00161     0.41834
      H   34    0.09401      0.00000     0.40525    0.00074     0.40599
      H   35    0.09143      0.00000     0.40740    0.00117     0.40857
 =======================================================================
   * Total *   -0.00000     12.99546    38.84165    0.16289    52.00000

 Normal termination of Gaussian 16 at Wed Dec  9 23:39:54 2020.
