 Gaussian 16, Revision A.03,

 -----------------------------------------------------------
 # opt freq B3LYP/6-31G(d) empiricaldispersion=gd3bj scf=xqc
 -----------------------------------------------------------

 ------------------------------
 CID_60800980_JID_9512_neutraal
 ------------------------------
 Symbolic Z-matrix:
 Charge =  0 Multiplicity = 1

 SCF Done:  E(RB3LYP) =  -768.087187714     A.U. after   16 cycles
 SCF Done:  E(RB3LYP) =  -768.126083153     A.U. after   15 cycles
 SCF Done:  E(RB3LYP) =  -768.138238328     A.U. after   15 cycles
 SCF Done:  E(RB3LYP) =  -768.150157765     A.U. after   13 cycles
 SCF Done:  E(RB3LYP) =  -768.155537626     A.U. after   13 cycles
 SCF Done:  E(RB3LYP) =  -768.157033300     A.U. after   13 cycles
 SCF Done:  E(RB3LYP) =  -768.157717852     A.U. after   13 cycles
 SCF Done:  E(RB3LYP) =  -768.158379050     A.U. after   12 cycles
 SCF Done:  E(RB3LYP) =  -768.158520593     A.U. after   11 cycles
 SCF Done:  E(RB3LYP) =  -768.158568885     A.U. after   12 cycles
 SCF Done:  E(RB3LYP) =  -768.158631708     A.U. after   12 cycles
 SCF Done:  E(RB3LYP) =  -768.158658427     A.U. after   11 cycles
 SCF Done:  E(RB3LYP) =  -768.158661616     A.U. after   11 cycles
 SCF Done:  E(RB3LYP) =  -768.158661962     A.U. after    8 cycles
 SCF Done:  E(RB3LYP) =  -768.158661854     A.U. after    8 cycles
 SCF Done:  E(RB3LYP) =  -768.158661820     A.U. after    6 cycles
 Optimization completed.
    -- Stationary point found.
 Normal termination of Gaussian 16 at Sun Dec 13 20:28:44 2020.

 --------------------------------------------------------------------
 #N Geom=AllCheck Guess=TCheck SCRF=Check GenChk RB3LYP/6-31G(d) Freq
 --------------------------------------------------------------------

 Structure from the checkpoint file:  "JID_9512.chk"
 ------------------------------
 CID_60800980_JID_9512_neutraal
 ------------------------------
 Charge =  0 Multiplicity = 1

 SCF Done:  E(RB3LYP) =  -768.158661819     A.U. after    1 cycles

  Exact polarizability: 254.578  -5.709 212.350  31.547  11.620 116.106
 Approx polarizability: 383.591  -1.905 363.171  71.913  27.319 183.851

                      1                      2                      3
                      A                      A                      A
 Frequencies --     14.1598                29.4177                34.5421
 Red. masses --      4.5932                 5.1216                 3.6919
 Frc consts  --      0.0005                 0.0026                 0.0026
 IR Inten    --      0.0175                 0.2031                 0.2178

                      4                      5                      6
                      A                      A                      A
 Frequencies --     83.3703                93.8876               135.0430
 Red. masses --      3.5976                 4.6987                 4.0437
 Frc consts  --      0.0147                 0.0244                 0.0434
 IR Inten    --      0.2013                 0.0399                 0.7818

                      7                      8                      9
                      A                      A                      A
 Frequencies --    175.7434               198.1772               231.7111
 Red. masses --      4.1957                 4.1099                 2.1908
 Frc consts  --      0.0763                 0.0951                 0.0693
 IR Inten    --      1.9684                 1.8799                 0.0302

                     10                     11                     12
                      A                      A                      A
 Frequencies --    271.8637               286.1028               330.6135
 Red. masses --      3.4996                 3.7236                 2.9748
 Frc consts  --      0.1524                 0.1796                 0.1916
 IR Inten    --      3.1115                 7.8590                 5.2714

                     13                     14                     15
                      A                      A                      A
 Frequencies --    368.1667               383.8248               411.5752
 Red. masses --      4.3197                 5.0862                 2.1611
 Frc consts  --      0.3450                 0.4415                 0.2157
 IR Inten    --      0.7028                 1.8264                 7.2157

                     16                     17                     18
                      A                      A                      A
 Frequencies --    429.0997               433.5792               457.2728
 Red. masses --      1.6887                 5.6157                 3.5998
 Frc consts  --      0.1832                 0.6220                 0.4435
 IR Inten    --      0.0899                 2.0585                 3.3212

                     19                     20                     21
                      A                      A                      A
 Frequencies --    480.5845               482.4071               498.0772
 Red. masses --      3.4283                 2.6819                 6.3538
 Frc consts  --      0.4665                 0.3677                 0.9287
 IR Inten    --      0.1381                 0.0312                 0.1504

                     22                     23                     24
                      A                      A                      A
 Frequencies --    531.9903               565.8354               582.5971
 Red. masses --      4.9575                 2.6003                 5.9428
 Frc consts  --      0.8267                 0.4905                 1.1884
 IR Inten    --      3.6588                10.2332                 1.4537

                     25                     26                     27
                      A                      A                      A
 Frequencies --    588.3162               629.5196               654.1795
 Red. masses --      3.3645                 3.0874                 3.7709
 Frc consts  --      0.6861                 0.7209                 0.9508
 IR Inten    --      1.0888                24.4715                 0.8360

                     28                     29                     30
                      A                      A                      A
 Frequencies --    699.7952               751.6552               775.4345
 Red. masses --      5.8571                 1.3429                 3.1323
 Frc consts  --      1.6900                 0.4470                 1.1097
 IR Inten    --      3.4023                 0.8159                 2.0107

                     31                     32                     33
                      A                      A                      A
 Frequencies --    793.0021               808.3164               818.6707
 Red. masses --      1.8711                 5.3579                 2.1696
 Frc consts  --      0.6933                 2.0626                 0.8567
 IR Inten    --     37.3592                 0.7349               146.1240

                     34                     35                     36
                      A                      A                      A
 Frequencies --    819.2278               834.7737               840.3619
 Red. masses --      1.7952                 1.6240                 5.0534
 Frc consts  --      0.7099                 0.6668                 2.1026
 IR Inten    --      7.0033                 0.1115                 6.1214

                     37                     38                     39
                      A                      A                      A
 Frequencies --    881.4865               885.4353               898.8291
 Red. masses --      2.4313                 1.6518                 1.6020
 Frc consts  --      1.1131                 0.7630                 0.7625
 IR Inten    --      3.0228                 0.9729                47.1542

                     40                     41                     42
                      A                      A                      A
 Frequencies --    918.7367               946.2737               961.2092
 Red. masses --      1.4078                 5.3022                 1.3247
 Frc consts  --      0.7001                 2.7973                 0.7211
 IR Inten    --      0.1060                 4.4879                 1.0532

                     43                     44                     45
                      A                      A                      A
 Frequencies --    976.7305               984.4486               994.3443
 Red. masses --      1.3005                 1.9420                 1.2748
 Frc consts  --      0.7310                 1.1089                 0.7426
 IR Inten    --      1.4019                 0.4059                 0.1822

                     46                     47                     48
                      A                      A                      A
 Frequencies --   1001.1465              1041.2399              1046.4077
 Red. masses --      2.5813                 1.5706                 2.5231
 Frc consts  --      1.5243                 1.0033                 1.6277
 IR Inten    --      8.1803                12.6801                26.2595

                     49                     50                     51
                      A                      A                      A
 Frequencies --   1054.0937              1081.1496              1099.2793
 Red. masses --      2.7069                 2.4801                 2.2534
 Frc consts  --      1.7721                 1.7080                 1.6044
 IR Inten    --      5.4417                 2.1386                16.0548

                     52                     53                     54
                      A                      A                      A
 Frequencies --   1123.3694              1140.6988              1177.4712
 Red. masses --      2.4056                 4.3634                 2.5210
 Frc consts  --      1.7886                 3.3452                 2.0594
 IR Inten    --     11.1573                26.4259                 6.4776

                     55                     56                     57
                      A                      A                      A
 Frequencies --   1180.4903              1192.7077              1207.8946
 Red. masses --      1.3387                 1.1384                 2.0627
 Frc consts  --      1.0992                 0.9541                 1.7732
 IR Inten    --      0.1639                 2.4027                31.6386

                     58                     59                     60
                      A                      A                      A
 Frequencies --   1211.2810              1222.7124              1252.7709
 Red. masses --      1.3706                 1.1001                 2.2012
 Frc consts  --      1.1848                 0.9690                 2.0354
 IR Inten    --      0.1813                 0.4157                 2.0764

                     61                     62                     63
                      A                      A                      A
 Frequencies --   1274.6427              1278.3303              1315.9552
 Red. masses --      1.1875                 1.7447                 2.3118
 Frc consts  --      1.1368                 1.6798                 2.3588
 IR Inten    --      4.4252                 1.9328                 9.6255

                     64                     65                     66
                      A                      A                      A
 Frequencies --   1356.4989              1369.2989              1371.9762
 Red. masses --      1.3215                 1.2664                 1.3998
 Frc consts  --      1.4327                 1.3990                 1.5524
 IR Inten    --      3.2538                 0.3854                 9.7899

                     67                     68                     69
                      A                      A                      A
 Frequencies --   1377.3550              1381.6033              1387.9443
 Red. masses --      2.9455                 1.3146                 1.4745
 Frc consts  --      3.2923                 1.4784                 1.6736
 IR Inten    --     11.4113                59.4507                 0.8652

                     70                     71                     72
                      A                      A                      A
 Frequencies --   1397.1897              1416.0387              1419.8011
 Red. masses --      1.2399                 8.5912                 1.2305
 Frc consts  --      1.4261                10.1497                 1.4614
 IR Inten    --      8.8845                 0.3774                 7.8273

                     73                     74                     75
                      A                      A                      A
 Frequencies --   1426.1981              1442.4030              1482.9504
 Red. masses --      1.4028                 2.3188                 1.0888
 Frc consts  --      1.6812                 2.8424                 1.4108
 IR Inten    --     15.8058                18.4028                13.5341

                     76                     77                     78
                      A                      A                      A
 Frequencies --   1486.5896              1493.1980              1505.8972
 Red. masses --      2.1117                 1.0974                 1.1081
 Frc consts  --      2.7496                 1.4416                 1.4806
 IR Inten    --      1.5939                 8.8624                 3.8241

                     79                     80                     81
                      A                      A                      A
 Frequencies --   1506.5819              1509.8084              1513.9730
 Red. masses --      1.0887                 2.3701                 1.1748
 Frc consts  --      1.4559                 3.1832                 1.5866
 IR Inten    --      2.4613                 1.8344                 3.4375

                     82                     83                     84
                      A                      A                      A
 Frequencies --   1517.0284              1563.8553              1632.5609
 Red. masses --      1.0996                 3.4173                 6.8523
 Frc consts  --      1.4910                 4.9241                10.7604
 IR Inten    --      2.2694                 7.9514                 5.2496

                     85                     86                     87
                      A                      A                      A
 Frequencies --   1647.4839              1681.1531              2328.3435
 Red. masses --      4.9704                 5.8646                11.8829
 Frc consts  --      7.9484                 9.7657                37.9547
 IR Inten    --      9.3625                 0.0574                 0.2109

                     88                     89                     90
                      A                      A                      A
 Frequencies --   2994.2182              3000.0131              3026.8769
 Red. masses --      1.0680                 1.0693                 1.0593
 Frc consts  --      5.6416                 5.6704                 5.7183
 IR Inten    --     27.8297               123.8539                50.3161

                     91                     92                     93
                      A                      A                      A
 Frequencies --   3054.3834              3055.9324              3062.3477
 Red. masses --      1.0639                 1.0675                 1.1025
 Frc consts  --      5.8479                 5.8737                 6.0917
 IR Inten    --     52.4629                31.2936                 1.2062

                     94                     95                     96
                      A                      A                      A
 Frequencies --   3074.6870              3077.1971              3112.4010
 Red. masses --      1.0940                 1.0938                 1.1022
 Frc consts  --      6.0934                 6.1025                 6.2908
 IR Inten    --     57.7440                39.2233                17.0397

                     97                     98                     99
                      A                      A                      A
 Frequencies --   3115.7568              3180.7528              3184.6270
 Red. masses --      1.1002                 1.0864                 1.0865
 Frc consts  --      6.2929                 6.4760                 6.4924
 IR Inten    --     56.5848                 1.1366                 1.5312

                    100                    101                    102
                      A                      A                      A
 Frequencies --   3192.4001              3201.1985              3206.7599
 Red. masses --      1.0891                 1.0917                 1.0939
 Frc consts  --      6.5394                 6.5916                 6.6279
 IR Inten    --     12.9594                24.3509                33.9138

                    103                    104                    105
                      A                      A                      A
 Frequencies --   3216.1506              3218.4600              3442.1449
 Red. masses --      1.0952                 1.0947                 1.0733
 Frc consts  --      6.6745                 6.6807                 7.4924
 IR Inten    --     22.8837                 8.3885                 8.4318

 - Thermochemistry -
 -------------------
 Temperature   298.150 Kelvin.  Pressure   1.00000 Atm.
 Atom     1 has atomic number  6 and mass  12.00000

 Molecular mass:   250.14700 amu.
 Principal axes and moments of inertia in atomic units:
                           1         2         3
     Eigenvalues --  2645.174868280.888639340.29180
           X            1.00000   0.00007   0.00065
           Y           -0.00008   0.99986   0.01697
           Z           -0.00064  -0.01697   0.99986
 This molecule is an asymmetric top.
 Rotational symmetry number  1.
 Warning -- assumption of classical behavior for rotation
           may cause significant error
 Rotational temperatures (Kelvin)      0.03274     0.01046     0.00927
 Rotational constants (GHZ):           0.68228     0.21794     0.19322
 Zero-point vibrational energy     828438.3 (Joules/Mol)
                                  198.00151 (Kcal/Mol)
 Warning -- explicit consideration of  25 degrees of freedom as
           vibrations may cause significant error
 Vibrational temperatures:     20.37    42.33    49.70   119.95   135.08
          (Kelvin)            194.30   252.86   285.13   333.38   391.15
                              411.64   475.68   529.71   552.24   592.16
                              617.38   623.82   657.91   691.45   694.08
                              716.62   765.42   814.11   838.23   846.46
                              905.74   941.22  1006.85  1081.46  1115.68
                             1140.95  1162.99  1177.88  1178.69  1201.05
                             1209.09  1268.26  1273.94  1293.21  1321.86
                             1361.48  1382.97  1405.30  1416.40  1430.64
                             1440.43  1498.11  1505.55  1516.61  1555.53
                             1581.62  1616.28  1641.21  1694.12  1698.46
                             1716.04  1737.89  1742.76  1759.21  1802.46
                             1833.93  1839.23  1893.37  1951.70  1970.12
                             1973.97  1981.71  1987.82  1996.94  2010.24
                             2037.36  2042.78  2051.98  2075.30  2133.63
                             2138.87  2148.38  2166.65  2167.64  2172.28
                             2178.27  2182.67  2250.04  2348.89  2370.36
                             2418.80  3349.97  4308.01  4316.35  4355.00
                             4394.58  4396.81  4406.04  4423.79  4427.40
                             4478.05  4482.88  4576.39  4581.97  4593.15
                             4605.81  4613.81  4627.32  4630.65  4952.48

 Zero-point correction=                           0.315535 (Hartree/Particle)
 Thermal correction to Energy=                    0.331308
 Thermal correction to Enthalpy=                  0.332252
 Thermal correction to Gibbs Free Energy=         0.270223
 Sum of electronic and zero-point Energies=           -767.843126
 Sum of electronic and thermal Energies=              -767.827354
 Sum of electronic and thermal Enthalpies=            -767.826410
 Sum of electronic and thermal Free Energies=         -767.888438

                     E (Thermal)             CV                S
                      KCal/Mol        Cal/Mol-Kelvin    Cal/Mol-Kelvin
 Total                  207.899             63.401            130.550
 Electronic               0.000              0.000              0.000
 Translational            0.889              2.981             42.451
 Rotational               0.889              2.981             33.681
 Vibrational            206.121             57.439             54.419
 Vibration     1          0.593              1.986              7.320
 Vibration     2          0.593              1.984              5.868
 Vibration     3          0.594              1.983              5.550
 Vibration     4          0.600              1.961              3.810
 Vibration     5          0.603              1.954              3.577
 Vibration     6          0.613              1.918              2.873
 Vibration     7          0.628              1.872              2.373
 Vibration     8          0.637              1.842              2.150
 Vibration     9          0.653              1.792              1.866
 Vibration    10          0.675              1.725              1.584
 Vibration    11          0.684              1.699              1.497
 Vibration    12          0.713              1.614              1.257
 Vibration    13          0.741              1.538              1.087
 Vibration    14          0.753              1.505              1.024
 Vibration    15          0.776              1.445              0.921
 Vibration    16          0.790              1.407              0.862
 Vibration    17          0.794              1.397              0.847
 Vibration    18          0.815              1.345              0.774
 Vibration    19          0.837              1.293              0.708
 Vibration    20          0.839              1.289              0.704
 Vibration    21          0.854              1.254              0.663
 Vibration    22          0.887              1.179              0.583
 Vibration    23          0.922              1.105              0.512
 Vibration    24          0.939              1.069              0.481
 Vibration    25          0.946              1.057              0.470

 Optimization completed.
    -- Stationary point found.
 Normal termination of Gaussian 16 at Sun Dec 13 20:46:10 2020.

 ----------------------------------------------------------------------
 # B3LYP/6-311++G(d,p) empiricaldispersion=gd3bj scf=xqc pop=npa geom=c
 heck
 ----------------------------------------------------------------------

 --------------------------------------
 CID_60800980_JID_9512_Energie_neutraal
 --------------------------------------
 Structure from the checkpoint file:  "JID_9512.chk"
 Charge =  0 Multiplicity = 1

 SCF Done:  E(RB3LYP) =  -768.357085459     A.U. after   15 cycles
 Normal termination of Gaussian 16 at Sun Dec 13 20:52:57 2020.

 ----------------------------------------------------------------------
 # B3LYP/6-311++G(d,p) empiricaldispersion=gd3bj scf=xqc pop=npa geom=c
 heck
 ----------------------------------------------------------------------

 ------------------------------------
 CID_60800980_JID_9512_Energie_kation
 ------------------------------------
 Structure from the checkpoint file:  "JID_9512.chk"
 Charge =  1 Multiplicity = 2

 SCF Done:  E(UB3LYP) =  -768.101876579     A.U. after   24 cycles
 Normal termination of Gaussian 16 at Sun Dec 13 21:07:58 2020.
 Gaussian 16:  ES64L-G16RevA.03 25-Dec-2016

 ----------------------------------------------------------------------
 # B3LYP/6-311++G(d,p) empiricaldispersion=gd3bj scf=xqc pop=npa geom=c
 heck
 ----------------------------------------------------------------------

 -----------------------------------
 CID_60800980_JID_9512_Energie_anion
 -----------------------------------
 Structure from the checkpoint file:  "JID_9512.chk"
 Charge = -1 Multiplicity = 2

                         Standard orientation:
 ---------------------------------------------------------------------
 Center     Atomic      Atomic             Coordinates (Angstroms)
 Number     Number       Type             X           Y           Z
 ---------------------------------------------------------------------
      1          6           0       -3.005545    0.692688    1.547447
      2          6           0       -3.966592    0.845868    0.355637
      3          7           0       -3.630269    0.000377   -0.792607
      4          6           0       -3.373514   -1.386934   -0.397458
      5          6           0       -2.419993   -1.532109    0.802348
      6          7           0       -2.819507   -0.707413    1.949620
      7          6           0       -2.697200    0.573591   -1.756705
      8          6           0       -1.302141    0.786150   -1.323851
      9          6           0       -0.167741    0.942283   -0.921647
     10          6           0        1.158664    1.094785   -0.423559
     11          6           0        1.628228    2.349594   -0.059156
     12          6           0        2.931702    2.516870    0.451167
     13          6           0        3.765102    1.431752    0.601493
     14          6           0        3.330535    0.128953    0.243890
     15          6           0        4.171799   -1.005155    0.393667
     16          6           0        3.734365   -2.261325    0.042725
     17          6           0        2.431081   -2.438213   -0.478710
     18          6           0        1.590750   -1.359051   -0.637080
     19          6           0        2.011417   -0.053266   -0.280093
     20          1           0       -2.022161    1.098512    1.288420
     21          1           0       -3.381340    1.257730    2.409341
     22          1           0       -4.016047    1.888567    0.019062
     23          1           0       -4.979032    0.562829    0.685943
     24          1           0       -4.342901   -1.835624   -0.126967
     25          1           0       -2.996783   -1.934672   -1.270076
     26          1           0       -1.406673   -1.232948    0.516024
     27          1           0       -2.376523   -2.580403    1.122623
     28          1           0       -3.708248   -1.061275    2.308443
     29          1           0       -2.695093   -0.079812   -2.639644
     30          1           0       -3.114112    1.534245   -2.087018
     31          1           0        0.974035    3.208277   -0.169940
     32          1           0        3.271787    3.510446    0.727963
     33          1           0        4.769381    1.556830    0.997949
     34          1           0        5.172285   -0.860255    0.793404
     35          1           0        4.387889   -3.120493    0.163721
     36          1           0        2.093489   -3.432704   -0.756220
     37          1           0        0.592968   -1.488892   -1.042808
 ---------------------------------------------------------------------

 SCF Done:  E(UB3LYP) =  -768.365555978     A.U. after   30 cycles

 The electronic state is 2-A.
 Alpha  occ. eigenvalues --  -14.20386 -14.20123 -10.10891 -10.09814 -10.09690
 Alpha  occ. eigenvalues --  -10.08810 -10.08571 -10.03702 -10.03494 -10.02938
 Alpha  occ. eigenvalues --  -10.02871 -10.02763 -10.02703 -10.02217 -10.02206
 Alpha  occ. eigenvalues --  -10.01894 -10.01888 -10.01823 -10.00945  -0.84127
 Alpha  occ. eigenvalues --   -0.79107  -0.72791  -0.67780  -0.66253  -0.65306
 Alpha  occ. eigenvalues --   -0.63361  -0.59530  -0.59438  -0.57027  -0.54361
 Alpha  occ. eigenvalues --   -0.53790  -0.48554  -0.47648  -0.46662  -0.45909
 Alpha  occ. eigenvalues --   -0.40772  -0.38567  -0.37815  -0.36856  -0.36699
 Alpha  occ. eigenvalues --   -0.36110  -0.34985  -0.34439  -0.33534  -0.31471
 Alpha  occ. eigenvalues --   -0.30098  -0.29799  -0.29476  -0.28628  -0.28105
 Alpha  occ. eigenvalues --   -0.27097  -0.25860  -0.25509  -0.25442  -0.24508
 Alpha  occ. eigenvalues --   -0.24396  -0.23034  -0.19797  -0.19626  -0.19236
 Alpha  occ. eigenvalues --   -0.17004  -0.15707  -0.13030  -0.12545  -0.10659
 Alpha  occ. eigenvalues --   -0.09904  -0.07362   0.04538
 Alpha virt. eigenvalues --    0.06438   0.08191   0.08395   0.08956   0.09780
 Alpha virt. eigenvalues --    0.09798   0.10491   0.10723   0.11264   0.11591
 Alpha virt. eigenvalues --    0.12358   0.12645   0.12822   0.13074   0.13664

  Beta  occ. eigenvalues --  -14.20349 -14.20122 -10.10908 -10.09812 -10.09689
  Beta  occ. eigenvalues --  -10.08809 -10.08569 -10.03741 -10.03583 -10.02921
  Beta  occ. eigenvalues --  -10.02892 -10.02615 -10.02472 -10.02222 -10.01979
  Beta  occ. eigenvalues --  -10.01715 -10.01713 -10.01648 -10.00547  -0.84089
  Beta  occ. eigenvalues --   -0.79078  -0.72493  -0.67372  -0.66247  -0.65032
  Beta  occ. eigenvalues --   -0.62983  -0.59309  -0.59188  -0.56660  -0.54352
  Beta  occ. eigenvalues --   -0.53710  -0.47986  -0.47495  -0.46565  -0.45589
  Beta  occ. eigenvalues --   -0.40684  -0.38405  -0.37782  -0.36652  -0.36512
  Beta  occ. eigenvalues --   -0.36055  -0.34824  -0.34433  -0.33449  -0.31281
  Beta  occ. eigenvalues --   -0.30025  -0.29752  -0.29413  -0.28608  -0.27944
  Beta  occ. eigenvalues --   -0.26935  -0.25721  -0.25449  -0.24979  -0.24465
  Beta  occ. eigenvalues --   -0.24059  -0.22853  -0.19462  -0.19138  -0.18705
  Beta  occ. eigenvalues --   -0.15932  -0.15582  -0.12935  -0.11627  -0.09906
  Beta  occ. eigenvalues --   -0.09746  -0.05644
  Beta virt. eigenvalues --    0.06384   0.08126   0.08321   0.08916   0.09716
  Beta virt. eigenvalues --    0.09736   0.09860   0.10462   0.10646   0.11218
  Beta virt. eigenvalues --    0.11521   0.12544   0.12777   0.13023   0.13323

 Mulliken charges and spin densities:
               1          2
     1  C   -0.426904   0.021602
     2  C   -0.262763  -0.058331
     3  N    0.156491   0.022371
     4  C   -0.293709  -0.025204
     5  C   -0.403311   0.004121
     6  N   -0.080813  -0.003376
     7  C   -0.939681  -0.063316
     8  C    0.195904   0.180715
     9  C    0.204511  -0.020781
    10  C    0.397968   0.121410
    11  C   -0.357107   0.196414
    12  C   -0.367192   0.027000
    13  C   -0.306233   0.286072
    14  C    0.508905  -0.071044
    15  C   -0.284653   0.172309
    16  C   -0.361203   0.019997
    17  C   -0.531707   0.082107
    18  C   -0.563648   0.088848
    19  C    0.468364  -0.014230
    20  H    0.205534  -0.007682
    21  H    0.116065   0.019691
    22  H    0.102685   0.027389
    23  H    0.127786   0.007402
    24  H    0.123470   0.016984
    25  H    0.122401   0.013415
    26  H    0.160542  -0.005117
    27  H    0.129742  -0.000163
    28  H    0.211856  -0.001720
    29  H    0.137869   0.026108
    30  H    0.156862   0.006827
    31  H    0.108104  -0.011198
    32  H    0.110265  -0.000703
    33  H    0.067761  -0.025924
    34  H    0.086611  -0.012429
    35  H    0.104537  -0.001842
    36  H    0.116165  -0.004692
    37  H    0.058525  -0.013032
 Sum of Mulliken charges =  -1.00000   1.00000

 Dipole moment (field-independent basis, Debye):
    X=             -7.1079    Y=             -1.1597    Z=              0.5016  Tot=              7.2193
 Quadrupole moment (field-independent basis, Debye-Ang):
   XX=           -158.1530   YY=           -130.3113   ZZ=           -132.2885
   XY=              0.3022   XZ=             -1.6703   YZ=              1.9768

 Summary of Natural Population Analysis:

                                       Natural Population
                Natural  -----------------------------------------------
    Atom  No    Charge         Core      Valence    Rydberg      Total
 -----------------------------------------------------------------------
      C    1   -0.10320      0.99963     2.09421    0.00936     3.10320
      C    2   -0.09170      0.99962     2.08147    0.01060     3.09170
      N    3   -0.27902      0.99974     2.76243    0.01684     3.77902
      C    4   -0.09228      0.99962     2.08200    0.01065     3.09228
      C    5   -0.10446      0.99963     2.09528    0.00955     3.10446
      N    6   -0.33444      0.99977     2.82038    0.01429     3.83444
      C    7   -0.12407      0.99960     2.10960    0.01487     3.12407
      C    8    0.00220      0.99931     1.98765    0.01084     2.99780
      C    9    0.02471      0.99937     1.96109    0.01483     2.97529
      C   10   -0.03094      0.99935     2.01753    0.01406     3.03094
      C   11   -0.05302      0.99956     2.04182    0.01165     3.05302
      C   12   -0.11611      0.99957     2.10693    0.00961     3.11611
      C   13   -0.01941      0.99954     2.01077    0.00910     3.01941
      C   14   -0.05019      0.99950     2.04132    0.00937     3.05019
      C   15   -0.04941      0.99943     2.03993    0.01005     3.04941
      C   16   -0.11896      0.99959     2.10889    0.01048     3.11896
      C   17   -0.09417      0.99957     2.08496    0.00963     3.09417
      C   18   -0.07120      0.99953     2.06291    0.00875     3.07120
      C   19   -0.01923      0.99948     2.00862    0.01112     3.01923
      H   20    0.10796      0.00000     0.39075    0.00129     0.39204
      H   21    0.08774      0.00000     0.41125    0.00101     0.41226
      H   22    0.09534      0.00000     0.40312    0.00154     0.40466
      H   23    0.08321      0.00000     0.41502    0.00177     0.41679
      H   24    0.08349      0.00000     0.41484    0.00167     0.41651
      H   25    0.09604      0.00000     0.40230    0.00165     0.40396
      H   26    0.10938      0.00000     0.38916    0.00146     0.39062
      H   27    0.08911      0.00000     0.40990    0.00100     0.41089
      H   28    0.15958      0.00000     0.33822    0.00220     0.34042
      H   29    0.10085      0.00000     0.39749    0.00167     0.39915
      H   30    0.10001      0.00000     0.39836    0.00163     0.39999
      H   31    0.09027      0.00000     0.40853    0.00120     0.40973
      H   32    0.08889      0.00000     0.41001    0.00110     0.41111
      H   33    0.08320      0.00000     0.41512    0.00167     0.41680
      H   34    0.08994      0.00000     0.40948    0.00058     0.41006
      H   35    0.08858      0.00000     0.41032    0.00111     0.41142
      H   36    0.08810      0.00000     0.41083    0.00107     0.41190
      H   37    0.09622      0.00000     0.40205    0.00173     0.40378
 =======================================================================
   * Total *    0.01302     18.99141    47.75458    0.24100    66.98698

 Normal termination of Gaussian 16 at Sun Dec 13 21:26:34 2020.
