 Gaussian 16, Revision A.03,

 -----------------------------------------------------------
 # opt freq B3LYP/6-31G(d) empiricaldispersion=gd3bj scf=xqc
 -----------------------------------------------------------

 -------------------------------
 CID_131016495_JID_2041_neutraal
 -------------------------------
 Symbolic Z-matrix:
 Charge =  0 Multiplicity = 1

 SCF Done:  E(RB3LYP) =  -541.171130710     A.U. after   14 cycles
 SCF Done:  E(RB3LYP) =  -541.175444491     A.U. after   12 cycles
 SCF Done:  E(RB3LYP) =  -541.173005056     A.U. after   13 cycles
 SCF Done:  E(RB3LYP) =  -541.175945015     A.U. after   12 cycles
 SCF Done:  E(RB3LYP) =  -541.175927252     A.U. after   12 cycles
 SCF Done:  E(RB3LYP) =  -541.176143630     A.U. after   11 cycles
 SCF Done:  E(RB3LYP) =  -541.176184674     A.U. after   10 cycles
 SCF Done:  E(RB3LYP) =  -541.176201358     A.U. after   11 cycles
 SCF Done:  E(RB3LYP) =  -541.176205565     A.U. after    9 cycles
 SCF Done:  E(RB3LYP) =  -541.176207017     A.U. after   10 cycles
 SCF Done:  E(RB3LYP) =  -541.176207283     A.U. after    8 cycles
 SCF Done:  E(RB3LYP) =  -541.176207494     A.U. after    8 cycles
 SCF Done:  E(RB3LYP) =  -541.176207573     A.U. after    7 cycles
 SCF Done:  E(RB3LYP) =  -541.176207612     A.U. after    7 cycles
 Optimization completed.
    -- Stationary point found.
 Normal termination of Gaussian 16 at Wed Dec  9 16:48:19 2020.

 --------------------------------------------------------------------
 #N Geom=AllCheck Guess=TCheck SCRF=Check GenChk RB3LYP/6-31G(d) Freq
 --------------------------------------------------------------------

 Structure from the checkpoint file:  "JID_2041.chk"
 -------------------------------
 CID_131016495_JID_2041_neutraal
 -------------------------------
 Charge =  0 Multiplicity = 1

 SCF Done:  E(RB3LYP) =  -541.176207612     A.U. after    1 cycles

  Exact polarizability: 119.812  -8.744 106.996   0.670   3.223  90.674
 Approx polarizability: 154.507 -23.164 172.911  -4.017   8.229 132.247

                      1                      2                      3
                      A                      A                      A
 Frequencies --     27.0454                63.8836                73.5964
 Red. masses --      3.5724                 4.7466                 3.3019
 Frc consts  --      0.0015                 0.0114                 0.0105
 IR Inten    --      0.9636                 0.5730                 0.2820

                      4                      5                      6
                      A                      A                      A
 Frequencies --     87.0691               146.3778               211.5117
 Red. masses --      3.4695                 1.9112                 2.4113
 Frc consts  --      0.0155                 0.0241                 0.0636
 IR Inten    --      0.7526                 0.4142                 0.0303

                      7                      8                      9
                      A                      A                      A
 Frequencies --    229.2080               259.0952               274.5596
 Red. masses --      2.7650                 1.2701                 1.5602
 Frc consts  --      0.0856                 0.0502                 0.0693
 IR Inten    --      0.4530                 0.5624                 1.0449

                     10                     11                     12
                      A                      A                      A
 Frequencies --    293.4737               333.6956               350.5718
 Red. masses --      1.4629                 2.5610                 2.4332
 Frc consts  --      0.0742                 0.1680                 0.1762
 IR Inten    --      1.8314                 2.4108                 1.9504

                     13                     14                     15
                      A                      A                      A
 Frequencies --    396.0091               409.4245               453.2090
 Red. masses --      3.3818                 3.5524                 2.5125
 Frc consts  --      0.3125                 0.3508                 0.3041
 IR Inten    --     25.6340                13.2003                 2.7661

                     16                     17                     18
                      A                      A                      A
 Frequencies --    471.8217               476.1131               572.3751
 Red. masses --      2.7609                 1.2237                 3.0930
 Frc consts  --      0.3621                 0.1634                 0.5970
 IR Inten    --      1.1158                53.2112                26.1291

                     19                     20                     21
                      A                      A                      A
 Frequencies --    606.9063               646.0062               701.2249
 Red. masses --      3.3109                 2.3439                 2.9251
 Frc consts  --      0.7185                 0.5763                 0.8474
 IR Inten    --      5.2067                 3.1470                12.7913

                     22                     23                     24
                      A                      A                      A
 Frequencies --    772.0176               825.3790               854.9211
 Red. masses --      2.6865                 2.2468                 1.4458
 Frc consts  --      0.9434                 0.9018                 0.6226
 IR Inten    --     13.8006                 0.3639                 1.9776

                     25                     26                     27
                      A                      A                      A
 Frequencies --    879.8982               882.0088               915.0332
 Red. masses --      3.1174                 2.5365                 1.7445
 Frc consts  --      1.4220                 1.1626                 0.8606
 IR Inten    --      0.9287                 1.7387                 0.5845

                     28                     29                     30
                      A                      A                      A
 Frequencies --    920.2510               941.8912               945.3968
 Red. masses --      1.9791                 2.0016                 1.7595
 Frc consts  --      0.9875                 1.0463                 0.9265
 IR Inten    --      0.0958                 2.1545                 3.8076

                     31                     32                     33
                      A                      A                      A
 Frequencies --    989.7893               998.7444              1032.5832
 Red. masses --      1.8886                 1.9751                 1.3892
 Frc consts  --      1.0901                 1.1608                 0.8727
 IR Inten    --     13.5593                29.6925                 0.0238

                     34                     35                     36
                      A                      A                      A
 Frequencies --   1045.1998              1070.6625              1103.8883
 Red. masses --      2.1162                 1.7177                 2.0963
 Frc consts  --      1.3621                 1.1601                 1.5050
 IR Inten    --      1.8868                27.1900                27.8598

                     37                     38                     39
                      A                      A                      A
 Frequencies --   1159.7019              1172.0669              1184.5695
 Red. masses --      1.5508                 1.5657                 1.7820
 Frc consts  --      1.2289                 1.2672                 1.4732
 IR Inten    --      6.7906                13.2686                 6.1382

                     40                     41                     42
                      A                      A                      A
 Frequencies --   1207.1659              1229.7086              1246.0911
 Red. masses --      2.0558                 1.7888                 1.2380
 Frc consts  --      1.7651                 1.5938                 1.1326
 IR Inten    --     18.7174               131.3873                 5.9716

                     43                     44                     45
                      A                      A                      A
 Frequencies --   1258.6089              1281.1758              1309.8515
 Red. masses --      1.5654                 2.4622                 1.3496
 Frc consts  --      1.4610                 2.3811                 1.3643
 IR Inten    --      1.7051                10.1003                11.4783

                     46                     47                     48
                      A                      A                      A
 Frequencies --   1327.5418              1341.6406              1350.0787
 Red. masses --      1.4850                 1.4486                 1.5476
 Frc consts  --      1.5420                 1.5363                 1.6619
 IR Inten    --      3.0308                 3.2522                 0.9458

                     49                     50                     51
                      A                      A                      A
 Frequencies --   1387.5847              1411.4362              1431.7387
 Red. masses --      1.8538                 1.2273                 1.3252
 Frc consts  --      2.1030                 1.4405                 1.6005
 IR Inten    --      0.8497                20.4743                57.1463

                     52                     53                     54
                      A                      A                      A
 Frequencies --   1441.9358              1493.5030              1509.8510
 Red. masses --      1.3627                 1.0899                 1.0653
 Frc consts  --      1.6693                 1.4324                 1.4309
 IR Inten    --     54.8189                 9.5946                 1.0539

                     55                     56                     57
                      A                      A                      A
 Frequencies --   1513.4536              1516.0543              1518.9779
 Red. masses --      1.0671                 1.0635                 1.0765
 Frc consts  --      1.4402                 1.4402                 1.4634
 IR Inten    --      3.5117                 1.1233                 1.1658

                     58                     59                     60
                      A                      A                      A
 Frequencies --   1532.9346              1535.9468              1540.3689
 Red. masses --      1.0580                 1.0902                 1.0873
 Frc consts  --      1.4648                 1.5154                 1.5200
 IR Inten    --      4.8656                 2.6302                 2.2652

                     61                     62                     63
                      A                      A                      A
 Frequencies --   1726.0062              1786.1424              3015.8776
 Red. masses --      7.0308                11.0056                 1.0708
 Frc consts  --     12.3408                20.6868                 5.7386
 IR Inten    --     10.9572               136.6065                38.2590

                     64                     65                     66
                      A                      A                      A
 Frequencies --   3029.2673              3057.4917              3059.9814
 Red. masses --      1.0672                 1.0559                 1.0356
 Frc consts  --      5.7701                 5.8159                 5.7133
 IR Inten    --     29.7120                 8.1240                23.9155

                     67                     68                     69
                      A                      A                      A
 Frequencies --   3062.6629              3063.7850              3071.7074
 Red. masses --      1.0790                 1.0364                 1.0934
 Frc consts  --      5.9630                 5.7320                 6.0786
 IR Inten    --      8.4249                 4.5782                30.6473

                     70                     71                     72
                      A                      A                      A
 Frequencies --   3081.0255              3109.1283              3120.1163
 Red. masses --      1.0763                 1.1041                 1.1042
 Frc consts  --      6.0195                 6.2883                 6.3337
 IR Inten    --     62.5039                12.1146                35.8181

                     73                     74                     75
                      A                      A                      A
 Frequencies --   3132.2731              3135.3011              3141.0992
 Red. masses --      1.1034                 1.1028                 1.1030
 Frc consts  --      6.3780                 6.3870                 6.4119
 IR Inten    --     14.3060                21.8206                12.5357

                     76                     77                     78
                      A                      A                      A
 Frequencies --   3151.5359              3193.1212              3627.9775
 Red. masses --      1.1025                 1.0934                 1.0642
 Frc consts  --      6.4519                 6.5686                 8.2530
 IR Inten    --     26.2766                16.7998                56.9918

 - Thermochemistry -
 -------------------
 Temperature   298.150 Kelvin.  Pressure   1.00000 Atm.
 Atom     1 has atomic number  6 and mass  12.00000

 Molecular mass:   168.11503 amu.
 Principal axes and moments of inertia in atomic units:
                           1         2         3
     Eigenvalues --  1073.200743154.466613402.79151
           X            0.99985   0.01415   0.01011
           Y           -0.01447   0.99937   0.03254
           Z           -0.00964  -0.03268   0.99942
 This molecule is an asymmetric top.
 Rotational symmetry number  1.
 Warning -- assumption of classical behavior for rotation
           may cause significant error
 Rotational temperatures (Kelvin)      0.08071     0.02746     0.02545
 Rotational constants (GHZ):           1.68164     0.57212     0.53037
 Zero-point vibrational energy     644352.5 (Joules/Mol)
                                  154.00395 (Kcal/Mol)
 Warning -- explicit consideration of  19 degrees of freedom as
           vibrations may cause significant error
 Vibrational temperatures:     38.91    91.91   105.89   125.27   210.61
          (Kelvin)            304.32   329.78   372.78   395.03   422.24
                              480.11   504.39   569.77   589.07   652.07
                              678.85   685.02   823.52   873.20   929.46
                             1008.91  1110.76  1187.54  1230.04  1265.98
                             1269.01  1316.53  1324.04  1355.17  1360.22
                             1424.09  1436.97  1485.66  1503.81  1540.44
                             1588.25  1668.55  1686.34  1704.33  1736.84
                             1769.28  1792.85  1810.86  1843.33  1884.58
                             1910.04  1930.32  1942.46  1996.42  2030.74
                             2059.95  2074.62  2148.82  2172.34  2177.52
                             2181.26  2185.47  2205.55  2209.88  2216.25
                             2483.34  2569.86  4339.18  4358.44  4399.05
                             4402.63  4406.49  4408.10  4419.50  4432.91
                             4473.34  4489.15  4506.64  4511.00  4519.34
                             4534.36  4594.19  5219.85

 Zero-point correction=                           0.245421 (Hartree/Particle)
 Thermal correction to Energy=                    0.258193
 Thermal correction to Enthalpy=                  0.259137
 Thermal correction to Gibbs Free Energy=         0.205844
 Sum of electronic and zero-point Energies=           -540.930787
 Sum of electronic and thermal Energies=              -540.918015
 Sum of electronic and thermal Enthalpies=            -540.917071
 Sum of electronic and thermal Free Energies=         -540.970364

                     E (Thermal)             CV                S
                      KCal/Mol        Cal/Mol-Kelvin    Cal/Mol-Kelvin
 Total                  162.018             48.375            112.165
 Electronic               0.000              0.000              0.000
 Translational            0.889              2.981             41.266
 Rotational               0.889              2.981             30.822
 Vibrational            160.241             42.414             40.076
 Vibration     1          0.593              1.984              6.035
 Vibration     2          0.597              1.972              4.333
 Vibration     3          0.599              1.966              4.055
 Vibration     4          0.601              1.958              3.725
 Vibration     5          0.617              1.907              2.719
 Vibration     6          0.643              1.823              2.031
 Vibration     7          0.652              1.796              1.885
 Vibration     8          0.668              1.747              1.668
 Vibration     9          0.677              1.720              1.567
 Vibration    10          0.688              1.686              1.454
 Vibration    11          0.715              1.608              1.242
 Vibration    12          0.727              1.574              1.164
 Vibration    13          0.763              1.479              0.977
 Vibration    14          0.774              1.450              0.929
 Vibration    15          0.812              1.354              0.786
 Vibration    16          0.829              1.313              0.732
 Vibration    17          0.833              1.303              0.721
 Vibration    18          0.929              1.091              0.500
 Vibration    19          0.966              1.017              0.438

 Optimization completed.
    -- Stationary point found.
 Normal termination of Gaussian 16 at Wed Dec  9 16:55:19 2020.

 ----------------------------------------------------------------------
 # B3LYP/6-311++G(d,p) empiricaldispersion=gd3bj scf=xqc pop=npa geom=c
 heck
 ----------------------------------------------------------------------

 ---------------------------------------
 CID_131016495_JID_2041_Energie_neutraal
 ---------------------------------------
 Structure from the checkpoint file:  "JID_2041.chk"
 Charge =  0 Multiplicity = 1

 SCF Done:  E(RB3LYP) =  -541.338972028     A.U. after   14 cycles
 Normal termination of Gaussian 16 at Wed Dec  9 16:58:11 2020.

 ----------------------------------------------------------------------
 # B3LYP/6-311++G(d,p) empiricaldispersion=gd3bj scf=xqc pop=npa geom=c
 heck
 ----------------------------------------------------------------------

 -------------------------------------
 CID_131016495_JID_2041_Energie_kation
 -------------------------------------
 Structure from the checkpoint file:  "JID_2041.chk"
 Charge =  1 Multiplicity = 2

 SCF Done:  E(UB3LYP) =  -541.023492124     A.U. after   22 cycles
 Normal termination of Gaussian 16 at Wed Dec  9 17:04:46 2020.
 Gaussian 16:  ES64L-G16RevA.03 25-Dec-2016

 ----------------------------------------------------------------------
 # B3LYP/6-311++G(d,p) empiricaldispersion=gd3bj scf=xqc pop=npa geom=c
 heck
 ----------------------------------------------------------------------

 ------------------------------------
 CID_131016495_JID_2041_Energie_anion
 ------------------------------------
 Structure from the checkpoint file:  "JID_2041.chk"
 Charge = -1 Multiplicity = 2

                         Standard orientation:
 ---------------------------------------------------------------------
 Center     Atomic      Atomic             Coordinates (Angstroms)
 Number     Number       Type             X           Y           Z
 ---------------------------------------------------------------------
      1          6           0       -2.009710   -1.562669   -0.791768
      2          6           0       -1.880528   -0.417883    0.215414
      3          6           0       -1.079331   -0.861509    1.457590
      4          6           0       -1.204959    0.829409   -0.395076
      5          8           0       -1.655567    1.926850   -0.108879
      6          6           0        0.002741    0.698511   -1.318861
      7          6           0        1.250499    0.249601   -0.609628
      8          6           0        1.938742   -0.877303   -0.825910
      9          6           0        3.119384   -1.016799    0.104193
     10          6           0        3.248132    0.402385    0.718266
     11          6           0        1.865184    1.066672    0.509032
     12          8           0       -3.189008   -0.045170    0.616581
     13          1           0       -1.031461   -1.966692   -1.068640
     14          1           0       -2.532083   -1.229723   -1.694446
     15          1           0       -2.599420   -2.364353   -0.337203
     16          1           0       -0.077139   -1.213039    1.198787
     17          1           0       -0.996598   -0.032118    2.167641
     18          1           0       -1.629627   -1.672567    1.944426
     19          1           0       -0.237532   -0.000060   -2.127532
     20          1           0        0.153407    1.693489   -1.753412
     21          1           0        1.670005   -1.633736   -1.559032
     22          1           0        4.034680   -1.336895   -0.408151
     23          1           0        2.914242   -1.776409    0.873998
     24          1           0        3.555421    0.383911    1.767733
     25          1           0        4.007276    0.966314    0.165671
     26          1           0        1.241024    1.008349    1.412647
     27          1           0        1.937613    2.131837    0.257147
     28          1           0       -3.154123    0.925771    0.719231
 ---------------------------------------------------------------------

 SCF Done:  E(UB3LYP) =  -541.330443290     A.U. after   32 cycles

 The electronic state is 2-A.
 Alpha  occ. eigenvalues --  -18.99824 -18.97678 -10.11491 -10.10813 -10.05724
 Alpha  occ. eigenvalues --  -10.05689 -10.05582 -10.05558 -10.05475 -10.05371
 Alpha  occ. eigenvalues --  -10.04733 -10.04440  -0.92935  -0.89088  -0.73436
 Alpha  occ. eigenvalues --   -0.67463  -0.63868  -0.59418  -0.58366  -0.56383
 Alpha  occ. eigenvalues --   -0.49776  -0.46535  -0.43617  -0.40623  -0.38316
 Alpha  occ. eigenvalues --   -0.35969  -0.35557  -0.34644  -0.33053  -0.31026
 Alpha  occ. eigenvalues --   -0.30431  -0.28795  -0.28653  -0.28004  -0.26966
 Alpha  occ. eigenvalues --   -0.26302  -0.25231  -0.24248  -0.23448  -0.23208
 Alpha  occ. eigenvalues --   -0.22976  -0.22129  -0.21331  -0.16332  -0.13897
 Alpha  occ. eigenvalues --   -0.11442   0.04966
 Alpha virt. eigenvalues --    0.07464   0.08180   0.08426   0.09062   0.10225
 Alpha virt. eigenvalues --    0.10611   0.11037   0.11352   0.11895   0.12555
 Alpha virt. eigenvalues --    0.12834   0.13238   0.14229   0.14592   0.14858

  Beta  occ. eigenvalues --  -18.99821 -18.97369 -10.11517 -10.10447 -10.05725
  Beta  occ. eigenvalues --  -10.05654 -10.05561 -10.05537 -10.05465 -10.05356
  Beta  occ. eigenvalues --  -10.04688 -10.04399  -0.92604  -0.88794  -0.73356
  Beta  occ. eigenvalues --   -0.67300  -0.63761  -0.59346  -0.58295  -0.56183
  Beta  occ. eigenvalues --   -0.49497  -0.46460  -0.43453  -0.40473  -0.38026
  Beta  occ. eigenvalues --   -0.35917  -0.35213  -0.34544  -0.32912  -0.30703
  Beta  occ. eigenvalues --   -0.30327  -0.28698  -0.28599  -0.27919  -0.26901
  Beta  occ. eigenvalues --   -0.25901  -0.25155  -0.23910  -0.23337  -0.23139
  Beta  occ. eigenvalues --   -0.22710  -0.21793  -0.20810  -0.16279  -0.13661
  Beta  occ. eigenvalues --   -0.11229
  Beta virt. eigenvalues --    0.07529   0.08492   0.08959   0.09406   0.10019
  Beta virt. eigenvalues --    0.10601   0.10842   0.11296   0.11686   0.12236
  Beta virt. eigenvalues --    0.12918   0.13140   0.13650   0.14351   0.14727

 Mulliken charges and spin densities:
               1          2
     1  C   -0.382280  -0.147384
     2  C   -0.290568   0.271255
     3  C   -0.175480  -0.268844
     4  C    0.024384   0.143013
     5  O   -0.350148   0.105815
     6  C    0.277377  -0.822483
     7  C    1.480840  -0.428994
     8  C   -1.512943   1.224581
     9  C    1.424028  -1.958277
    10  C    0.253609  -0.699291
    11  C   -1.062722   0.528373
    12  O   -0.196135   0.001756
    13  H    0.121188   0.015576
    14  H    0.113372   0.051296
    15  H    0.150737  -0.015863
    16  H    0.383964  -0.184945
    17  H    0.027655   0.126380
    18  H    0.002426   0.148302
    19  H   -0.106327   0.276413
    20  H   -0.077380   0.276043
    21  H   -0.849884   1.013015
    22  H   -0.321964   0.462335
    23  H   -0.104333   0.233077
    24  H   -0.245454   0.389568
    25  H   -0.061574   0.206756
    26  H    0.187701  -0.068605
    27  H    0.033600   0.122331
    28  H    0.256312  -0.001199
 Sum of Mulliken charges =  -1.00000   1.00000

 Dipole moment (field-independent basis, Debye):
    X=             -2.7995    Y=             -0.0486    Z=              1.4447  Tot=              3.1507
 Quadrupole moment (field-independent basis, Debye-Ang):
   XX=           -133.4746   YY=           -103.6008   ZZ=           -104.2492
   XY=              8.1996   XZ=              4.4514   YZ=              0.7730

 Summary of Natural Population Analysis:

                                       Natural Population
                Natural  -----------------------------------------------
    Atom  No    Charge         Core      Valence    Rydberg      Total
 -----------------------------------------------------------------------
      C    1   -0.28851      0.99962     2.28327    0.00562     3.28851
      C    2    0.08656      0.99952     1.89902    0.01490     2.91344
      C    3   -0.29091      0.99962     2.28366    0.00763     3.29091
      C    4    0.34132      0.99961     1.63603    0.02303     2.65868
      O    5   -0.28393      0.99987     3.27728    0.00678     4.28393
      C    6   -0.24960      0.99954     2.23849    0.01156     3.24960
      C    7    0.00122      0.99946     1.98695    0.01236     2.99878
      C    8   -0.09450      0.99942     2.08522    0.00985     3.09450
      C    9   -0.20241      0.99964     2.19435    0.00842     3.20241
      C   10   -0.18529      0.99965     2.17758    0.00806     3.18529
      C   11   -0.20195      0.99959     2.19442    0.00794     3.20195
      O   12   -0.38682      0.99989     3.37990    0.00703     4.38682
      H   13    0.10208      0.00000     0.39687    0.00105     0.39792
      H   14    0.10045      0.00000     0.39860    0.00095     0.39955
      H   15    0.09886      0.00000     0.40020    0.00094     0.40114
      H   16    0.10487      0.00000     0.39392    0.00121     0.39513
      H   17    0.10021      0.00000     0.39886    0.00094     0.39979
      H   18    0.09921      0.00000     0.39973    0.00105     0.40079
      H   19    0.11230      0.00000     0.38584    0.00186     0.38770
      H   20    0.11241      0.00000     0.38594    0.00165     0.38759
      H   21    0.09851      0.00000     0.39962    0.00186     0.40149
      H   22    0.09883      0.00000     0.39966    0.00151     0.40117
      H   23    0.09610      0.00000     0.40213    0.00177     0.40390
      H   24    0.09607      0.00000     0.40277    0.00116     0.40393
      H   25    0.09513      0.00000     0.40364    0.00123     0.40487
      H   26    0.09961      0.00000     0.39919    0.00120     0.40039
      H   27    0.10068      0.00000     0.39817    0.00115     0.39932
      H   28    0.23949      0.00000     0.25744    0.00308     0.26051
 =======================================================================
   * Total *   -0.00000     11.99544    33.85877    0.14579    46.00000

 Normal termination of Gaussian 16 at Wed Dec  9 17:15:39 2020.
