 Gaussian 16, Revision A.03,

 -----------------------------------------------------------
 # opt freq B3LYP/6-31G(d) empiricaldispersion=gd3bj scf=xqc
 -----------------------------------------------------------

 -------------------------------
 CID_128790544_JID_8787_neutraal
 -------------------------------
 Symbolic Z-matrix:
 Charge =  0 Multiplicity = 1

 SCF Done:  E(RB3LYP) =  -780.782354169     A.U. after   14 cycles
 SCF Done:  E(RB3LYP) =  -780.787125768     A.U. after   12 cycles
 SCF Done:  E(RB3LYP) =  -780.787956701     A.U. after   12 cycles
 SCF Done:  E(RB3LYP) =  -780.788259117     A.U. after   12 cycles
 SCF Done:  E(RB3LYP) =  -780.788534783     A.U. after   13 cycles
 SCF Done:  E(RB3LYP) =  -780.788705806     A.U. after   12 cycles
 SCF Done:  E(RB3LYP) =  -780.788837322     A.U. after   13 cycles
 SCF Done:  E(RB3LYP) =  -780.789087344     A.U. after   12 cycles
 SCF Done:  E(RB3LYP) =  -780.789217672     A.U. after   12 cycles
 SCF Done:  E(RB3LYP) =  -780.789258370     A.U. after   12 cycles
 SCF Done:  E(RB3LYP) =  -780.789290797     A.U. after   12 cycles
 SCF Done:  E(RB3LYP) =  -780.789296520     A.U. after   11 cycles
 SCF Done:  E(RB3LYP) =  -780.789297648     A.U. after    8 cycles
 SCF Done:  E(RB3LYP) =  -780.789297891     A.U. after    9 cycles
 SCF Done:  E(RB3LYP) =  -780.789298351     A.U. after    8 cycles
 Optimization completed.
    -- Stationary point found.
 Normal termination of Gaussian 16 at Fri Dec 11 21:09:30 2020.

 --------------------------------------------------------------------
 #N Geom=AllCheck Guess=TCheck SCRF=Check GenChk RB3LYP/6-31G(d) Freq
 --------------------------------------------------------------------

 Structure from the checkpoint file:  "JID_8787.chk"
 -------------------------------
 CID_128790544_JID_8787_neutraal
 -------------------------------
 Charge =  0 Multiplicity = 1

 SCF Done:  E(RB3LYP) =  -780.789298351     A.U. after    1 cycles

  Exact polarizability: 232.225  -7.431 151.389  -9.035  -8.455  90.788
 Approx polarizability: 303.976 -12.724 283.185 -17.206 -21.952 144.697

                      1                      2                      3
                      A                      A                      A
 Frequencies --     19.9640                39.0099                60.0100
 Red. masses --      3.9168                 4.9648                 4.7564
 Frc consts  --      0.0009                 0.0045                 0.0101
 IR Inten    --      1.1335                 0.0040                 0.2249

                      4                      5                      6
                      A                      A                      A
 Frequencies --     76.3317               119.8179               141.7392
 Red. masses --      7.0459                 5.0306                 4.3489
 Frc consts  --      0.0242                 0.0426                 0.0515
 IR Inten    --      0.3172                 1.4887                 1.8353

                      7                      8                      9
                      A                      A                      A
 Frequencies --    225.5400               252.1272               312.5454
 Red. masses --      4.3998                 6.1554                 4.6845
 Frc consts  --      0.1319                 0.2305                 0.2696
 IR Inten    --      1.1461                 0.2098                 1.0216

                     10                     11                     12
                      A                      A                      A
 Frequencies --    366.0770               379.4039               390.8773
 Red. masses --      3.6804                 5.8489                 3.7900
 Frc consts  --      0.2906                 0.4961                 0.3412
 IR Inten    --      0.1830                 0.7437                 1.3734

                     13                     14                     15
                      A                      A                      A
 Frequencies --    414.6203               482.2388               501.5658
 Red. masses --      3.6502                 3.6367                 2.4919
 Frc consts  --      0.3697                 0.4983                 0.3694
 IR Inten    --      2.9409                 1.0459                 1.3448

                     16                     17                     18
                      A                      A                      A
 Frequencies --    514.1034               517.5095               635.2394
 Red. masses --      3.0238                 3.5447                 7.3127
 Frc consts  --      0.4709                 0.5593                 1.7386
 IR Inten    --      0.9575                 0.8873                 4.5515

                     19                     20                     21
                      A                      A                      A
 Frequencies --    675.2548               704.6858               718.1148
 Red. masses --      3.8262                 3.7103                 3.2989
 Frc consts  --      1.0279                 1.0856                 1.0023
 IR Inten    --      2.5956                 0.2065                30.9621

                     22                     23                     24
                      A                      A                      A
 Frequencies --    734.0221               757.9084               761.9483
 Red. masses --      3.3518                 4.4095                 1.6367
 Frc consts  --      1.0640                 1.4924                 0.5599
 IR Inten    --     20.8136                 5.5999                16.3369

                     25                     26                     27
                      A                      A                      A
 Frequencies --    779.3000               794.8079               821.5930
 Red. masses --      4.1444                 4.9459                 3.2306
 Frc consts  --      1.4829                 1.8409                 1.2848
 IR Inten    --     20.8165                 2.1804                 6.6266

                     28                     29                     30
                      A                      A                      A
 Frequencies --    827.8204               875.7230               892.2665
 Red. masses --      3.1241                 2.5463                 3.5851
 Frc consts  --      1.2614                 1.1505                 1.6817
 IR Inten    --      5.3266                 3.4226                14.7789

                     31                     32                     33
                      A                      A                      A
 Frequencies --    916.5667               920.8425               925.2508
 Red. masses --      3.1186                 4.2128                 1.3230
 Frc consts  --      1.5436                 2.1047                 0.6673
 IR Inten    --     10.4744                21.0422                 0.7757

                     34                     35                     36
                      A                      A                      A
 Frequencies --    927.3276               948.7161               962.1121
 Red. masses --      1.9261                 1.5235                 2.6881
 Frc consts  --      0.9759                 0.8079                 1.4661
 IR Inten    --      8.2684                 3.8021                 0.3503

                     37                     38                     39
                      A                      A                      A
 Frequencies --    966.0708               982.8386               999.9747
 Red. masses --      2.5505                 1.4214                 9.3543
 Frc consts  --      1.4025                 0.8090                 5.5111
 IR Inten    --      6.3519                 0.2809                 7.0120

                     40                     41                     42
                      A                      A                      A
 Frequencies --   1009.9120              1013.3707              1015.2993
 Red. masses --      2.0393                 1.2920                 7.1993
 Frc consts  --      1.2255                 0.7817                 4.3725
 IR Inten    --      3.9436                 0.0477                 5.9621

                     43                     44                     45
                      A                      A                      A
 Frequencies --   1029.3006              1054.2490              1069.6686
 Red. masses --      2.0969                 1.6225                 3.0785
 Frc consts  --      1.3089                 1.0625                 2.0753
 IR Inten    --      3.1699                 5.9210                 2.4839

                     46                     47                     48
                      A                      A                      A
 Frequencies --   1082.5696              1122.0885              1133.0189
 Red. masses --      2.6413                 1.5740                 1.2547
 Frc consts  --      1.8238                 1.1676                 0.9490
 IR Inten    --      2.5320                 2.9799                 0.4921

                     49                     50                     51
                      A                      A                      A
 Frequencies --   1149.7812              1179.2495              1185.5818
 Red. masses --      1.1733                 1.4983                 1.1268
 Frc consts  --      0.9139                 1.2276                 0.9332
 IR Inten    --      1.0545                19.0012                 0.6240

                     52                     53                     54
                      A                      A                      A
 Frequencies --   1187.7921              1196.6768              1227.0325
 Red. masses --      2.6182                 1.5477                 1.6058
 Frc consts  --      2.1763                 1.3059                 1.4244
 IR Inten    --     18.2935                 2.0780                 2.5756

                     55                     56                     57
                      A                      A                      A
 Frequencies --   1233.7604              1279.2710              1301.7161
 Red. masses --      1.8960                 1.3586                 1.3876
 Frc consts  --      1.7004                 1.3100                 1.3853
 IR Inten    --     48.6225                 4.1352                 0.9564

                     58                     59                     60
                      A                      A                      A
 Frequencies --   1312.0062              1318.0628              1321.8960
 Red. masses --      1.4660                 1.6791                 5.0994
 Frc consts  --      1.4869                 1.7187                 5.2500
 IR Inten    --      6.8474                17.4249                 5.2754

                     61                     62                     63
                      A                      A                      A
 Frequencies --   1324.0441              1337.2161              1381.3823
 Red. masses --      1.9517                 1.4410                 1.7416
 Frc consts  --      2.0159                 1.5181                 1.9581
 IR Inten    --     10.4644                 1.0376                11.4597

                     64                     65                     66
                      A                      A                      A
 Frequencies --   1390.5586              1425.6251              1469.0826
 Red. masses --      2.6390                 2.3203                 2.1320
 Frc consts  --      3.0065                 2.7784                 2.7110
 IR Inten    --     77.9478                80.2840                30.4244

                     67                     68                     69
                      A                      A                      A
 Frequencies --   1518.8809              1522.1963              1534.1495
 Red. masses --      1.0932                 2.6482                 1.1127
 Frc consts  --      1.4859                 3.6153                 1.5430
 IR Inten    --      3.5228                 7.4158                 2.9815

                     70                     71                     72
                      A                      A                      A
 Frequencies --   1564.1455              1617.3829              1641.5489
 Red. masses --      8.0791                 8.1139                 6.9215
 Frc consts  --     11.6457                12.5057                10.9890
 IR Inten    --     13.9300                87.8836                47.5756

                     73                     74                     75
                      A                      A                      A
 Frequencies --   1647.4730              1658.0610              3085.4663
 Red. masses --      5.5958                 5.5713                 1.0581
 Frc consts  --      8.9485                 9.0242                 5.9351
 IR Inten    --     18.1778                 0.5197                23.3993

                     76                     77                     78
                      A                      A                      A
 Frequencies --   3093.2578              3111.6904              3129.9284
 Red. masses --      1.0599                 1.0860                 1.0881
 Frc consts  --      5.9750                 6.1955                 6.2803
 IR Inten    --     17.3638                 7.2601                45.0275

                     79                     80                     81
                      A                      A                      A
 Frequencies --   3136.3032              3140.4236              3144.1842
 Red. masses --      1.0900                 1.1075                 1.1077
 Frc consts  --      6.3168                 6.4355                 6.4517
 IR Inten    --     12.2696                21.9605                21.5518

                     82                     83                     84
                      A                      A                      A
 Frequencies --   3175.4530              3198.7054              3208.8957
 Red. masses --      1.0893                 1.0889                 1.0862
 Frc consts  --      6.4715                 6.5645                 6.5899
 IR Inten    --     25.3508                10.8079                 7.7352

                     85                     86                     87
                      A                      A                      A
 Frequencies --   3217.1912              3232.8814              3239.8469
 Red. masses --      1.0960                 1.1056                 1.0936
 Frc consts  --      6.6838                 6.8078                 6.7630
 IR Inten    --     23.6927                23.6830                 1.2915

 - Thermochemistry -
 -------------------
 Temperature   298.150 Kelvin.  Pressure   1.00000 Atm.
 Atom     1 has atomic number  6 and mass  12.00000

 Molecular mass:   239.10586 amu.
 Principal axes and moments of inertia in atomic units:
                           1         2         3
     Eigenvalues --  1411.165848867.525239730.31514
           X            1.00000  -0.00247  -0.00120
           Y            0.00245   0.99995  -0.01000
           Z            0.00122   0.00999   0.99995
 This molecule is an asymmetric top.
 Rotational symmetry number  1.
 Warning -- assumption of classical behavior for rotation
           may cause significant error
 Rotational temperatures (Kelvin)      0.06138     0.00977     0.00890
 Rotational constants (GHZ):           1.27890     0.20352     0.18548
 Zero-point vibrational energy     657408.7 (Joules/Mol)
                                  157.12444 (Kcal/Mol)
 Warning -- explicit consideration of  17 degrees of freedom as
           vibrations may cause significant error
 Vibrational temperatures:     28.72    56.13    86.34   109.82   172.39
          (Kelvin)            203.93   324.50   362.75   449.68   526.70
                              545.88   562.39   596.55   693.83   721.64
                              739.68   744.58   913.97   971.54  1013.89
                             1033.21  1056.09  1090.46  1096.27  1121.24
                             1143.55  1182.09  1191.05  1259.97  1283.77
                             1318.74  1324.89  1331.23  1334.22  1364.99
                             1384.26  1389.96  1414.09  1438.74  1453.04
                             1458.01  1460.79  1480.93  1516.83  1539.01
                             1557.58  1614.44  1630.16  1654.28  1696.68
                             1705.79  1708.97  1721.75  1765.43  1775.11
                             1840.59  1872.88  1887.68  1896.40  1901.91
                             1905.00  1923.96  1987.50  2000.70  2051.16
                             2113.68  2185.33  2190.10  2207.30  2250.46
                             2327.05  2361.82  2370.35  2385.58  4439.30
                             4450.51  4477.03  4503.27  4512.44  4518.37
                             4523.78  4568.77  4602.22  4616.89  4628.82
                             4651.40  4661.42

 Zero-point correction=                           0.250394 (Hartree/Particle)
 Thermal correction to Energy=                    0.263625
 Thermal correction to Enthalpy=                  0.264569
 Thermal correction to Gibbs Free Energy=         0.208087
 Sum of electronic and zero-point Energies=           -780.538905
 Sum of electronic and thermal Energies=              -780.525674
 Sum of electronic and thermal Enthalpies=            -780.524730
 Sum of electronic and thermal Free Energies=         -780.581211

                     E (Thermal)             CV                S
                      KCal/Mol        Cal/Mol-Kelvin    Cal/Mol-Kelvin
 Total                  165.427             53.248            118.875
 Electronic               0.000              0.000              0.000
 Translational            0.889              2.981             42.316
 Rotational               0.889              2.981             33.165
 Vibrational            163.649             47.287             43.393
 Vibration     1          0.593              1.986              6.638
 Vibration     2          0.594              1.981              5.309
 Vibration     3          0.597              1.973              4.457
 Vibration     4          0.599              1.965              3.983
 Vibration     5          0.609              1.933              3.103
 Vibration     6          0.615              1.912              2.780
 Vibration     7          0.650              1.802              1.914
 Vibration     8          0.664              1.759              1.716
 Vibration     9          0.701              1.650              1.349
 Vibration    10          0.739              1.542              1.096
 Vibration    11          0.749              1.514              1.042
 Vibration    12          0.759              1.490              0.997
 Vibration    13          0.778              1.438              0.910
 Vibration    14          0.838              1.289              0.704
 Vibration    15          0.857              1.247              0.654
 Vibration    16          0.869              1.219              0.624
 Vibration    17          0.873              1.211              0.616

                           ! Non-Optimized Parameters !
 Normal termination of Gaussian 16 at Fri Dec 11 21:20:22 2020.

 ----------------------------------------------------------------------
 # B3LYP/6-311++G(d,p) empiricaldispersion=gd3bj scf=xqc pop=npa geom=c
 heck
 ----------------------------------------------------------------------

 ---------------------------------------
 CID_128790544_JID_8787_Energie_neutraal
 ---------------------------------------
 Structure from the checkpoint file:  "JID_8787.chk"
 Charge =  0 Multiplicity = 1

 SCF Done:  E(RB3LYP) =  -780.985935512     A.U. after   16 cycles
 Normal termination of Gaussian 16 at Fri Dec 11 21:26:00 2020.

 ----------------------------------------------------------------------
 # B3LYP/6-311++G(d,p) empiricaldispersion=gd3bj scf=xqc pop=npa geom=c
 heck
 ----------------------------------------------------------------------

 -------------------------------------
 CID_128790544_JID_8787_Energie_kation
 -------------------------------------
 Structure from the checkpoint file:  "JID_8787.chk"
 Charge =  1 Multiplicity = 2

 SCF Done:  E(UB3LYP) =  -780.675187907     A.U. after   28 cycles
 Normal termination of Gaussian 16 at Fri Dec 11 21:39:25 2020.
 Gaussian 16:  ES64L-G16RevA.03 25-Dec-2016

 ----------------------------------------------------------------------
 # B3LYP/6-311++G(d,p) empiricaldispersion=gd3bj scf=xqc pop=npa geom=c
 heck
 ----------------------------------------------------------------------

 ------------------------------------
 CID_128790544_JID_8787_Energie_anion
 ------------------------------------
 Structure from the checkpoint file:  "JID_8787.chk"
 Charge = -1 Multiplicity = 2

                         Standard orientation:
 ---------------------------------------------------------------------
 Center     Atomic      Atomic             Coordinates (Angstroms)
 Number     Number       Type             X           Y           Z
 ---------------------------------------------------------------------
      1          6           0        2.728653    1.156316    1.059559
      2          6           0        3.510524    1.469291   -0.236895
      3          6           0        2.653772    0.675040   -1.278341
      4          6           0        2.264032   -0.619338   -0.498404
      5          6           0        2.925659   -0.368773    0.926304
      6          6           0        4.424325   -0.442098    0.686777
      7          6           0        4.772911    0.652420   -0.003140
      8          6           0        0.794586   -0.814883   -0.376908
      9          7           0       -0.161864    0.068842   -0.337570
     10          6           0       -1.289591   -0.705442   -0.131157
     11          7           0       -1.055521   -1.996289   -0.049101
     12          8           0        0.340821   -2.072957   -0.211947
     13          6           0       -2.632310   -0.108919   -0.019706
     14          6           0       -2.775881    1.279600   -0.130185
     15          6           0       -4.053108    1.823299   -0.021277
     16          6           0       -5.131324    0.967599    0.192355
     17          6           0       -4.879105   -0.403983    0.287979
     18          7           0       -3.663978   -0.943661    0.186526
     19          1           0        1.679365    1.465023    1.021150
     20          1           0        3.209789    1.559963    1.954596
     21          1           0        3.653123    2.520772   -0.493707
     22          1           0        3.210787    0.447178   -2.190260
     23          1           0        1.758945    1.240154   -1.550482
     24          1           0        2.683983   -1.523283   -0.945011
     25          1           0        2.520478   -1.008653    1.712051
     26          1           0        5.046339   -1.295087    0.936373
     27          1           0        5.744671    0.878676   -0.429650
     28          1           0       -1.900539    1.896144   -0.296549
     29          1           0       -4.201836    2.896232   -0.102094
     30          1           0       -6.144437    1.346564    0.283582
     31          1           0       -5.696555   -1.103054    0.454807
 ---------------------------------------------------------------------

 SCF Done:  E(UB3LYP) =  -780.993869433     A.U. after   33 cycles
 SCF Done:  E(UB3LYP) =  -780.993869433     a.u. after    1 cycles

 The electronic state is 2-A.
 Alpha  occ. eigenvalues --  -19.06428 -14.19668 -14.18155 -14.15110 -10.13352
 Alpha  occ. eigenvalues --  -10.09283 -10.09133 -10.09068 -10.08134 -10.08050
 Alpha  occ. eigenvalues --  -10.07845 -10.07707 -10.07385 -10.06697 -10.05986
 Alpha  occ. eigenvalues --  -10.04423 -10.03944 -10.03268  -1.01489  -0.80609
 Alpha  occ. eigenvalues --   -0.79950  -0.78712  -0.72755  -0.66343  -0.65725
 Alpha  occ. eigenvalues --   -0.63323  -0.62497  -0.61089  -0.52783  -0.52015
 Alpha  occ. eigenvalues --   -0.49084  -0.47690  -0.46187  -0.44728  -0.43069
 Alpha  occ. eigenvalues --   -0.42741  -0.39929  -0.38807  -0.36228  -0.34965
 Alpha  occ. eigenvalues --   -0.34071  -0.32825  -0.31552  -0.31192  -0.29405
 Alpha  occ. eigenvalues --   -0.28189  -0.26839  -0.26575  -0.26411  -0.26172
 Alpha  occ. eigenvalues --   -0.25669  -0.25199  -0.24288  -0.23068  -0.22393
 Alpha  occ. eigenvalues --   -0.20067  -0.19364  -0.17077  -0.15713  -0.15529
 Alpha  occ. eigenvalues --   -0.14535  -0.11509  -0.11200   0.04307
 Alpha virt. eigenvalues --    0.05616   0.07694   0.07918   0.08115   0.08569
 Alpha virt. eigenvalues --    0.09036   0.10037   0.10213   0.10840   0.11014
 Alpha virt. eigenvalues --    0.11344   0.11507   0.12500   0.12796   0.13357

  Beta  occ. eigenvalues --  -19.06187 -14.19137 -14.18212 -14.14782 -10.13278
  Beta  occ. eigenvalues --  -10.09290 -10.09121 -10.09066 -10.08124 -10.08034
  Beta  occ. eigenvalues --  -10.07789 -10.07703 -10.07380 -10.06777 -10.05772
  Beta  occ. eigenvalues --  -10.04288 -10.03981 -10.03042  -1.01056  -0.80308
  Beta  occ. eigenvalues --   -0.79803  -0.78512  -0.72217  -0.66006  -0.65520
  Beta  occ. eigenvalues --   -0.63253  -0.62135  -0.61047  -0.52633  -0.51476
  Beta  occ. eigenvalues --   -0.49015  -0.47635  -0.45987  -0.44538  -0.43031
  Beta  occ. eigenvalues --   -0.42680  -0.39815  -0.38720  -0.36112  -0.34117
  Beta  occ. eigenvalues --   -0.33884  -0.32655  -0.31397  -0.31131  -0.29304
  Beta  occ. eigenvalues --   -0.28048  -0.26614  -0.26340  -0.26170  -0.25756
  Beta  occ. eigenvalues --   -0.25475  -0.25062  -0.24136  -0.22900  -0.22337
  Beta  occ. eigenvalues --   -0.19252  -0.19059  -0.16442  -0.15301  -0.14530
  Beta  occ. eigenvalues --   -0.13632  -0.10792  -0.09797
  Beta virt. eigenvalues --    0.05940   0.07693   0.07980   0.08197   0.08538
  Beta virt. eigenvalues --    0.09073   0.09856   0.10013   0.10192   0.11054
  Beta virt. eigenvalues --    0.11257   0.11394   0.11715   0.12697   0.12991

 Mulliken charges and spin densities:
               1          2
     1  C   -0.568085  -0.218352
     2  C    0.335074  -0.005343
     3  C   -0.623375  -0.197951
     4  C   -0.198642   0.031947
     5  C    0.283980   0.150382
     6  C   -0.185714  -0.365670
     7  C   -0.251692   0.000967
     8  C   -0.112537   0.088471
     9  N    0.020035  -0.031077
    10  C    0.415681   0.000663
    11  N   -0.461809   0.254570
    12  O    0.203896   0.050127
    13  C   -0.524932   0.126582
    14  C    0.145436  -0.014384
    15  C   -0.781978   0.100340
    16  C   -0.076724   0.197482
    17  C   -0.111723  -0.054936
    18  N   -0.000433   0.158730
    19  H    0.215360  -0.040209
    20  H    0.079883   0.059940
    21  H    0.116539   0.103898
    22  H    0.033667   0.097834
    23  H    0.227279  -0.030578
    24  H    0.243495   0.036748
    25  H    0.268841   0.003415
    26  H    0.047098   0.081950
    27  H   -0.274270   0.420770
    28  H    0.148937   0.013577
    29  H    0.126217  -0.009567
    30  H    0.114734  -0.013864
    31  H    0.145763   0.003539
 Sum of Mulliken charges =  -1.00000   1.00000

 Dipole moment (field-independent basis, Debye):
    X=              5.5368    Y=              3.2879    Z=              0.1678  Tot=              6.4416
 Quadrupole moment (field-independent basis, Debye-Ang):
   XX=           -173.6676   YY=           -127.6722   ZZ=           -116.3872
   XY=             -8.8278   XZ=              2.1812   YZ=             -0.3422

 Summary of Natural Population Analysis:

                                       Natural Population
                Natural  -----------------------------------------------
    Atom  No    Charge         Core      Valence    Rydberg      Total
 -----------------------------------------------------------------------
      C    1   -0.18456      0.99963     2.17680    0.00813     3.18456
      C    2   -0.13039      0.99961     2.11855    0.01224     3.13039
      C    3   -0.18474      0.99963     2.17519    0.00992     3.18474
      C    4   -0.13630      0.99955     2.12413    0.01262     3.13630
      C    5   -0.11788      0.99960     2.10589    0.01240     3.11788
      C    6   -0.09908      0.99953     2.08845    0.01110     3.09908
      C    7   -0.09432      0.99953     2.08416    0.01063     3.09432
      C    8    0.28419      0.99958     1.69673    0.01950     2.71581
      N    9   -0.28662      0.99967     2.78010    0.00685     3.78662
      C   10    0.14997      0.99963     1.83206    0.01835     2.85003
      N   11    0.00113      0.99968     2.48771    0.01149     3.49887
      O   12   -0.16156      0.99985     3.15175    0.00995     4.16156
      C   13    0.11355      0.99939     1.87319    0.01387     2.88645
      C   14   -0.11440      0.99945     2.10682    0.00812     3.11440
      C   15   -0.07802      0.99960     2.06833    0.01009     3.07802
      C   16   -0.09543      0.99957     2.08674    0.00913     3.09543
      C   17    0.00318      0.99961     1.98144    0.01577     2.99682
      N   18   -0.17690      0.99968     2.66654    0.01068     3.67690
      H   19    0.11177      0.00000     0.38690    0.00133     0.38823
      H   20    0.09903      0.00000     0.40007    0.00091     0.40097
      H   21    0.10234      0.00000     0.39684    0.00082     0.39766
      H   22    0.09891      0.00000     0.40030    0.00078     0.40109
      H   23    0.11325      0.00000     0.38553    0.00122     0.38675
      H   24    0.11083      0.00000     0.38758    0.00158     0.38917
      H   25    0.10887      0.00000     0.39030    0.00083     0.39113
      H   26    0.10019      0.00000     0.39895    0.00086     0.39981
      H   27    0.09977      0.00000     0.39918    0.00105     0.40023
      H   28    0.10524      0.00000     0.39308    0.00169     0.39476
      H   29    0.08921      0.00000     0.40962    0.00117     0.41079
      H   30    0.08943      0.00000     0.40931    0.00125     0.41057
      H   31    0.07938      0.00000     0.41927    0.00136     0.42062
 =======================================================================
   * Total *    0.00006     17.99277    44.78149    0.22568    62.99994

 Normal termination of Gaussian 16 at Fri Dec 11 21:56:11 2020.
