 Gaussian 16, Revision A.03,

 -----------------------------------------------------------
 # opt freq B3LYP/6-31G(d) empiricaldispersion=gd3bj scf=xqc
 -----------------------------------------------------------

 -------------------------------
 CID_145319535_JID_1896_neutraal
 -------------------------------
 Symbolic Z-matrix:
 Charge =  0 Multiplicity = 1

 SCF Done:  E(RB3LYP) =  -842.060125701     A.U. after   14 cycles
 SCF Done:  E(RB3LYP) =  -842.062073052     A.U. after   13 cycles
 SCF Done:  E(RB3LYP) =  -842.060409948     A.U. after   12 cycles
 SCF Done:  E(RB3LYP) =  -842.062230193     A.U. after   12 cycles
 SCF Done:  E(RB3LYP) =  -842.063994642     A.U. after   10 cycles
 SCF Done:  E(RB3LYP) =  -842.064533754     A.U. after   12 cycles
 SCF Done:  E(RB3LYP) =  -842.063618689     A.U. after   12 cycles
 SCF Done:  E(RB3LYP) =  -842.064825754     A.U. after   11 cycles
 SCF Done:  E(RB3LYP) =  -842.064969619     A.U. after   10 cycles
 SCF Done:  E(RB3LYP) =  -842.064986055     A.U. after   10 cycles
 SCF Done:  E(RB3LYP) =  -842.065018716     A.U. after    8 cycles
 SCF Done:  E(RB3LYP) =  -842.065019280     A.U. after    8 cycles
 SCF Done:  E(RB3LYP) =  -842.065019731     A.U. after    8 cycles
 SCF Done:  E(RB3LYP) =  -842.065019907     A.U. after    8 cycles
 SCF Done:  E(RB3LYP) =  -842.065019930     A.U. after    7 cycles
 Optimization completed.
    -- Stationary point found.
 Normal termination of Gaussian 16 at Tue Dec  8 20:56:02 2020.

 --------------------------------------------------------------------
 #N Geom=AllCheck Guess=TCheck SCRF=Check GenChk RB3LYP/6-31G(d) Freq
 --------------------------------------------------------------------

 Structure from the checkpoint file:  "JID_1896.chk"
 -------------------------------
 CID_145319535_JID_1896_neutraal
 -------------------------------
 Charge =  0 Multiplicity = 1

 SCF Done:  E(RB3LYP) =  -842.065019930     A.U. after    1 cycles

  Exact polarizability: 139.296  -6.637  98.284   3.382   0.650  86.350
 Approx polarizability: 179.264 -15.115 151.018   9.542  -1.684 131.854

                      1                      2                      3
                      A                      A                      A
 Frequencies --     34.9774                53.6202                86.7891
 Red. masses --      4.5893                 3.4463                 2.9515
 Frc consts  --      0.0033                 0.0058                 0.0131
 IR Inten    --      0.4735                 0.2423                 0.1576

                      4                      5                      6
                      A                      A                      A
 Frequencies --    106.8899               148.3032               170.3276
 Red. masses --      2.3253                 2.9259                 1.2187
 Frc consts  --      0.0157                 0.0379                 0.0208
 IR Inten    --      1.8676                 0.0180                 0.9557

                      7                      8                      9
                      A                      A                      A
 Frequencies --    201.8983               210.9357               248.5153
 Red. masses --      3.0924                 1.6379                 2.4155
 Frc consts  --      0.0743                 0.0429                 0.0879
 IR Inten    --      1.1790                 1.8267                 0.4172

                     10                     11                     12
                      A                      A                      A
 Frequencies --    260.6284               278.6577               303.2752
 Red. masses --      1.1685                 2.0560                 3.4831
 Frc consts  --      0.0468                 0.0941                 0.1888
 IR Inten    --      0.0863                 0.5363                 0.4266

                     13                     14                     15
                      A                      A                      A
 Frequencies --    342.1486               354.2189               373.6799
 Red. masses --      3.4082                 2.8790                 3.2955
 Frc consts  --      0.2351                 0.2128                 0.2711
 IR Inten    --      5.4676                 1.6718                 1.4983

                     16                     17                     18
                      A                      A                      A
 Frequencies --    404.7634               520.6240               562.2862
 Red. masses --      3.2083                 3.9088                 1.9167
 Frc consts  --      0.3097                 0.6242                 0.3570
 IR Inten    --      4.5902                 1.3196                34.7931

                     19                     20                     21
                      A                      A                      A
 Frequencies --    577.4149               627.1758               720.3681
 Red. masses --      1.7607                 4.1054                 5.5802
 Frc consts  --      0.3459                 0.9514                 1.7061
 IR Inten    --     39.8897                12.6825                 0.8170

                     22                     23                     24
                      A                      A                      A
 Frequencies --    756.8712               762.8961               793.1986
 Red. masses --      2.9327                 3.3410                 1.2153
 Frc consts  --      0.9898                 1.1457                 0.4505
 IR Inten    --      7.7152                10.8880                 1.6366

                     25                     26                     27
                      A                      A                      A
 Frequencies --    836.2081               882.7059               932.3660
 Red. masses --      1.5051                 2.1802                 2.5072
 Frc consts  --      0.6201                 1.0009                 1.2842
 IR Inten    --      9.4158                 1.6154                 0.9635

                     28                     29                     30
                      A                      A                      A
 Frequencies --    960.9106               965.9070               991.3216
 Red. masses --      3.2208                 1.5045                 1.1914
 Frc consts  --      1.7522                 0.8270                 0.6898
 IR Inten    --     15.6004                 0.4516                12.7762

                     31                     32                     33
                      A                      A                      A
 Frequencies --   1000.7233              1037.8411              1047.0003
 Red. masses --      1.2661                 1.7981                 1.2964
 Frc consts  --      0.7471                 1.1411                 0.8373
 IR Inten    --     17.5124                34.3798                 2.0232

                     34                     35                     36
                      A                      A                      A
 Frequencies --   1072.8032              1089.2214              1136.8569
 Red. masses --      1.3960                 1.3297                 1.1775
 Frc consts  --      0.9466                 0.9295                 0.8967
 IR Inten    --      5.3168                 2.0453                 4.5376

                     37                     38                     39
                      A                      A                      A
 Frequencies --   1174.9049              1184.1404              1206.8711
 Red. masses --      2.2619                 2.8666                 1.8098
 Frc consts  --      1.8396                 2.3682                 1.5531
 IR Inten    --     99.3389                19.1879                 6.2961

                     40                     41                     42
                      A                      A                      A
 Frequencies --   1211.7408              1227.6413              1260.6904
 Red. masses --      1.5515                 2.5733                 2.0590
 Frc consts  --      1.3422                 2.2850                 1.9281
 IR Inten    --      6.6654                 3.0862                 8.1231

                     43                     44                     45
                      A                      A                      A
 Frequencies --   1361.0613              1371.6041              1399.4495
 Red. masses --      2.5730                 1.3296                 1.3529
 Frc consts  --      2.8083                 1.4737                 1.5611
 IR Inten    --    182.6496                22.0134                13.6716

                     46                     47                     48
                      A                      A                      A
 Frequencies --   1427.8036              1450.1088              1482.8051
 Red. masses --      1.2038                 1.2222                 1.3416
 Frc consts  --      1.4459                 1.5143                 1.7380
 IR Inten    --      6.7140                13.4452                21.9646

                     49                     50                     51
                      A                      A                      A
 Frequencies --   1490.3730              1494.0341              1515.4799
 Red. masses --      1.2509                 1.0616                 1.0496
 Frc consts  --      1.6370                 1.3961                 1.4202
 IR Inten    --      7.9918                 8.6350                 1.3050

                     52                     53                     54
                      A                      A                      A
 Frequencies --   1520.2659              1526.7521              1529.5329
 Red. masses --      1.0584                 1.2281                 1.0839
 Frc consts  --      1.4412                 1.6866                 1.4940
 IR Inten    --      3.3263                 1.7610                17.1606

                     55                     56                     57
                      A                      A                      A
 Frequencies --   1536.0208              1540.5187              1764.3770
 Red. masses --      1.1084                 1.0566                 8.2498
 Frc consts  --      1.5408                 1.4774                15.1314
 IR Inten    --     10.2075                16.1513               250.9560

                     58                     59                     60
                      A                      A                      A
 Frequencies --   3063.9465              3069.3276              3072.1462
 Red. masses --      1.0343                 1.0325                 1.0385
 Frc consts  --      5.7208                 5.7312                 5.7750
 IR Inten    --     17.9133                33.4656                12.3367

                     61                     62                     63
                      A                      A                      A
 Frequencies --   3129.5954              3134.8032              3141.3569
 Red. masses --      1.1007                 1.1031                 1.1039
 Frc consts  --      6.3516                 6.3870                 6.4184
 IR Inten    --     25.6391                17.6089                11.7508

                     64                     65                     66
                      A                      A                      A
 Frequencies --   3146.3851              3150.0701              3153.0427
 Red. masses --      1.1033                 1.0528                 1.0699
 Frc consts  --      6.4355                 6.1551                 6.2670
 IR Inten    --     14.8787                14.8295                13.3116

                     67                     68                     69
                      A                      A                      A
 Frequencies --   3157.4218              3179.0463              3193.2234
 Red. masses --      1.0763                 1.0969                 1.1045
 Frc consts  --      6.3221                 6.5316                 6.6356
 IR Inten    --     12.6395                12.3244                 0.8361

                     70                     71                     72
                      A                      A                      A
 Frequencies --   3229.9946              3245.5179              3577.3658
 Red. masses --      1.1192                 1.1163                 1.0755
 Frc consts  --      6.8795                 6.9280                 8.1091
 IR Inten    --      2.8456                13.6611                19.4799

 - Thermochemistry -
 -------------------
 Temperature   298.150 Kelvin.  Pressure   1.00000 Atm.
 Atom     1 has atomic number  6 and mass  12.00000

 Molecular mass:   173.08744 amu.
 Principal axes and moments of inertia in atomic units:
                           1         2         3
     Eigenvalues --   919.849663260.111123582.07377
           X            0.99985  -0.01153  -0.01296
           Y            0.01168   0.99986   0.01185
           Z            0.01282  -0.01200   0.99985
 This molecule is an asymmetric top.
 Rotational symmetry number  1.
 Warning -- assumption of classical behavior for rotation
           may cause significant error
 Rotational temperatures (Kelvin)      0.09416     0.02657     0.02418
 Rotational constants (GHZ):           1.96200     0.55358     0.50383
 Zero-point vibrational energy     587209.4 (Joules/Mol)
                                  140.34642 (Kcal/Mol)
 Warning -- explicit consideration of  19 degrees of freedom as
           vibrations may cause significant error
 Vibrational temperatures:     50.32    77.15   124.87   153.79   213.38
          (Kelvin)            245.06   290.49   303.49   357.56   374.99
                              400.93   436.35   492.28   509.64   537.64
                              582.36   749.06   809.00   830.77   902.37
                             1036.45  1088.97  1097.64  1141.24  1203.12
                             1270.02  1341.47  1382.54  1389.72  1426.29
                             1439.82  1493.22  1506.40  1543.52  1567.15
                             1635.68  1690.43  1703.71  1736.42  1743.42
                             1766.30  1813.85  1958.26  1973.43  2013.50
                             2054.29  2086.38  2133.43  2144.31  2149.58
                             2180.44  2187.32  2196.66  2200.66  2209.99
                             2216.46  2538.54  4408.34  4416.08  4420.13
                             4502.79  4510.28  4519.71  4526.95  4532.25
                             4536.53  4542.83  4573.94  4594.34  4647.24
                             4669.58  5147.03

 Zero-point correction=                           0.223656 (Hartree/Particle)
 Thermal correction to Energy=                    0.236938
 Thermal correction to Enthalpy=                  0.237882
 Thermal correction to Gibbs Free Energy=         0.183725
 Sum of electronic and zero-point Energies=           -841.841364
 Sum of electronic and thermal Energies=              -841.828082
 Sum of electronic and thermal Enthalpies=            -841.827138
 Sum of electronic and thermal Free Energies=         -841.881295

                     E (Thermal)             CV                S
                      KCal/Mol        Cal/Mol-Kelvin    Cal/Mol-Kelvin
 Total                  148.681             48.641            113.983
 Electronic               0.000              0.000              0.000
 Translational            0.889              2.981             41.353
 Rotational               0.889              2.981             30.753
 Vibrational            146.903             42.679             41.877
 Vibration     1          0.594              1.982              5.525
 Vibration     2          0.596              1.976              4.679
 Vibration     3          0.601              1.958              3.731
 Vibration     4          0.606              1.944              3.325
 Vibration     5          0.618              1.905              2.694
 Vibration     6          0.625              1.879              2.432
 Vibration     7          0.639              1.837              2.116
 Vibration     8          0.643              1.824              2.036
 Vibration     9          0.662              1.765              1.741
 Vibration    10          0.669              1.745              1.658
 Vibration    11          0.679              1.713              1.542
 Vibration    12          0.695              1.667              1.399
 Vibration    13          0.721              1.591              1.202
 Vibration    14          0.730              1.567              1.147
 Vibration    15          0.745              1.526              1.065
 Vibration    16          0.770              1.460              0.945
 Vibration    17          0.876              1.204              0.609
 Vibration    18          0.918              1.113              0.519
 Vibration    19          0.934              1.080              0.490

 Optimization completed.
    -- Stationary point found.
 Normal termination of Gaussian 16 at Tue Dec  8 21:03:14 2020.

 ----------------------------------------------------------------------
 # B3LYP/6-311++G(d,p) empiricaldispersion=gd3bj scf=xqc pop=npa geom=c
 heck
 ----------------------------------------------------------------------

 ---------------------------------------
 CID_145319535_JID_1896_Energie_neutraal
 ---------------------------------------
 Structure from the checkpoint file:  "JID_1896.chk"
 Charge =  0 Multiplicity = 1

 SCF Done:  E(RB3LYP) =  -842.222948332     A.U. after   14 cycles
 Normal termination of Gaussian 16 at Tue Dec  8 21:06:21 2020.

 ----------------------------------------------------------------------
 # B3LYP/6-311++G(d,p) empiricaldispersion=gd3bj scf=xqc pop=npa geom=c
 heck
 ----------------------------------------------------------------------

 -------------------------------------
 CID_145319535_JID_1896_Energie_kation
 -------------------------------------
 Structure from the checkpoint file:  "JID_1896.chk"
 Charge =  1 Multiplicity = 2

 SCF Done:  E(UB3LYP) =  -841.927075316     A.U. after   24 cycles
 Normal termination of Gaussian 16 at Tue Dec  8 21:13:33 2020.
 Gaussian 16:  ES64L-G16RevA.03 25-Dec-2016

 ----------------------------------------------------------------------
 # B3LYP/6-311++G(d,p) empiricaldispersion=gd3bj scf=xqc pop=npa geom=c
 heck
 ----------------------------------------------------------------------

 ------------------------------------
 CID_145319535_JID_1896_Energie_anion
 ------------------------------------
 Structure from the checkpoint file:  "JID_1896.chk"
 Charge = -1 Multiplicity = 2

                         Standard orientation:
 ---------------------------------------------------------------------
 Center     Atomic      Atomic             Coordinates (Angstroms)
 Number     Number       Type             X           Y           Z
 ---------------------------------------------------------------------
      1          6           0       -0.033602   -1.696530   -0.606977
      2          6           0       -0.694700   -0.504187    0.107825
      3          6           0       -0.719600   -0.727412    1.630244
      4          6           0        0.002722    0.845756   -0.196777
      5          8           0       -0.613311    1.833060   -0.577793
      6          7           0        1.356026    0.982028    0.035464
      7          6           0        2.380828    0.076057    0.469301
      8          6           0        3.164514   -0.736499   -0.538222
      9          6           0        3.797617    0.455682    0.129453
     10         16           0       -2.421359   -0.508701   -0.570705
     11          6           0       -3.284966    0.787902    0.378918
     12          1           0        0.960067   -1.899759   -0.207946
     13          1           0        0.055918   -1.511469   -1.681940
     14          1           0       -0.647956   -2.590620   -0.463383
     15          1           0        0.292318   -0.832478    2.035028
     16          1           0       -1.199332    0.107857    2.148046
     17          1           0       -1.275203   -1.641682    1.857952
     18          1           0        1.637370    1.945943   -0.101121
     19          1           0        2.227225   -0.372024    1.448363
     20          1           0        3.491931   -1.731847   -0.250653
     21          1           0        2.870309   -0.634522   -1.577841
     22          1           0        3.943073    1.349135   -0.472546
     23          1           0        4.562448    0.294689    0.882862
     24          1           0       -3.337555    0.546392    1.444147
     25          1           0       -2.798313    1.749579    0.221273
     26          1           0       -4.303145    0.816730   -0.019458
 ---------------------------------------------------------------------

 SCF Done:  E(UB3LYP) =  -842.208603486     A.U. after   33 cycles
 SCF Done:  E(UB3LYP) =  -842.208603486     a.u. after    1 cycles

 The electronic state is 2-A.
 Alpha  occ. eigenvalues --  -88.73640 -18.99161 -14.24165 -10.17978 -10.12705
 Alpha  occ. eigenvalues --  -10.11721 -10.08946 -10.07837 -10.07556 -10.07216
 Alpha  occ. eigenvalues --  -10.06870  -7.82265  -5.78685  -5.78299  -5.77596
 Alpha  occ. eigenvalues --   -0.94616  -0.83467  -0.74585  -0.73097  -0.65491
 Alpha  occ. eigenvalues --   -0.60126  -0.55330  -0.54119  -0.51944  -0.50667
 Alpha  occ. eigenvalues --   -0.44923  -0.41281  -0.39430  -0.37903  -0.35589
 Alpha  occ. eigenvalues --   -0.34743  -0.34378  -0.32499  -0.31891  -0.31791
 Alpha  occ. eigenvalues --   -0.29838  -0.28450  -0.27670  -0.27205  -0.26133
 Alpha  occ. eigenvalues --   -0.24721  -0.22383  -0.21470  -0.20428  -0.16080
 Alpha  occ. eigenvalues --   -0.15255  -0.12477   0.04785
 Alpha virt. eigenvalues --    0.06832   0.07691   0.08088   0.08738   0.09616
 Alpha virt. eigenvalues --    0.09886   0.10247   0.10788   0.11457   0.12416
 Alpha virt. eigenvalues --    0.12450   0.12671   0.13336   0.13728   0.14314

  Beta  occ. eigenvalues --  -88.73637 -18.99144 -14.24164 -10.17966 -10.12700
  Beta  occ. eigenvalues --  -10.11694 -10.08932 -10.07795 -10.07526 -10.07207
  Beta  occ. eigenvalues --  -10.06826  -7.82263  -5.78682  -5.78296  -5.77593
  Beta  occ. eigenvalues --   -0.94588  -0.83442  -0.74548  -0.73076  -0.65471
  Beta  occ. eigenvalues --   -0.60075  -0.55285  -0.54083  -0.51879  -0.50582
  Beta  occ. eigenvalues --   -0.44878  -0.41238  -0.39310  -0.37869  -0.35564
  Beta  occ. eigenvalues --   -0.34693  -0.34350  -0.32477  -0.31848  -0.31765
  Beta  occ. eigenvalues --   -0.29800  -0.28406  -0.27628  -0.27160  -0.26102
  Beta  occ. eigenvalues --   -0.24695  -0.22336  -0.21431  -0.20401  -0.16056
  Beta  occ. eigenvalues --   -0.15220  -0.12466
  Beta virt. eigenvalues --    0.07020   0.07618   0.08228   0.08807   0.09465
  Beta virt. eigenvalues --    0.09878   0.10164   0.10670   0.11391   0.11912
  Beta virt. eigenvalues --    0.12628   0.12667   0.12948   0.13664   0.13884

 Mulliken charges and spin densities:
               1          2
     1  C   -0.128994  -0.505261
     2  C    0.065052   1.123261
     3  C    0.901679  -1.566031
     4  C    0.072427  -0.536934
     5  O   -0.320359   0.006394
     6  N   -0.171742   0.005526
     7  C   -2.131367   2.112039
     8  C    0.209289  -0.529788
     9  C    2.986404  -3.506945
    10  S   -0.232168   0.099353
    11  C   -0.277328  -0.325265
    12  H   -0.131625   0.319894
    13  H    0.134467   0.035344
    14  H   -0.036378   0.191806
    15  H   -0.784767   0.899572
    16  H   -0.092850   0.263650
    17  H   -0.212190   0.396157
    18  H    0.267724   0.032983
    19  H   -0.092964   0.337102
    20  H   -0.369101   0.527743
    21  H    0.055697   0.100672
    22  H   -0.039490   0.156244
    23  H   -0.843688   1.033131
    24  H   -0.052175   0.202144
    25  H    0.168360   0.044381
    26  H    0.056086   0.082828
 Sum of Mulliken charges =  -1.00000   1.00000

 Dipole moment (field-independent basis, Debye):
    X=             -6.4933    Y=              2.5569    Z=             -4.5486  Tot=              8.3301
 Quadrupole moment (field-independent basis, Debye-Ang):
   XX=           -153.4769   YY=           -110.9248   ZZ=           -115.2252
   XY=              9.0282   XZ=            -12.6111   YZ=              8.0422

 Summary of Natural Population Analysis:

                                       Natural Population
                Natural  -----------------------------------------------
    Atom  No    Charge         Core      Valence    Rydberg      Total
 -----------------------------------------------------------------------
      C    1   -0.29207      0.99961     2.28455    0.00791     3.29207
      C    2   -0.12880      0.99954     2.11338    0.01588     3.12880
      C    3   -0.28855      0.99960     2.28031    0.00863     3.28855
      C    4    0.35095      0.99959     1.62464    0.02482     2.64905
      O    5   -0.32519      0.99988     3.31941    0.00591     4.32519
      N    6   -0.31954      0.99965     2.80912    0.01077     3.81954
      C    7   -0.03071      0.99956     2.01668    0.01447     3.03071
      C    8   -0.20062      0.99962     2.19091    0.01010     3.20062
      C    9   -0.19227      0.99962     2.18213    0.01052     3.19227
      S   10    0.09882      4.99960     2.88507    0.01651     7.90118
      C   11   -0.35447      0.99961     2.34930    0.00556     3.35447
      H   12    0.11262      0.00000     0.38575    0.00162     0.38738
      H   13    0.10315      0.00000     0.39576    0.00108     0.39685
      H   14    0.10571      0.00000     0.39302    0.00127     0.39429
      H   15    0.10680      0.00000     0.39093    0.00227     0.39320
      H   16    0.10318      0.00000     0.39529    0.00154     0.39682
      H   17    0.10623      0.00000     0.39201    0.00176     0.39377
      H   18    0.19379      0.00000     0.30348    0.00273     0.30621
      H   19    0.10712      0.00000     0.38822    0.00466     0.39288
      H   20    0.11046      0.00000     0.38657    0.00297     0.38954
      H   21    0.10311      0.00000     0.39579    0.00110     0.39689
      H   22    0.09965      0.00000     0.39911    0.00124     0.40035
      H   23    0.11343      0.00000     0.38152    0.00505     0.38657
      H   24    0.09894      0.00000     0.39933    0.00173     0.40106
      H   25    0.11591      0.00000     0.38243    0.00166     0.38409
      H   26    0.10235      0.00000     0.39659    0.00107     0.39765
 =======================================================================
   * Total *    0.00000     14.99588    31.84129    0.16283    47.00000

 Normal termination of Gaussian 16 at Tue Dec  8 21:23:33 2020.
