 Gaussian 16, Revision A.03,

 -----------------------------------------------------------
 # opt freq B3LYP/6-31G(d) empiricaldispersion=gd3bj scf=xqc
 -----------------------------------------------------------

 -------------------------------
 CID_130480773_JID_4754_neutraal
 -------------------------------
 Symbolic Z-matrix:
 Charge =  0 Multiplicity = 1

 SCF Done:  E(RB3LYP) =  -623.353159122     A.U. after   14 cycles
 SCF Done:  E(RB3LYP) =  -623.356799850     A.U. after   12 cycles
 SCF Done:  E(RB3LYP) =  -623.357393043     A.U. after   12 cycles
 SCF Done:  E(RB3LYP) =  -623.357730907     A.U. after   11 cycles
 SCF Done:  E(RB3LYP) =  -623.357777112     A.U. after   12 cycles
 SCF Done:  E(RB3LYP) =  -623.357815741     A.U. after   10 cycles
 SCF Done:  E(RB3LYP) =  -623.357821179     A.U. after    9 cycles
 SCF Done:  E(RB3LYP) =  -623.357822874     A.U. after    8 cycles
 SCF Done:  E(RB3LYP) =  -623.357823569     A.U. after    8 cycles
 SCF Done:  E(RB3LYP) =  -623.357823820     A.U. after    7 cycles
 SCF Done:  E(RB3LYP) =  -623.357823962     A.U. after    8 cycles
 SCF Done:  E(RB3LYP) =  -623.357824050     A.U. after    8 cycles
 SCF Done:  E(RB3LYP) =  -623.357824134     A.U. after    8 cycles
 SCF Done:  E(RB3LYP) =  -623.357824197     A.U. after    7 cycles
 SCF Done:  E(RB3LYP) =  -623.357824230     A.U. after    7 cycles
 Optimization completed.
    -- Stationary point found.

 1\1\GINC-NODE112\FOpt\RB3LYP\6-31G(d)\C9H11N5\VSC10255\10-Dec-2020\0\\
 # opt freq B3LYP/6-31G(d) empiricaldispersion=gd3bj scf=xqc\\CID_13048
 0773_JID_4754_neutraal\\0,1\C,0.6523926889,1.2288821216,0.0194144019\C
 ,1.3514813125,0.0379569934,0.1987384031\C,0.6743257786,-1.1829670285,0
 .1791966255\C,-0.7186514068,-1.1446921838,-0.028775072\N,-1.3966630595
 ,-0.0009316759,-0.2056834173\C,-0.7240280409,1.1546492703,-0.176995066
 5\C,-1.5741659912,-2.3929363402,-0.0659058271\N,-2.1628340832,-2.68708
 80678,1.2367809064\C,-2.4512533461,-1.8650464242,2.2682223427\N,-2.968

 Normal termination of Gaussian 16 at Thu Dec 10 10:35:10 2020.

 --------------------------------------------------------------------
 #N Geom=AllCheck Guess=TCheck SCRF=Check GenChk RB3LYP/6-31G(d) Freq
 --------------------------------------------------------------------

 Structure from the checkpoint file:  "JID_4754.chk"
 -------------------------------
 CID_130480773_JID_4754_neutraal
 -------------------------------
 Charge =  0 Multiplicity = 1

 SCF Done:  E(RB3LYP) =  -623.357824231     A.U. after    1 cycles

  Exact polarizability: 146.849 -13.760 115.616  -9.555   4.692  84.421
 Approx polarizability: 209.541 -20.824 190.429 -22.152  12.850 147.874

                      1                      2                      3
                      A                      A                      A
 Frequencies --     29.4954                41.8111                61.7479
 Red. masses --      5.7013                 4.4066                 4.4723
 Frc consts  --      0.0029                 0.0045                 0.0100
 IR Inten    --      0.7043                 1.7349                 1.0185

                      4                      5                      6
                      A                      A                      A
 Frequencies --     89.7780               142.0110               196.0188
 Red. masses --      3.5645                 3.6337                 5.3866
 Frc consts  --      0.0169                 0.0432                 0.1219
 IR Inten    --      0.2572                 0.0658                 0.6698

                      7                      8                      9
                      A                      A                      A
 Frequencies --    235.5202               262.7844               293.2123
 Red. masses --      2.5985                 1.5782                 3.6499
 Frc consts  --      0.0849                 0.0642                 0.1849
 IR Inten    --     10.8414                24.2449                 4.1935

                     10                     11                     12
                      A                      A                      A
 Frequencies --    318.7515               373.1258               426.3717
 Red. masses --      2.6153                 2.8915                 2.7153
 Frc consts  --      0.1566                 0.2372                 0.2908
 IR Inten    --      4.4134                 4.0897                 8.5910

                     13                     14                     15
                      A                      A                      A
 Frequencies --    499.8428               511.4513               612.5482
 Red. masses --      4.8039                 3.8532                 4.0677
 Frc consts  --      0.7072                 0.5939                 0.8992
 IR Inten    --      3.0322                 0.8623                 3.2760

                     16                     17                     18
                      A                      A                      A
 Frequencies --    630.0942               652.0000               696.2042
 Red. masses --      5.8046                 4.8619                 3.5342
 Frc consts  --      1.3578                 1.2177                 1.0093
 IR Inten    --     10.1535                 5.1516                22.9897

                     19                     20                     21
                      A                      A                      A
 Frequencies --    725.3789               759.5232               810.6563
 Red. masses --      3.6696                 3.7585                 1.4119
 Frc consts  --      1.1376                 1.2774                 0.5467
 IR Inten    --     16.4670                15.6937                74.2049

                     22                     23                     24
                      A                      A                      A
 Frequencies --    829.7432               843.1034               844.1448
 Red. masses --      3.3192                 1.4282                 1.4285
 Frc consts  --      1.3464                 0.5981                 0.5998
 IR Inten    --      5.0715                61.2552                 5.4036

                     25                     26                     27
                      A                      A                      A
 Frequencies --    883.3498               892.2373               965.9487
 Red. masses --      1.3925                 4.0766                 1.3843
 Frc consts  --      0.6402                 1.9121                 0.7610
 IR Inten    --      3.6267                 9.9871                 1.4504

                     28                     29                     30
                      A                      A                      A
 Frequencies --    969.9055               979.3926               994.0409
 Red. masses --      1.9476                 5.1268                 1.3821
 Frc consts  --      1.0795                 2.8974                 0.8046
 IR Inten    --      1.1128                12.5405                 2.8953

                     31                     32                     33
                      A                      A                      A
 Frequencies --   1000.1715              1044.5016              1070.1048
 Red. masses --      1.7427                 4.9274                 3.1647
 Frc consts  --      1.0271                 3.1673                 2.1352
 IR Inten    --     22.9045                32.1973                 4.6815

                     34                     35                     36
                      A                      A                      A
 Frequencies --   1104.9781              1144.1839              1171.7784
 Red. masses --      2.3710                 1.7412                 1.9649
 Frc consts  --      1.7057                 1.3431                 1.5896
 IR Inten    --      2.9473                 2.4678                26.5209

                     37                     38                     39
                      A                      A                      A
 Frequencies --   1178.1767              1198.5911              1224.3689
 Red. masses --      1.2940                 1.4442                 2.9522
 Frc consts  --      1.0583                 1.2224                 2.6075
 IR Inten    --      3.1649                 1.5004                 0.8148

                     40                     41                     42
                      A                      A                      A
 Frequencies --   1234.8874              1265.7407              1291.8636
 Red. masses --      1.5426                 2.1181                 2.1086
 Frc consts  --      1.3860                 1.9994                 2.0733
 IR Inten    --     26.7057                 1.2261                 1.2373

                     43                     44                     45
                      A                      A                      A
 Frequencies --   1295.7112              1319.8766              1337.2617
 Red. masses --      2.2532                 3.5066                 1.2730
 Frc consts  --      2.2288                 3.5991                 1.3413
 IR Inten    --      0.5619                37.4584                 2.2011

                     46                     47                     48
                      A                      A                      A
 Frequencies --   1342.3651              1385.8413              1396.9580
 Red. masses --      2.0090                 3.2042                 2.8173
 Frc consts  --      2.1329                 3.6257                 3.2393
 IR Inten    --      5.3708                11.8932                21.8586

                     49                     50                     51
                      A                      A                      A
 Frequencies --   1440.2482              1481.5454              1498.8906
 Red. masses --      1.4588                 2.3246                 2.7090
 Frc consts  --      1.7829                 3.0063                 3.5859
 IR Inten    --     16.1586                 9.9932                26.9388

                     52                     53                     54
                      A                      A                      A
 Frequencies --   1504.2079              1517.6527              1543.6575
 Red. masses --      2.2721                 1.3252                 1.0869
 Frc consts  --      3.0290                 1.7984                 1.5259
 IR Inten    --      3.4907                 5.9930                 0.9354

                     55                     56                     57
                      A                      A                      A
 Frequencies --   1557.7594              1630.5057              1649.3777
 Red. masses --      3.7049                 5.7214                 5.8545
 Frc consts  --      5.2969                 8.9618                 9.3839
 IR Inten    --     46.7883                26.8728                11.0479

                     58                     59                     60
                      A                      A                      A
 Frequencies --   1694.5050              2964.5081              3050.2797
 Red. masses --      1.1010                 1.0732                 1.0879
 Frc consts  --      1.8626                 5.5571                 5.9639
 IR Inten    --     25.3579                87.1921                23.5039

                     61                     62                     63
                      A                      A                      A
 Frequencies --   3087.8830              3174.9050              3179.8839
 Red. masses --      1.0672                 1.0972                 1.0886
 Frc consts  --      5.9953                 6.5165                 6.4856
 IR Inten    --     19.7221                 5.0518                13.0235

                     64                     65                     66
                      A                      A                      A
 Frequencies --   3186.5772              3216.4391              3271.7370
 Red. masses --      1.0904                 1.0963                 1.0963
 Frc consts  --      6.5233                 6.6822                 6.9142
 IR Inten    --     18.5307                20.5815                11.1655

                     67                     68                     69
                      A                      A                      A
 Frequencies --   3296.8839              3485.9312              3576.6224
 Red. masses --      1.0981                 1.0492                 1.0942
 Frc consts  --      7.0320                 7.5121                 8.2466
 IR Inten    --      0.1374                 0.3319                 0.5390

 - Thermochemistry -
 -------------------
 Temperature   298.150 Kelvin.  Pressure   1.00000 Atm.
 Atom     1 has atomic number  6 and mass  12.00000

 Molecular mass:   189.10145 amu.
 Principal axes and moments of inertia in atomic units:
                           1         2         3
     Eigenvalues --  1415.420483481.448254217.21729
           X            0.99997  -0.00306  -0.00778
           Y            0.00303   0.99999  -0.00384
           Z            0.00780   0.00381   0.99996
 This molecule is an asymmetric top.
 Rotational symmetry number  1.
 Warning -- assumption of classical behavior for rotation
           may cause significant error
 Rotational temperatures (Kelvin)      0.06119     0.02488     0.02054
 Rotational constants (GHZ):           1.27506     0.51839     0.42795
 Zero-point vibrational energy     535852.6 (Joules/Mol)
                                  128.07184 (Kcal/Mol)
 Warning -- explicit consideration of  15 degrees of freedom as
           vibrations may cause significant error
 Vibrational temperatures:     42.44    60.16    88.84   129.17   204.32
          (Kelvin)            282.03   338.86   378.09   421.87   458.61
                              536.84   613.45   719.16   735.86   881.32
                              906.56   938.08  1001.68  1043.66  1092.78
                             1166.35  1193.82  1213.04  1214.54  1270.94
                             1283.73  1389.78  1395.48  1409.13  1430.20
                             1439.02  1502.80  1539.64  1589.82  1646.23
                             1685.93  1695.13  1724.51  1761.59  1776.73
                             1821.12  1858.70  1864.24  1899.01  1924.02
                             1931.36  1993.92  2009.91  2072.20  2131.61
                             2156.57  2164.22  2183.56  2220.98  2241.27
                             2345.93  2373.09  2438.01  4265.27  4388.67
                             4442.77  4567.98  4575.14  4584.77  4627.74
                             4707.30  4743.48  5015.48  5145.96

 Zero-point correction=                           0.204095 (Hartree/Particle)
 Thermal correction to Energy=                    0.215950
 Thermal correction to Enthalpy=                  0.216894
 Thermal correction to Gibbs Free Energy=         0.164215
 Sum of electronic and zero-point Energies=           -623.153729
 Sum of electronic and thermal Energies=              -623.141874
 Sum of electronic and thermal Enthalpies=            -623.140930
 Sum of electronic and thermal Free Energies=         -623.193609

                     E (Thermal)             CV                S
                      KCal/Mol        Cal/Mol-Kelvin    Cal/Mol-Kelvin
 Total                  135.511             44.445            110.871
 Electronic               0.000              0.000              0.000
 Translational            0.889              2.981             41.617
 Rotational               0.889              2.981             31.408
 Vibrational            133.733             38.484             37.846
 Vibration     1          0.593              1.984              5.863
 Vibration     2          0.594              1.980              5.171
 Vibration     3          0.597              1.973              4.401
 Vibration     4          0.602              1.956              3.665
 Vibration     5          0.615              1.911              2.777
 Vibration     6          0.636              1.845              2.170
 Vibration     7          0.655              1.786              1.836
 Vibration     8          0.670              1.741              1.643
 Vibration     9          0.688              1.686              1.455
 Vibration    10          0.705              1.638              1.317
 Vibration    11          0.745              1.527              1.067
 Vibration    12          0.788              1.413              0.871
 Vibration    13          0.855              1.250              0.659
 Vibration    14          0.867              1.225              0.630
 Vibration    15          0.972              1.005              0.429

 Optimization completed.
    -- Stationary point found.

 1\1\GINC-NODE112\Freq\RB3LYP\6-31G(d)\C9H11N5\VSC10255\10-Dec-2020\0\\
 #N Geom=AllCheck Guess=TCheck SCRF=Check GenChk RB3LYP/6-31G(d) Freq\\
 CID_130480773_JID_4754_neutraal\\0,1\C,0.6523926889,1.2288821216,0.019
 4144019\C,1.3514813125,0.0379569934,0.1987384031\C,0.6743257786,-1.182
 9670285,0.1791966255\C,-0.7186514068,-1.1446921838,-0.028775072\N,-1.3
 966630595,-0.0009316759,-0.2056834173\C,-0.7240280409,1.1546492703,-0.
 1769950665\C,-1.5741659912,-2.3929363402,-0.0659058271\N,-2.1628340832
 ,-2.6870880678,1.2367809064\C,-2.4512533461,-1.8650464242,2.2682223427

 Normal termination of Gaussian 16 at Thu Dec 10 10:43:15 2020.

 ----------------------------------------------------------------------
 # B3LYP/6-311++G(d,p) empiricaldispersion=gd3bj scf=xqc pop=npa geom=c
 heck
 ----------------------------------------------------------------------

 ---------------------------------------
 CID_130480773_JID_4754_Energie_neutraal
 ---------------------------------------
 Structure from the checkpoint file:  "JID_4754.chk"
 Charge =  0 Multiplicity = 1

 SCF Done:  E(RB3LYP) =  -623.529472067     A.U. after   15 cycles
 Normal termination of Gaussian 16 at Thu Dec 10 10:46:34 2020.

 ----------------------------------------------------------------------
 # B3LYP/6-311++G(d,p) empiricaldispersion=gd3bj scf=xqc pop=npa geom=c
 heck
 ----------------------------------------------------------------------

 -------------------------------------
 CID_130480773_JID_4754_Energie_kation
 -------------------------------------
 Structure from the checkpoint file:  "JID_4754.chk"
 Charge =  1 Multiplicity = 2

 SCF Done:  E(UB3LYP) =  -623.207218625     A.U. after   31 cycles
 Normal termination of Gaussian 16 at Thu Dec 10 10:56:12 2020.
 Gaussian 16:  ES64L-G16RevA.03 25-Dec-2016

 ------------------------------------
 CID_130480773_JID_4754_Energie_anion
 ------------------------------------
 Structure from the checkpoint file:  "JID_4754.chk"
 Charge = -1 Multiplicity = 2

                         Standard orientation:
 ---------------------------------------------------------------------
 Center     Atomic      Atomic             Coordinates (Angstroms)
 Number     Number       Type             X           Y           Z
 ---------------------------------------------------------------------
      1          6           0        3.247856   -0.799745   -0.600569
      2          6           0        2.783129    0.511498   -0.538488
      3          6           0        1.569476    0.796790    0.090186
      4          6           0        0.860528   -0.286646    0.645758
      5          7           0        1.305003   -1.551064    0.592151
      6          6           0        2.468015   -1.796864   -0.020723
      7          6           0       -0.469555   -0.118819    1.348689
      8          7           0       -1.593630   -0.342969    0.445218
      9          6           0       -1.669331   -1.075549   -0.686332
     10          7           0       -2.886468   -0.993484   -1.207085
     11          6           0       -3.527935   -0.179079   -0.322889
     12          7           0       -2.790985    0.244533    0.695803
     13          6           0        1.053213    2.217932    0.144545
     14          7           0       -0.264451    2.309199   -0.483104
     15          1           0        4.187655   -1.043036   -1.086104
     16          1           0        3.359197    1.321065   -0.980080
     17          1           0        2.785963   -2.837220   -0.042626
     18          1           0       -0.520384   -0.843210    2.167242
     19          1           0       -0.601939    0.886614    1.744909
     20          1           0       -0.838306   -1.644646   -1.074461
     21          1           0       -4.563994    0.112092   -0.431290
     22          1           0        0.938418    2.528157    1.191790
     23          1           0        1.821267    2.881659   -0.289988
     24          1           0       -0.647862    3.245895   -0.382085
     25          1           0       -0.198673    2.112020   -1.479248
 ---------------------------------------------------------------------

 SCF Done:  E(UB3LYP) =  -623.525555025     A.U. after   33 cycles
 SCF Done:  E(UB3LYP) =  -623.525555025     a.u. after    1 cycles

 The electronic state is 2-A.
 Alpha  occ. eigenvalues --  -14.28936 -14.22954 -14.19864 -14.17906 -14.17468
 Alpha  occ. eigenvalues --  -10.12602 -10.11117 -10.10521 -10.09263 -10.08362
 Alpha  occ. eigenvalues --  -10.07625 -10.06103 -10.05818 -10.04899  -0.97061
 Alpha  occ. eigenvalues --   -0.82432  -0.79486  -0.77242  -0.73339  -0.68119
 Alpha  occ. eigenvalues --   -0.66009  -0.60645  -0.55621  -0.52170  -0.50623
 Alpha  occ. eigenvalues --   -0.48860  -0.47393  -0.42635  -0.39583  -0.39063
 Alpha  occ. eigenvalues --   -0.37194  -0.36161  -0.35069  -0.33270  -0.32077
 Alpha  occ. eigenvalues --   -0.31675  -0.29863  -0.29386  -0.28255  -0.27100
 Alpha  occ. eigenvalues --   -0.26695  -0.23237  -0.22550  -0.18283  -0.17712
 Alpha  occ. eigenvalues --   -0.16872  -0.16054  -0.14319  -0.13899  -0.12761
 Alpha  occ. eigenvalues --    0.04721
 Alpha virt. eigenvalues --    0.07346   0.07774   0.08709   0.09071   0.09294
 Alpha virt. eigenvalues --    0.09959   0.10202   0.10766   0.11011   0.12028
 Alpha virt. eigenvalues --    0.12762   0.13223   0.13984   0.14139   0.15475

  Beta  occ. eigenvalues --  -14.28933 -14.22952 -14.19863 -14.17860 -14.17160
  Beta  occ. eigenvalues --  -10.12602 -10.11116 -10.10519 -10.09261 -10.08339
  Beta  occ. eigenvalues --  -10.07508 -10.06061 -10.05853 -10.04598  -0.97057
  Beta  occ. eigenvalues --   -0.82065  -0.79437  -0.77142  -0.73318  -0.67701
  Beta  occ. eigenvalues --   -0.65861  -0.60560  -0.55441  -0.52098  -0.50432
  Beta  occ. eigenvalues --   -0.48618  -0.47329  -0.42575  -0.39482  -0.38949
  Beta  occ. eigenvalues --   -0.37065  -0.36096  -0.35032  -0.33144  -0.32021
  Beta  occ. eigenvalues --   -0.31593  -0.29783  -0.29299  -0.28073  -0.26842
  Beta  occ. eigenvalues --   -0.26026  -0.23122  -0.22532  -0.18264  -0.17694
  Beta  occ. eigenvalues --   -0.16018  -0.15473  -0.13921  -0.13516  -0.12542
  Beta virt. eigenvalues --    0.07567   0.08250   0.08665   0.09123   0.09319
  Beta virt. eigenvalues --    0.09929   0.10358   0.10421   0.11158   0.11256
  Beta virt. eigenvalues --    0.12123   0.12896   0.13580   0.14177   0.14360

 Mulliken charges and spin densities:
               1          2
     1  C    0.602888  -0.612295
     2  C    0.343957  -0.978754
     3  C   -0.957807   2.632571
     4  C   -1.317311   0.652560
     5  N   -0.015610   0.158857
     6  C    0.047254  -0.033825
     7  C   -0.592106  -0.301169
     8  N    0.224827  -0.027821
     9  C   -0.142940  -0.034894
    10  N   -0.169353   0.000170
    11  C   -0.071124  -0.051083
    12  N   -0.216885   0.035180
    13  C    2.492725  -3.182610
    14  N   -0.605502   0.177918
    15  H   -0.149380   0.294935
    16  H   -0.287599   0.396858
    17  H    0.092117   0.052028
    18  H    0.154226   0.063741
    19  H    0.180256   0.005893
    20  H    0.193800   0.013349
    21  H    0.113147   0.028874
    22  H   -0.268815   0.443286
    23  H   -0.702895   0.865137
    24  H   -0.073883   0.321293
    25  H    0.126013   0.079800
 Sum of Mulliken charges =  -1.00000   1.00000

 Dipole moment (field-independent basis, Debye):
    X=             -2.0661    Y=             -3.9265    Z=              0.5611  Tot=              4.4722
 Quadrupole moment (field-independent basis, Debye-Ang):
   XX=           -129.4196   YY=           -128.5853   ZZ=           -101.7614
   XY=             -8.9390   XZ=             -1.9705   YZ=             -2.1236

 Summary of Natural Population Analysis:

                                       Natural Population
                Natural  -----------------------------------------------
    Atom  No    Charge         Core      Valence    Rydberg      Total
 -----------------------------------------------------------------------
      C    1   -0.12974      0.99956     2.12040    0.00978     3.12974
      C    2   -0.03238      0.99951     2.02265    0.01022     3.03238
      C    3   -0.02934      0.99945     2.01887    0.01101     3.02934
      C    4    0.09406      0.99948     1.89152    0.01493     2.90594
      N    5   -0.21198      0.99968     2.70074    0.01156     3.71198
      C    6    0.03961      0.99959     1.94679    0.01401     2.96039
      C    7   -0.09336      0.99956     2.08065    0.01315     3.09336
      N    8   -0.10012      0.99965     2.58759    0.01289     3.60012
      C    9    0.10975      0.99963     1.87531    0.01530     2.89025
      N   10   -0.27306      0.99974     2.76192    0.01140     3.77306
      C   11    0.07943      0.99972     1.90159    0.01927     2.92057
      N   12   -0.15558      0.99973     2.64409    0.01176     3.65558
      C   13   -0.09642      0.99960     2.08351    0.01331     3.09642
      N   14   -0.42125      0.99977     2.91044    0.01104     3.92125
      H   15    0.09814      0.00000     0.40099    0.00087     0.40186
      H   16    0.09610      0.00000     0.40269    0.00121     0.40390
      H   17    0.08271      0.00000     0.41626    0.00103     0.41729
      H   18    0.10396      0.00000     0.39468    0.00136     0.39604
      H   19    0.11344      0.00000     0.38472    0.00184     0.38656
      H   20    0.10721      0.00000     0.39114    0.00165     0.39279
      H   21    0.08806      0.00000     0.41109    0.00085     0.41194
      H   22    0.09386      0.00000     0.40415    0.00200     0.40614
      H   23    0.08550      0.00000     0.41166    0.00284     0.41450
      H   24    0.17873      0.00000     0.31770    0.00358     0.32127
      H   25    0.17266      0.00000     0.32530    0.00203     0.32734
 =======================================================================
   * Total *    0.00000     13.99468    35.80643    0.19888    50.00000

 Normal termination of Gaussian 16 at Thu Dec 10 11:06:32 2020.
