 Gaussian 16, Revision A.03,

 -----------------------------------------------------------
 # opt freq B3LYP/6-31G(d) empiricaldispersion=gd3bj scf=xqc
 -----------------------------------------------------------

 -------------------------------
 CID_115886330_JID_6081_neutraal
 -------------------------------
 Symbolic Z-matrix:
 Charge =  0 Multiplicity = 1

 SCF Done:  E(RB3LYP) =  -679.774066291     A.U. after   12 cycles
 SCF Done:  E(RB3LYP) =  -679.778673512     A.U. after   11 cycles
 SCF Done:  E(RB3LYP) =  -679.778733294     A.U. after   10 cycles
 SCF Done:  E(RB3LYP) =  -679.779658569     A.U. after   10 cycles
 SCF Done:  E(RB3LYP) =  -679.779939037     A.U. after   10 cycles
 SCF Done:  E(RB3LYP) =  -679.780359292     A.U. after   11 cycles
 SCF Done:  E(RB3LYP) =  -679.780742249     A.U. after   11 cycles
 SCF Done:  E(RB3LYP) =  -679.782114770     A.U. after   10 cycles
 SCF Done:  E(RB3LYP) =  -679.784563295     A.U. after   13 cycles
 SCF Done:  E(RB3LYP) =  -679.785139950     A.U. after   11 cycles
 SCF Done:  E(RB3LYP) =  -679.785938225     A.U. after    7 cycles
 SCF Done:  E(RB3LYP) =  -679.785977313     A.U. after   10 cycles
 SCF Done:  E(RB3LYP) =  -679.785979978     A.U. after    9 cycles
 SCF Done:  E(RB3LYP) =  -679.785980176     A.U. after    7 cycles
 SCF Done:  E(RB3LYP) =  -679.785980250     A.U. after    6 cycles
 SCF Done:  E(RB3LYP) =  -679.785980273     A.U. after    6 cycles
 Optimization completed.
    -- Stationary point found.
 Normal termination of Gaussian 16 at Thu Dec 10 21:26:54 2020.

 --------------------------------------------------------------------
 #N Geom=AllCheck Guess=TCheck SCRF=Check GenChk RB3LYP/6-31G(d) Freq
 --------------------------------------------------------------------

 Structure from the checkpoint file:  "JID_6081.chk"
 -------------------------------
 CID_115886330_JID_6081_neutraal
 -------------------------------
 Charge =  0 Multiplicity = 1

 SCF Done:  E(RB3LYP) =  -679.785980273     A.U. after    1 cycles

  Exact polarizability: 181.521   0.599 143.890   1.431  -0.302 131.317
 Approx polarizability: 214.217   0.144 208.079   3.369  -0.673 204.679

                      1                      2                      3
                      A                      A                      A
 Frequencies --     23.2474                48.2764                52.9251
 Red. masses --      3.0834                 3.9835                 3.4224
 Frc consts  --      0.0010                 0.0055                 0.0056
 IR Inten    --      0.2252                 0.3520                 0.1768

                      4                      5                      6
                      A                      A                      A
 Frequencies --     83.3277                91.9026               102.5718
 Red. masses --      2.9418                 3.0264                 2.3116
 Frc consts  --      0.0120                 0.0151                 0.0143
 IR Inten    --      0.3966                 0.3318                 0.1776

                      7                      8                      9
                      A                      A                      A
 Frequencies --    115.7944               194.5418               211.1875
 Red. masses --      2.6575                 2.5535                 2.3268
 Frc consts  --      0.0210                 0.0569                 0.0611
 IR Inten    --      0.5977                 0.8364                 1.5397

                     10                     11                     12
                      A                      A                      A
 Frequencies --    221.9703               237.3679               249.8726
 Red. masses --      2.0773                 1.1558                 2.8891
 Frc consts  --      0.0603                 0.0384                 0.1063
 IR Inten    --      1.2176                 0.0630                 1.1880

                     13                     14                     15
                      A                      A                      A
 Frequencies --    275.5574               296.7971               341.4827
 Red. masses --      2.2421                 1.9547                 2.0126
 Frc consts  --      0.1003                 0.1015                 0.1383
 IR Inten    --      0.6651                 0.4404                 1.5650

                     16                     17                     18
                      A                      A                      A
 Frequencies --    360.0898               381.6972               420.0753
 Red. masses --      2.0498                 3.4738                 2.3026
 Frc consts  --      0.1566                 0.2982                 0.2394
 IR Inten    --      0.5593                 3.3032                 0.6487

                     19                     20                     21
                      A                      A                      A
 Frequencies --    434.1343               456.0723               497.0936
 Red. masses --      2.7076                 1.8363                 2.7413
 Frc consts  --      0.3007                 0.2250                 0.3991
 IR Inten    --      0.8488                 0.3614                 3.7918

                     22                     23                     24
                      A                      A                      A
 Frequencies --    503.5242               538.1512               572.8039
 Red. masses --      3.1434                 2.9412                 2.5050
 Frc consts  --      0.4696                 0.5019                 0.4842
 IR Inten    --      1.4251                 0.4393                 9.3889

                     25                     26                     27
                      A                      A                      A
 Frequencies --    632.4678               705.6976               728.2101
 Red. masses --      1.3286                 2.8336                 1.8983
 Frc consts  --      0.3131                 0.8314                 0.5931
 IR Inten    --    100.5541                18.3943                52.6710

                     28                     29                     30
                      A                      A                      A
 Frequencies --    747.6846               769.9039               775.1454
 Red. masses --      1.7464                 1.4563                 3.1556
 Frc consts  --      0.5752                 0.5086                 1.1171
 IR Inten    --     28.6741                31.0667                 1.7922

                     31                     32                     33
                      A                      A                      A
 Frequencies --    795.0308               803.7024               830.2680
 Red. masses --      1.4299                 2.7684                 1.5366
 Frc consts  --      0.5325                 1.0536                 0.6241
 IR Inten    --     12.8180                 4.1629                 2.3130

                     34                     35                     36
                      A                      A                      A
 Frequencies --    851.8182               865.8566               890.2543
 Red. masses --      2.0755                 1.7580                 2.4704
 Frc consts  --      0.8873                 0.7766                 1.1536
 IR Inten    --      2.5676                 2.7632                 2.6794

                     37                     38                     39
                      A                      A                      A
 Frequencies --    900.5704               929.8537               934.8330
 Red. masses --      2.4184                 1.9027                 2.9219
 Frc consts  --      1.1556                 0.9693                 1.5045
 IR Inten    --      4.7106                 2.5303                 1.4851

                     40                     41                     42
                      A                      A                      A
 Frequencies --    947.3064               962.0675               966.3576
 Red. masses --      2.0814                 2.0104                 1.5612
 Frc consts  --      1.1005                 1.0963                 0.8590
 IR Inten    --     12.8751                 0.0983                 0.1325

                     43                     44                     45
                      A                      A                      A
 Frequencies --    970.8465               983.4203              1015.5532
 Red. masses --      2.0744                 1.7543                 2.0705
 Frc consts  --      1.1520                 0.9996                 1.2582
 IR Inten    --      1.0612                 0.3813                 4.3761

                     46                     47                     48
                      A                      A                      A
 Frequencies --   1027.4218              1027.7784              1036.8321
 Red. masses --      1.8973                 2.1533                 1.4467
 Frc consts  --      1.1800                 1.3402                 0.9163
 IR Inten    --      9.7088                 2.1894                 4.2840

                     49                     50                     51
                      A                      A                      A
 Frequencies --   1054.6740              1066.6887              1079.5905
 Red. masses --      1.9505                 1.8876                 1.7183
 Frc consts  --      1.2783                 1.2654                 1.1799
 IR Inten    --     32.0001                12.3827                 8.6602

                     52                     53                     54
                      A                      A                      A
 Frequencies --   1100.0803              1104.0664              1139.4370
 Red. masses --      1.7762                 2.3269                 1.5617
 Frc consts  --      1.2665                 1.6712                 1.1946
 IR Inten    --      4.5524                35.7360                24.3499

                     55                     56                     57
                      A                      A                      A
 Frequencies --   1148.2761              1156.9024              1163.6124
 Red. masses --      1.0551                 1.7593                 1.4408
 Frc consts  --      0.8196                 1.3873                 1.1494
 IR Inten    --      1.0802                10.6482                21.6616

                     58                     59                     60
                      A                      A                      A
 Frequencies --   1181.9846              1190.7122              1208.6682
 Red. masses --      1.9021                 1.8593                 2.8133
 Frc consts  --      1.5657                 1.5531                 2.4215
 IR Inten    --      7.4488                 0.8037                41.9737

                     61                     62                     63
                      A                      A                      A
 Frequencies --   1214.1461              1250.2361              1262.4963
 Red. masses --      1.5029                 1.3233                 1.3433
 Frc consts  --      1.3054                 1.2187                 1.2615
 IR Inten    --      4.7757                 1.9038                12.5418

                     64                     65                     66
                      A                      A                      A
 Frequencies --   1283.1835              1290.6459              1292.9999
 Red. masses --      1.3418                 1.2839                 1.4734
 Frc consts  --      1.3017                 1.2601                 1.4513
 IR Inten    --      3.2744                 6.9976                 7.7595

                     67                     68                     69
                      A                      A                      A
 Frequencies --   1297.8749              1307.5362              1311.5689
 Red. masses --      1.3184                 1.4957                 1.2579
 Frc consts  --      1.3085                 1.5066                 1.2749
 IR Inten    --      0.2108                 1.1125                 1.5574

                     70                     71                     72
                      A                      A                      A
 Frequencies --   1322.0342              1330.8841              1347.3064
 Red. masses --      1.3592                 1.1538                 1.5714
 Frc consts  --      1.3996                 1.2041                 1.6807
 IR Inten    --      0.1183                 7.1420                 1.3991

                     73                     74                     75
                      A                      A                      A
 Frequencies --   1356.0106              1365.6444              1373.1239
 Red. masses --      1.5166                 1.5412                 1.3363
 Frc consts  --      1.6430                 1.6935                 1.4844
 IR Inten    --      1.7167                 0.1890                 2.4897

                     76                     77                     78
                      A                      A                      A
 Frequencies --   1377.2688              1388.2216              1399.9811
 Red. masses --      1.4621                 1.4403                 1.3306
 Frc consts  --      1.6341                 1.6354                 1.5365
 IR Inten    --      0.0777                 6.3884                 2.7452

                     79                     80                     81
                      A                      A                      A
 Frequencies --   1415.1529              1425.7486              1433.6757
 Red. masses --      1.4146                 1.3593                 1.2845
 Frc consts  --      1.6691                 1.6280                 1.5555
 IR Inten    --      0.4203                 7.0287                29.8600

                     82                     83                     84
                      A                      A                      A
 Frequencies --   1441.0852              1444.5493              1464.9962
 Red. masses --      1.2396                 1.2771                 1.2530
 Frc consts  --      1.5168                 1.5701                 1.5844
 IR Inten    --      1.7263                 8.6831                56.6741

                     85                     86                     87
                      A                      A                      A
 Frequencies --   1513.8377              1516.1644              1521.9724
 Red. masses --      1.1654                 1.0624                 1.0886
 Frc consts  --      1.5735                 1.4389                 1.4858
 IR Inten    --      7.7027                 1.7820                 1.5485

                     88                     89                     90
                      A                      A                      A
 Frequencies --   1523.4372              1525.6604              1528.7910
 Red. masses --      1.0648                 1.0988                 1.0824
 Frc consts  --      1.4560                 1.5069                 1.4904
 IR Inten    --      3.0261                 2.5543                 1.0731

                     91                     92                     93
                      A                      A                      A
 Frequencies --   1530.4160              1536.4300              1538.6813
 Red. masses --      1.0826                 1.0447                 1.0461
 Frc consts  --      1.4940                 1.4531                 1.4592
 IR Inten    --     21.1050                 3.5496                 3.5378

                     94                     95                     96
                      A                      A                      A
 Frequencies --   1545.9081              1548.0683              1563.6844
 Red. masses --      1.0724                 1.1005                 1.0904
 Frc consts  --      1.5100                 1.5538                 1.5708
 IR Inten    --      5.1125                 1.8581                12.5645

                     97                     98                     99
                      A                      A                      A
 Frequencies --   2991.5383              3020.1647              3037.2935
 Red. masses --      1.0816                 1.0723                 1.0623
 Frc consts  --      5.7031                 5.7627                 5.7737
 IR Inten    --     24.3823                34.2710                25.0889

                    100                    101                    102
                      A                      A                      A
 Frequencies --   3045.9199              3048.6511              3049.7035
 Red. masses --      1.0387                 1.0836                 1.0392
 Frc consts  --      5.6780                 5.9338                 5.6948
 IR Inten    --     21.6326                12.2775                10.1134

                    103                    104                    105
                      A                      A                      A
 Frequencies --   3056.7447              3058.1282              3058.2144
 Red. masses --      1.0603                 1.0642                 1.0666
 Frc consts  --      5.8369                 5.8640                 5.8774
 IR Inten    --     43.6755                38.6829                35.4943

                    106                    107                    108
                      A                      A                      A
 Frequencies --   3063.0750              3067.1033              3067.8400
 Red. masses --      1.0817                 1.0702                 1.0716
 Frc consts  --      5.9798                 5.9314                 5.9420
 IR Inten    --     44.9157                64.3529                 1.9549

                    109                    110                    111
                      A                      A                      A
 Frequencies --   3069.9810              3094.7985              3102.2534
 Red. masses --      1.0963                 1.1024                 1.0981
 Frc consts  --      6.0877                 6.2211                 6.2265
 IR Inten    --     66.3615                26.8767                 6.4455

                    112                    113                    114
                      A                      A                      A
 Frequencies --   3103.1667              3104.8911              3108.1897
 Red. masses --      1.0875                 1.1054                 1.1013
 Frc consts  --      6.1702                 6.2784                 6.2683
 IR Inten    --     89.4123                44.4187                48.6031

                    115                    116                    117
                      A                      A                      A
 Frequencies --   3108.8847              3115.1186              3116.2886
 Red. masses --      1.0898                 1.1002                 1.0980
 Frc consts  --      6.2058                 6.2901                 6.2824
 IR Inten    --     26.1444                42.1670                48.7731

                    118                    119                    120
                      A                      A                      A
 Frequencies --   3122.3513              3126.2406              3138.0577
 Red. masses --      1.1012                 1.1015                 1.0955
 Frc consts  --      6.3253                 6.3426                 6.3560
 IR Inten    --     49.8858                38.6359                15.4991

                    121                    122                    123
                      A                      A                      A
 Frequencies --   3151.5539              3537.4925              3580.7814
 Red. masses --      1.0889                 1.0749                 1.0642
 Frc consts  --      6.3723                 7.9252                 8.0399
 IR Inten    --     13.4020                 1.2741                99.0173

 - Thermochemistry -
 -------------------
 Temperature   298.150 Kelvin.  Pressure   1.00000 Atm.
 Atom     1 has atomic number  6 and mass  12.00000

 Molecular mass:   225.20926 amu.
 Principal axes and moments of inertia in atomic units:
                           1         2         3
     Eigenvalues --  1532.285427525.793658179.75144
           X            0.99999   0.00409   0.00024
           Y           -0.00408   0.99996  -0.00828
           Z           -0.00028   0.00828   0.99997
 This molecule is an asymmetric top.
 Rotational symmetry number  1.
 Warning -- assumption of classical behavior for rotation
           may cause significant error
 Rotational temperatures (Kelvin)      0.05653     0.01151     0.01059
 Rotational constants (GHZ):           1.17781     0.23981     0.22064
 Zero-point vibrational energy    1054734.8 (Joules/Mol)
                                  252.08766 (Kcal/Mol)
 Warning -- explicit consideration of  24 degrees of freedom as
           vibrations may cause significant error
 Vibrational temperatures:     33.45    69.46    76.15   119.89   132.23
          (Kelvin)            147.58   166.60   279.90   303.85   319.37
                              341.52   359.51   396.47   427.02   491.32
                              518.09   549.18   604.39   624.62   656.19
                              715.21   724.46   774.28   824.14   909.98
                             1015.34  1047.73  1075.75  1107.72  1115.26
                             1143.87  1156.35  1194.57  1225.58  1245.77
                             1280.88  1295.72  1337.85  1345.02  1362.96
                             1384.20  1390.37  1396.83  1414.92  1461.15
                             1478.23  1478.74  1491.77  1517.44  1534.73
                             1553.29  1582.77  1588.51  1639.40  1652.11
                             1664.52  1674.18  1700.61  1713.17  1739.00
                             1746.89  1798.81  1816.45  1846.21  1856.95
                             1860.34  1867.35  1881.25  1887.06  1902.11
                             1914.85  1938.47  1951.00  1964.86  1975.62
                             1981.58  1997.34  2014.26  2036.09  2051.33
                             2062.74  2073.40  2078.38  2107.80  2178.07
                             2181.42  2189.78  2191.89  2195.08  2199.59
                             2201.93  2210.58  2213.82  2224.22  2227.32
                             2249.79  4304.16  4345.34  4369.99  4382.40
                             4386.33  4387.84  4397.97  4399.96  4400.09
                             4407.08  4412.88  4413.94  4417.02  4452.72
                             4463.45  4464.76  4467.25  4471.99  4472.99
                             4481.96  4483.64  4492.37  4497.96  4514.97
                             4534.38  5089.66  5151.95

 Zero-point correction=                           0.401727 (Hartree/Particle)
 Thermal correction to Energy=                    0.418346
 Thermal correction to Enthalpy=                  0.419290
 Thermal correction to Gibbs Free Energy=         0.356900
 Sum of electronic and zero-point Energies=           -679.384253
 Sum of electronic and thermal Energies=              -679.367635
 Sum of electronic and thermal Enthalpies=            -679.366691
 Sum of electronic and thermal Free Energies=         -679.429080

                     E (Thermal)             CV                S
                      KCal/Mol        Cal/Mol-Kelvin    Cal/Mol-Kelvin
 Total                  262.516             65.775            131.309
 Electronic               0.000              0.000              0.000
 Translational            0.889              2.981             42.138
 Rotational               0.889              2.981             32.911
 Vibrational            260.738             59.813             56.260
 Vibration     1          0.593              1.985              6.335
 Vibration     2          0.595              1.978              4.887
 Vibration     3          0.596              1.976              4.705
 Vibration     4          0.600              1.961              3.811
 Vibration     5          0.602              1.955              3.619
 Vibration     6          0.605              1.947              3.405
 Vibration     7          0.608              1.936              3.169
 Vibration     8          0.635              1.847              2.184
 Vibration     9          0.643              1.824              2.033
 Vibration    10          0.648              1.808              1.943
 Vibration    11          0.656              1.783              1.823
 Vibration    12          0.663              1.763              1.731
 Vibration    13          0.677              1.719              1.561
 Vibration    14          0.690              1.680              1.435
 Vibration    15          0.721              1.593              1.205
 Vibration    16          0.735              1.554              1.122
 Vibration    17          0.751              1.509              1.032
 Vibration    18          0.783              1.427              0.892
 Vibration    19          0.795              1.396              0.845
 Vibration    20          0.814              1.347              0.778
 Vibration    21          0.853              1.256              0.665
 Vibration    22          0.859              1.242              0.649
 Vibration    23          0.893              1.166              0.569
 Vibration    24          0.929              1.090              0.499

 Optimization completed.
    -- Stationary point found.
 Normal termination of Gaussian 16 at Thu Dec 10 21:43:09 2020.

 ----------------------------------------------------------------------
 # B3LYP/6-311++G(d,p) empiricaldispersion=gd3bj scf=xqc pop=npa geom=c
 heck
 ----------------------------------------------------------------------

 ---------------------------------------
 CID_115886330_JID_6081_Energie_neutraal
 ---------------------------------------
 Structure from the checkpoint file:  "JID_6081.chk"
 Charge =  0 Multiplicity = 1

 SCF Done:  E(RB3LYP) =  -679.981950305     A.U. after   14 cycles
 Normal termination of Gaussian 16 at Thu Dec 10 21:51:36 2020.

 ----------------------------------------------------------------------
 # B3LYP/6-311++G(d,p) empiricaldispersion=gd3bj scf=xqc pop=npa geom=c
 heck
 ----------------------------------------------------------------------

 -------------------------------------
 CID_115886330_JID_6081_Energie_kation
 -------------------------------------
 Structure from the checkpoint file:  "JID_6081.chk"
 Charge =  1 Multiplicity = 2

 SCF Done:  E(UB3LYP) =  -679.678411163     A.U. after   20 cycles
 Normal termination of Gaussian 16 at Thu Dec 10 22:08:42 2020.
 Gaussian 16:  ES64L-G16RevA.03 25-Dec-2016

 ----------------------------------------------------------------------
 # B3LYP/6-311++G(d,p) empiricaldispersion=gd3bj scf=xqc pop=npa geom=c
 heck
 ----------------------------------------------------------------------

 ------------------------------------
 CID_115886330_JID_6081_Energie_anion
 ------------------------------------
 Structure from the checkpoint file:  "JID_6081.chk"
 Charge = -1 Multiplicity = 2

                         Standard orientation:
 ---------------------------------------------------------------------
 Center     Atomic      Atomic             Coordinates (Angstroms)
 Number     Number       Type             X           Y           Z
 ---------------------------------------------------------------------
      1          6           0        4.281750    2.014113   -0.101311
      2          6           0        3.088992    1.290891    0.531541
      3          6           0        2.540958    0.117974   -0.304724
      4          6           0        3.624097   -0.910020   -0.693541
      5          6           0        4.353897   -1.563962    0.484324
      6          6           0        1.351787   -0.576364    0.401769
      7          6           0        0.125975    0.330061    0.618553
      8          7           0       -0.495454    0.598392   -0.683139
      9          6           0       -1.942283    0.857987   -0.761046
     10          6           0       -2.662352    1.487836    0.485679
     11          6           0       -3.865277    0.545559    0.707668
     12          6           0       -3.342731   -0.799719    1.267618
     13          6           0       -2.656240   -1.461511    0.029456
     14          6           0       -2.815077   -0.388156   -1.066576
     15          6           0       -4.219971    0.160638   -0.745684
     16          8           0        0.911456   -1.717604   -0.328394
     17          1           0        5.163908    1.369068   -0.163587
     18          1           0        4.558609    2.897418    0.484972
     19          1           0        4.044736    2.349391   -1.118711
     20          1           0        3.369506    0.929602    1.530408
     21          1           0        2.289399    2.024060    0.695018
     22          1           0        2.157232    0.532385   -1.251137
     23          1           0        3.140103   -1.689133   -1.289125
     24          1           0        4.357094   -0.422533   -1.347718
     25          1           0        3.661564   -2.115144    1.129625
     26          1           0        5.100863   -2.279032    0.122224
     27          1           0        4.878139   -0.828442    1.105537
     28          1           0        1.686790   -0.943922    1.379257
     29          1           0       -0.580981   -0.222161    1.238316
     30          1           0        0.388487    1.243314    1.171547
     31          1           0        0.003010    1.359307   -1.132166
     32          1           0       -2.064550    1.538254   -1.611215
     33          1           0       -2.013909    1.540597    1.364766
     34          1           0       -2.994409    2.509053    0.267675
     35          1           0       -4.669996    0.988305    1.301274
     36          1           0       -2.654203   -0.649634    2.106953
     37          1           0       -4.169532   -1.415852    1.637109
     38          1           0       -1.616670   -1.750451    0.197027
     39          1           0       -3.192267   -2.369232   -0.269224
     40          1           0       -2.655609   -0.766088   -2.080345
     41          1           0       -5.004110   -0.601641   -0.814377
     42          1           0       -4.507411    1.020452   -1.362535
     43          1           0        0.319577   -1.327827   -1.004810
 ---------------------------------------------------------------------

 SCF Done:  E(UB3LYP) =  -679.970561889     A.U. after   28 cycles

 The electronic state is 2-A.
 Alpha  occ. eigenvalues --  -19.01300 -14.20565 -10.11968 -10.09824 -10.09617
 Alpha  occ. eigenvalues --  -10.07474 -10.07410 -10.07143 -10.06964 -10.06953
 Alpha  occ. eigenvalues --  -10.06928 -10.06732 -10.06534 -10.06513 -10.06422
 Alpha  occ. eigenvalues --  -10.06215  -0.92203  -0.81293  -0.76345  -0.71995
 Alpha  occ. eigenvalues --   -0.65524  -0.64962  -0.63382  -0.61845  -0.59179
 Alpha  occ. eigenvalues --   -0.57690  -0.52934  -0.52093  -0.49360  -0.46104
 Alpha  occ. eigenvalues --   -0.45476  -0.43086  -0.41375  -0.40736  -0.38880
 Alpha  occ. eigenvalues --   -0.38030  -0.37507  -0.37042  -0.36140  -0.33641
 Alpha  occ. eigenvalues --   -0.33049  -0.31583  -0.30957  -0.29823  -0.29256
 Alpha  occ. eigenvalues --   -0.29015  -0.27848  -0.27537  -0.26998  -0.26601
 Alpha  occ. eigenvalues --   -0.25907  -0.25224  -0.25061  -0.24541  -0.23575
 Alpha  occ. eigenvalues --   -0.23003  -0.22760  -0.22340  -0.21448  -0.21138
 Alpha  occ. eigenvalues --   -0.19676  -0.17000  -0.13388   0.04113
 Alpha virt. eigenvalues --    0.05861   0.06643   0.07201   0.07657   0.08006
 Alpha virt. eigenvalues --    0.08316   0.09408   0.09450   0.09948   0.10096
 Alpha virt. eigenvalues --    0.10413   0.10579   0.10983   0.12311   0.12422

  Beta  occ. eigenvalues --  -19.01297 -14.20542 -10.11965 -10.09806 -10.09609
  Beta  occ. eigenvalues --  -10.07467 -10.07402 -10.07126 -10.06955 -10.06949
  Beta  occ. eigenvalues --  -10.06918 -10.06727 -10.06505 -10.06496 -10.06415
  Beta  occ. eigenvalues --  -10.06195  -0.92195  -0.81254  -0.76316  -0.71973
  Beta  occ. eigenvalues --   -0.65500  -0.64932  -0.63355  -0.61819  -0.59145
  Beta  occ. eigenvalues --   -0.57649  -0.52895  -0.52055  -0.49318  -0.46066
  Beta  occ. eigenvalues --   -0.45442  -0.43048  -0.41320  -0.40695  -0.38851
  Beta  occ. eigenvalues --   -0.38002  -0.37488  -0.37021  -0.36114  -0.33621
  Beta  occ. eigenvalues --   -0.33022  -0.31564  -0.30927  -0.29792  -0.29235
  Beta  occ. eigenvalues --   -0.28986  -0.27822  -0.27503  -0.26964  -0.26574
  Beta  occ. eigenvalues --   -0.25888  -0.25200  -0.25036  -0.24517  -0.23548
  Beta  occ. eigenvalues --   -0.22983  -0.22737  -0.22313  -0.21429  -0.21120
  Beta  occ. eigenvalues --   -0.19640  -0.16992  -0.13359
  Beta virt. eigenvalues --    0.06096   0.06421   0.07259   0.07560   0.08167
  Beta virt. eigenvalues --    0.08294   0.08586   0.09749   0.09832   0.10267
  Beta virt. eigenvalues --    0.10314   0.10504   0.10866   0.11103   0.12507

 Mulliken charges and spin densities:
               1          2
     1  C    0.674165  -1.351298
     2  C   -0.932913   0.601964
     3  C    0.833916   0.107067
     4  C   -0.143435  -0.297794
     5  C   -0.327462  -0.260156
     6  C   -0.289090  -0.653322
     7  C   -0.197252  -0.206169
     8  N   -0.291091   0.215312
     9  C    0.284671  -0.669845
    10  C    0.735472  -1.287379
    11  C   -0.427162   0.875164
    12  C   -0.017255  -0.507914
    13  C   -0.096144  -0.384241
    14  C    0.137077   0.292049
    15  C   -0.045591  -0.719994
    16  O   -0.145210  -0.003719
    17  H    0.036249   0.099529
    18  H   -0.271057   0.409241
    19  H   -0.261139   0.416174
    20  H    0.001940   0.143180
    21  H   -0.095850   0.221987
    22  H   -0.011905   0.199199
    23  H    0.131325   0.020999
    24  H    0.038773   0.116709
    25  H    0.074186   0.078662
    26  H    0.073416   0.053695
    27  H    0.051753   0.088490
    28  H    0.158419   0.042347
    29  H    0.342939  -0.191119
    30  H   -0.016360   0.190068
    31  H    0.141599   0.153807
    32  H   -0.666392   0.881049
    33  H   -0.073322   0.188224
    34  H   -0.326047   0.499770
    35  H   -0.174046   0.408747
    36  H    0.015471   0.095836
    37  H    0.004462   0.157081
    38  H    0.121028  -0.025866
    39  H   -0.012273   0.186768
    40  H    0.022289   0.198293
    41  H   -0.131762   0.271105
    42  H   -0.169523   0.320497
    43  H    0.243128   0.025802
 Sum of Mulliken charges =  -1.00000   1.00000

 Dipole moment (field-independent basis, Debye):
    X=              1.6790    Y=             -4.9810    Z=              2.4823  Tot=              5.8130
 Quadrupole moment (field-independent basis, Debye-Ang):
   XX=           -191.4182   YY=           -159.1085   ZZ=           -135.4501
   XY=             -1.5441   XZ=             -1.9814   YZ=              4.4633

 Summary of Natural Population Analysis:

                                       Natural Population
                Natural  -----------------------------------------------
    Atom  No    Charge         Core      Valence    Rydberg      Total
 -----------------------------------------------------------------------
      C    1   -0.28540      0.99967     2.28031    0.00542     3.28540
      C    2   -0.19357      0.99962     2.18465    0.00930     3.19357
      C    3   -0.12111      0.99957     2.10875    0.01279     3.12111
      C    4   -0.19235      0.99962     2.18500    0.00773     3.19235
      C    5   -0.28876      0.99966     2.28464    0.00446     3.28876
      C    6    0.06603      0.99954     1.92082    0.01362     2.93397
      C    7   -0.10091      0.99959     2.09113    0.01020     3.10091
      N    8   -0.35879      0.99971     2.84516    0.01392     3.85879
      C    9   -0.00684      0.99956     1.99095    0.01633     3.00684
      C   10   -0.19809      0.99961     2.18910    0.00938     3.19809
      C   11   -0.11252      0.99960     2.10111    0.01180     3.11252
      C   12   -0.19262      0.99963     2.18492    0.00807     3.19262
      C   13   -0.20202      0.99962     2.19400    0.00840     3.20202
      C   14   -0.10988      0.99958     2.09826    0.01205     3.10988
      C   15   -0.19107      0.99961     2.18258    0.00888     3.19107
      O   16   -0.38277      0.99990     3.37676    0.00610     4.38277
      H   17    0.09428      0.00000     0.40479    0.00093     0.40572
      H   18    0.09966      0.00000     0.39944    0.00090     0.40034
      H   19    0.09878      0.00000     0.40002    0.00120     0.40122
      H   20    0.09199      0.00000     0.40682    0.00118     0.40801
      H   21    0.10034      0.00000     0.39822    0.00144     0.39966
      H   22    0.09712      0.00000     0.40079    0.00209     0.40288
      H   23    0.10680      0.00000     0.39195    0.00125     0.39320
      H   24    0.09445      0.00000     0.40452    0.00103     0.40555
      H   25    0.09720      0.00000     0.40193    0.00087     0.40280
      H   26    0.09645      0.00000     0.40270    0.00085     0.40355
      H   27    0.09465      0.00000     0.40447    0.00088     0.40535
      H   28    0.08297      0.00000     0.41526    0.00177     0.41703
      H   29    0.09849      0.00000     0.39991    0.00161     0.40151
      H   30    0.09056      0.00000     0.40788    0.00156     0.40944
      H   31    0.18510      0.00000     0.31113    0.00378     0.31490
      H   32    0.10086      0.00000     0.39640    0.00274     0.39914
      H   33    0.09863      0.00000     0.40003    0.00134     0.40137
      H   34    0.10461      0.00000     0.39361    0.00177     0.39539
      H   35    0.09994      0.00000     0.39905    0.00101     0.40006
      H   36    0.09471      0.00000     0.40428    0.00101     0.40529
      H   37    0.09826      0.00000     0.40082    0.00092     0.40174
      H   38    0.10718      0.00000     0.39121    0.00160     0.39282
      H   39    0.09745      0.00000     0.40155    0.00100     0.40255
      H   40    0.10261      0.00000     0.39630    0.00110     0.39739
      H   41    0.09808      0.00000     0.40086    0.00105     0.40192
      H   42    0.10180      0.00000     0.39692    0.00128     0.39820
      H   43    0.23772      0.00000     0.25907    0.00322     0.26228
 =======================================================================
   * Total *    0.00000     15.99409    46.80808    0.19783    63.00000

 Normal termination of Gaussian 16 at Thu Dec 10 22:31:13 2020.
