 Gaussian 16, Revision A.03,

 -----------------------------------------------------------
 # opt freq B3LYP/6-31G(d) empiricaldispersion=gd3bj scf=xqc
 -----------------------------------------------------------

 -------------------------------
 CID_150807307_JID_6380_neutraal
 -------------------------------
 Symbolic Z-matrix:
 Charge =  0 Multiplicity = 1

 SCF Done:  E(RB3LYP) =  -704.296243453     A.U. after   17 cycles
 SCF Done:  E(RB3LYP) =  -704.324518707     A.U. after   14 cycles
 SCF Done:  E(RB3LYP) =  -704.324603987     A.U. after   13 cycles
 SCF Done:  E(RB3LYP) =  -704.327695297     A.U. after   14 cycles
 SCF Done:  E(RB3LYP) =  -704.328992032     A.U. after   14 cycles
 SCF Done:  E(RB3LYP) =  -704.329650158     A.U. after   14 cycles
 SCF Done:  E(RB3LYP) =  -704.330953951     A.U. after   13 cycles
 SCF Done:  E(RB3LYP) =  -704.333171660     A.U. after   14 cycles
 SCF Done:  E(RB3LYP) =  -704.336151197     A.U. after   16 cycles
 SCF Done:  E(RB3LYP) =  -704.336357933     A.U. after   14 cycles
 SCF Done:  E(RB3LYP) =  -704.340036450     A.U. after   11 cycles
 SCF Done:  E(RB3LYP) =  -704.340051546     A.U. after   11 cycles
 SCF Done:  E(RB3LYP) =  -704.340056272     A.U. after    9 cycles
 SCF Done:  E(RB3LYP) =  -704.340057781     A.U. after    9 cycles
 SCF Done:  E(RB3LYP) =  -704.340058193     A.U. after    8 cycles
 SCF Done:  E(RB3LYP) =  -704.340058308     A.U. after    8 cycles
 Optimization completed.
    -- Stationary point found.
 Normal termination of Gaussian 16 at Thu Dec 10 22:38:36 2020.

 --------------------------------------------------------------------
 #N Geom=AllCheck Guess=TCheck SCRF=Check GenChk RB3LYP/6-31G(d) Freq
 --------------------------------------------------------------------

 Structure from the checkpoint file:  "JID_6380.chk"
 -------------------------------
 CID_150807307_JID_6380_neutraal
 -------------------------------
 Charge =  0 Multiplicity = 1

 SCF Done:  E(RB3LYP) =  -704.340058308     A.U. after    1 cycles

  Exact polarizability: 150.250 -11.323 147.084  -6.325   2.243 124.750
 Approx polarizability: 192.443 -25.484 248.759 -15.792   7.868 202.589

                      1                      2                      3
                      A                      A                      A
 Frequencies --     24.9918                37.1637                54.2009
 Red. masses --      6.7572                 5.0461                 3.4989
 Frc consts  --      0.0025                 0.0041                 0.0061
 IR Inten    --      0.3083                 0.0540                 0.5955

                      4                      5                      6
                      A                      A                      A
 Frequencies --     74.8589                85.6471               101.5852
 Red. masses --      3.0716                 5.8153                 4.6276
 Frc consts  --      0.0101                 0.0251                 0.0281
 IR Inten    --      0.1134                 2.2999                 1.7909

                      7                      8                      9
                      A                      A                      A
 Frequencies --    129.7906               147.8610               177.5015
 Red. masses --      5.0038                 5.4561                 4.0470
 Frc consts  --      0.0497                 0.0703                 0.0751
 IR Inten    --      0.9866                 2.3650                 0.1456

                     10                     11                     12
                      A                      A                      A
 Frequencies --    198.1210               236.1641               257.6791
 Red. masses --      2.3239                 1.2427                 4.7368
 Frc consts  --      0.0537                 0.0408                 0.1853
 IR Inten    --      0.7588                 0.0736                 4.4922

                     13                     14                     15
                      A                      A                      A
 Frequencies --    275.3319               308.6443               332.1266
 Red. masses --      2.8807                 3.8271                 2.8133
 Frc consts  --      0.1287                 0.2148                 0.1828
 IR Inten    --      5.5973                 7.7278                 1.4545

                     16                     17                     18
                      A                      A                      A
 Frequencies --    348.8971               383.5197               420.8989
 Red. masses --      2.6795                 2.2640                 2.1589
 Frc consts  --      0.1922                 0.1962                 0.2253
 IR Inten    --      2.9792                 1.2296                 1.7464

                     19                     20                     21
                      A                      A                      A
 Frequencies --    448.8191               463.7693               501.2183
 Red. masses --      2.6479                 2.6063                 1.7448
 Frc consts  --      0.3143                 0.3303                 0.2583
 IR Inten    --      1.7317                 0.8007                 1.3305

                     22                     23                     24
                      A                      A                      A
 Frequencies --    531.3008               541.4684               570.9937
 Red. masses --      9.7828                 4.0198                12.1630
 Frc consts  --      1.6270                 0.6944                 2.3364
 IR Inten    --      0.4889                 0.7740                13.1559

                     25                     26                     27
                      A                      A                      A
 Frequencies --    584.2225               644.8477               731.8625
 Red. masses --      2.9582                 2.6069                 7.3755
 Frc consts  --      0.5949                 0.6387                 2.3275
 IR Inten    --      6.2227                 0.7146                 8.0072

                     28                     29                     30
                      A                      A                      A
 Frequencies --    766.6621               795.7648               797.5720
 Red. masses --      2.0373                 1.5345                 1.5298
 Frc consts  --      0.7055                 0.5725                 0.5733
 IR Inten    --      5.9258                 1.2935                15.8671

                     31                     32                     33
                      A                      A                      A
 Frequencies --    814.6639               829.6681               878.5498
 Red. masses --      2.6388                 2.9165                 2.3679
 Frc consts  --      1.0318                 1.1828                 1.0768
 IR Inten    --      3.5876                 5.9691                 0.2559

                     34                     35                     36
                      A                      A                      A
 Frequencies --    885.7906               891.5468               924.0153
 Red. masses --      2.4017                 1.5901                 5.4059
 Frc consts  --      1.1103                 0.7447                 2.7194
 IR Inten    --      2.9257                 0.2171                17.9673

                     37                     38                     39
                      A                      A                      A
 Frequencies --    951.2135               964.1639              1013.3034
 Red. masses --      1.4168                 2.3149                 4.6160
 Frc consts  --      0.7553                 1.2679                 2.7925
 IR Inten    --      0.6818                10.3378                31.8549

                     40                     41                     42
                      A                      A                      A
 Frequencies --   1032.4969              1045.2919              1054.3284
 Red. masses --      2.4139                 2.6651                 1.8527
 Frc consts  --      1.5162                 1.7157                 1.2134
 IR Inten    --     44.5420                 1.8504                 8.1870

                     43                     44                     45
                      A                      A                      A
 Frequencies --   1058.3108              1094.5884              1102.8038
 Red. masses --      1.6406                 1.9778                 1.7264
 Frc consts  --      1.0826                 1.3962                 1.2371
 IR Inten    --      0.4984                14.5664                 3.1414

                     46                     47                     48
                      A                      A                      A
 Frequencies --   1113.9148              1150.8828              1154.9514
 Red. masses --      1.9355                 1.1579                 1.7013
 Frc consts  --      1.4150                 0.9037                 1.3371
 IR Inten    --      6.5042                 1.7590                12.7156

                     49                     50                     51
                      A                      A                      A
 Frequencies --   1163.3162              1190.0026              1259.4409
 Red. masses --      1.7901                 1.7083                 2.1208
 Frc consts  --      1.4273                 1.4253                 1.9820
 IR Inten    --      8.0593                 9.5562                37.2385

                     52                     53                     54
                      A                      A                      A
 Frequencies --   1273.1347              1294.5536              1306.0680
 Red. masses --      2.2473                 1.4423                 1.2362
 Frc consts  --      2.1462                 1.4241                 1.2425
 IR Inten    --     52.8237                48.7911                 0.5449

                     55                     56                     57
                      A                      A                      A
 Frequencies --   1310.4002              1321.9010              1347.8590
 Red. masses --      1.3310                 1.3304                 1.5046
 Frc consts  --      1.3466                 1.3697                 1.6105
 IR Inten    --     18.3403                 7.2914                20.8347

                     58                     59                     60
                      A                      A                      A
 Frequencies --   1369.1909              1372.0425              1374.2487
 Red. masses --      1.5267                 1.3309                 1.3751
 Frc consts  --      1.6863                 1.4761                 1.5301
 IR Inten    --      4.9020                 4.3853                 9.0660

                     61                     62                     63
                      A                      A                      A
 Frequencies --   1382.8202              1402.0676              1406.1526
 Red. masses --      1.4030                 1.3997                 1.3648
 Frc consts  --      1.5806                 1.6211                 1.5900
 IR Inten    --     13.5435                17.7892                 7.2013

                     64                     65                     66
                      A                      A                      A
 Frequencies --   1411.9405              1415.1806              1417.3961
 Red. masses --      1.4236                 1.3402                 1.3775
 Frc consts  --      1.6721                 1.5814                 1.6305
 IR Inten    --      8.2369                 3.6675                23.8211

                     67                     68                     69
                      A                      A                      A
 Frequencies --   1420.0230              1436.0698              1447.2392
 Red. masses --      1.4020                 1.2501                 1.3239
 Frc consts  --      1.6656                 1.5190                 1.6338
 IR Inten    --     21.7246                12.3188                 8.7515

                     70                     71                     72
                      A                      A                      A
 Frequencies --   1501.9687              1511.2316              1514.9857
 Red. masses --      1.0840                 1.0907                 1.0825
 Frc consts  --      1.4407                 1.4676                 1.4638
 IR Inten    --      1.4027                 1.7484                 0.9705

                     73                     74                     75
                      A                      A                      A
 Frequencies --   1518.0550              1522.4110              1527.7926
 Red. masses --      1.0783                 1.0505                 1.0665
 Frc consts  --      1.4640                 1.4345                 1.4667
 IR Inten    --      3.9793                 5.7058                 5.1096

                     76                     77                     78
                      A                      A                      A
 Frequencies --   1530.5175              1539.5488              1548.5396
 Red. masses --      1.0911                 1.0841                 1.0842
 Frc consts  --      1.5059                 1.5139                 1.5318
 IR Inten    --      6.8655                 8.5808                 4.2969

                     79                     80                     81
                      A                      A                      A
 Frequencies --   2257.5688              2358.9876              2969.3871
 Red. masses --     13.9206                12.6302                 1.0829
 Frc consts  --     41.8014                41.4108                 5.6258
 IR Inten    --    435.4010                 1.9902                43.7716

                     82                     83                     84
                      A                      A                      A
 Frequencies --   3021.0487              3023.4630              3040.5267
 Red. masses --      1.0666                 1.0667                 1.0638
 Frc consts  --      5.7357                 5.7452                 5.7942
 IR Inten    --     51.5112                24.6829                26.5720

                     85                     86                     87
                      A                      A                      A
 Frequencies --   3043.1366              3049.0251              3051.9861
 Red. masses --      1.0661                 1.0619                 1.0390
 Frc consts  --      5.8170                 5.8167                 5.7019
 IR Inten    --      7.6562                18.1115                32.7861

                     88                     89                     90
                      A                      A                      A
 Frequencies --   3056.4518              3065.1475              3073.1240
 Red. masses --      1.0718                 1.0680                 1.0968
 Frc consts  --      5.8994                 5.9116                 6.1029
 IR Inten    --     31.2749                13.3558                23.8746

                     91                     92                     93
                      A                      A                      A
 Frequencies --   3074.4625              3082.9966              3089.8232
 Red. masses --      1.0934                 1.1020                 1.0955
 Frc consts  --      6.0894                 6.1713                 6.1620
 IR Inten    --     56.7394                41.5113                40.3480

                     94                     95                     96
                      A                      A                      A
 Frequencies --   3095.4859              3113.1809              3116.5155
 Red. masses --      1.1016                 1.0919                 1.1015
 Frc consts  --      6.2192                 6.2349                 6.3034
 IR Inten    --     84.4072                27.2394                43.4514

                     97                     98                     99
                      A                      A                      A
 Frequencies --   3117.3536              3140.2154              3141.1024
 Red. masses --      1.0856                 1.0976                 1.0990
 Frc consts  --      6.2155                 6.3770                 6.3889
 IR Inten    --      6.7337                23.6769                24.0297

 - Thermochemistry -
 -------------------
 Temperature   298.150 Kelvin.  Pressure   1.00000 Atm.
 Atom     1 has atomic number  6 and mass  12.00000

 Molecular mass:   221.16405 amu.
 Principal axes and moments of inertia in atomic units:
                           1         2         3
     Eigenvalues --  2380.518785127.315445895.41607
           X            0.99994   0.00908   0.00533
           Y           -0.00905   0.99994  -0.00621
           Z           -0.00538   0.00616   0.99997
 This molecule is an asymmetric top.
 Rotational symmetry number  1.
 Warning -- assumption of classical behavior for rotation
           may cause significant error
 Rotational temperatures (Kelvin)      0.03638     0.01689     0.01469
 Rotational constants (GHZ):           0.75813     0.35199     0.30613
 Zero-point vibrational energy     801205.2 (Joules/Mol)
                                  191.49265 (Kcal/Mol)
 Warning -- explicit consideration of  25 degrees of freedom as
           vibrations may cause significant error
 Vibrational temperatures:     35.96    53.47    77.98   107.71   123.23
          (Kelvin)            146.16   186.74   212.74   255.39   285.05
                              339.79   370.74   396.14   444.07   477.86
                              501.99   551.80   605.58   645.75   667.26
                              721.14   764.42   779.05   821.53   840.57
                              927.79  1052.99  1103.06  1144.93  1147.53
                             1172.12  1193.71  1264.04  1274.46  1282.74
                             1329.45  1368.58  1387.22  1457.92  1485.53
                             1503.94  1516.94  1522.67  1574.87  1586.69
                             1602.67  1655.86  1661.72  1673.75  1712.15
                             1812.05  1831.76  1862.57  1879.14  1885.37
                             1901.92  1939.27  1969.96  1974.06  1977.24
                             1989.57  2017.26  2023.14  2031.47  2036.13
                             2039.32  2043.10  2066.18  2082.25  2161.00
                             2174.33  2179.73  2184.14  2190.41  2198.15
                             2202.07  2215.07  2228.00  3248.14  3394.06
                             4272.29  4346.62  4350.09  4374.64  4378.39
                             4386.87  4391.13  4397.55  4410.06  4421.54
                             4423.47  4435.74  4445.57  4453.71  4479.17
                             4483.97  4485.18  4518.07  4519.35

 Zero-point correction=                           0.305163 (Hartree/Particle)
 Thermal correction to Energy=                    0.321474
 Thermal correction to Enthalpy=                  0.322418
 Thermal correction to Gibbs Free Energy=         0.260081
 Sum of electronic and zero-point Energies=           -704.034895
 Sum of electronic and thermal Energies=              -704.018584
 Sum of electronic and thermal Enthalpies=            -704.017640
 Sum of electronic and thermal Free Energies=         -704.079978

                     E (Thermal)             CV                S
                      KCal/Mol        Cal/Mol-Kelvin    Cal/Mol-Kelvin
 Total                  201.728             60.969            131.201
 Electronic               0.000              0.000              0.000
 Translational            0.889              2.981             42.084
 Rotational               0.889              2.981             32.642
 Vibrational            199.951             55.007             56.475
 Vibration     1          0.593              1.985              6.192
 Vibration     2          0.594              1.982              5.405
 Vibration     3          0.596              1.976              4.658
 Vibration     4          0.599              1.966              4.021
 Vibration     5          0.601              1.959              3.757
 Vibration     6          0.604              1.948              3.424
 Vibration     7          0.612              1.923              2.949
 Vibration     8          0.617              1.905              2.700
 Vibration     9          0.628              1.870              2.355
 Vibration    10          0.637              1.843              2.150
 Vibration    11          0.655              1.785              1.832
 Vibration    12          0.667              1.750              1.677
 Vibration    13          0.677              1.719              1.563
 Vibration    14          0.698              1.657              1.370
 Vibration    15          0.714              1.611              1.250
 Vibration    16          0.726              1.578              1.171
 Vibration    17          0.753              1.505              1.025
 Vibration    18          0.783              1.425              0.889
 Vibration    19          0.808              1.363              0.799
 Vibration    20          0.821              1.330              0.755
 Vibration    21          0.857              1.247              0.655
 Vibration    22          0.886              1.181              0.584
 Vibration    23          0.897              1.158              0.562
 Vibration    24          0.927              1.094              0.502
 Vibration    25          0.941              1.065              0.478

                           ! Non-Optimized Parameters !
 Normal termination of Gaussian 16 at Thu Dec 10 22:51:59 2020.

 ----------------------------------------------------------------------
 # B3LYP/6-311++G(d,p) empiricaldispersion=gd3bj scf=xqc pop=npa geom=c
 heck
 ----------------------------------------------------------------------

 ---------------------------------------
 CID_150807307_JID_6380_Energie_neutraal
 ---------------------------------------
 Structure from the checkpoint file:  "JID_6380.chk"
 Charge =  0 Multiplicity = 1

 SCF Done:  E(RB3LYP) =  -704.530775699     A.U. after   16 cycles
 Normal termination of Gaussian 16 at Thu Dec 10 22:58:37 2020.

 ----------------------------------------------------------------------
 # B3LYP/6-311++G(d,p) empiricaldispersion=gd3bj scf=xqc pop=npa geom=c
 heck
 ----------------------------------------------------------------------

 -------------------------------------
 CID_150807307_JID_6380_Energie_kation
 -------------------------------------
 Structure from the checkpoint file:  "JID_6380.chk"
 Charge =  1 Multiplicity = 2

 SCF Done:  E(UB3LYP) =  -704.240869283     A.U. after   24 cycles
 Normal termination of Gaussian 16 at Thu Dec 10 23:12:04 2020.
 Gaussian 16:  ES64L-G16RevA.03 25-Dec-2016

 ----------------------------------------------------------------------
 # B3LYP/6-311++G(d,p) empiricaldispersion=gd3bj scf=xqc pop=npa geom=c
 heck
 ----------------------------------------------------------------------

 ------------------------------------
 CID_150807307_JID_6380_Energie_anion
 ------------------------------------
 Structure from the checkpoint file:  "JID_6380.chk"
 Charge = -1 Multiplicity = 2

                         Standard orientation:
 ---------------------------------------------------------------------
 Center     Atomic      Atomic             Coordinates (Angstroms)
 Number     Number       Type             X           Y           Z
 ---------------------------------------------------------------------
      1          6           0       -1.680446    2.925384   -0.825957
      2          6           0       -0.781673    2.254827    0.214806
      3          7           0       -0.528251    0.837208   -0.071909
      4          6           0        0.767214    0.585940   -0.642782
      5          6           0        2.021331    0.835750    0.266041
      6          6           0        2.058685   -0.015986    1.463619
      7          7           0        2.111518   -0.712068    2.391079
      8          7           0        3.272123    0.709438   -0.522071
      9          7           0        3.535169   -0.440912   -0.908670
     10          7           0        3.903702   -1.440713   -1.313826
     11          6           0       -1.114010   -0.123676    0.886700
     12          6           0       -2.650950    0.026231    0.912216
     13          6           0       -3.312889   -0.432013   -0.393497
     14          6           0       -2.950290   -1.884933   -0.721808
     15          6           0       -1.428670   -2.071136   -0.758234
     16          6           0       -0.783039   -1.589016    0.547966
     17          1           0       -1.252646    2.817373   -1.828846
     18          1           0       -1.789434    3.995870   -0.614318
     19          1           0       -2.675720    2.472545   -0.837392
     20          1           0        0.168216    2.805686    0.261198
     21          1           0       -1.221266    2.352844    1.214155
     22          1           0        0.825963   -0.435365   -1.024530
     23          1           0        0.912132    1.250549   -1.502441
     24          1           0        2.019658    1.876090    0.598769
     25          1           0       -0.737096    0.079303    1.903446
     26          1           0       -3.024534   -0.583823    1.745817
     27          1           0       -2.936672    1.058319    1.141967
     28          1           0       -2.977220    0.213723   -1.213614
     29          1           0       -4.401093   -0.316419   -0.317423
     30          1           0       -3.395399   -2.183874   -1.678734
     31          1           0       -3.376021   -2.548221    0.045408
     32          1           0       -1.021265   -1.509897   -1.609478
     33          1           0       -1.175352   -3.125127   -0.925036
     34          1           0        0.295551   -1.766291    0.544674
     35          1           0       -1.169209   -2.192189    1.379732
 ---------------------------------------------------------------------

 SCF Done:  E(UB3LYP) =  -704.532489841     A.U. after   30 cycles

 The electronic state is 2-A.
 Alpha  occ. eigenvalues --  -14.32061 -14.22875 -14.22838 -14.20755 -14.20580
 Alpha  occ. eigenvalues --  -10.13615 -10.10475 -10.10475 -10.10472 -10.09710
 Alpha  occ. eigenvalues --  -10.07498 -10.07298 -10.07113 -10.07025 -10.07001
 Alpha  occ. eigenvalues --  -10.06145  -0.99774  -0.85002  -0.82903  -0.80223
 Alpha  occ. eigenvalues --   -0.73385  -0.68513  -0.66079  -0.64969  -0.62977
 Alpha  occ. eigenvalues --   -0.56671  -0.52644  -0.51489  -0.49457  -0.47067
 Alpha  occ. eigenvalues --   -0.44697  -0.41649  -0.39920  -0.38493  -0.38005
 Alpha  occ. eigenvalues --   -0.36971  -0.35685  -0.34990  -0.33446  -0.33258
 Alpha  occ. eigenvalues --   -0.32825  -0.30969  -0.30388  -0.29715  -0.29169
 Alpha  occ. eigenvalues --   -0.28694  -0.27767  -0.27618  -0.26762  -0.25722
 Alpha  occ. eigenvalues --   -0.24915  -0.24247  -0.23687  -0.23417  -0.23009
 Alpha  occ. eigenvalues --   -0.21297  -0.20687  -0.18548  -0.13769  -0.10620
 Alpha  occ. eigenvalues --    0.04177
 Alpha virt. eigenvalues --    0.05910   0.06886   0.07606   0.08107   0.09141
 Alpha virt. eigenvalues --    0.09430   0.09616   0.10605   0.10816   0.11503
 Alpha virt. eigenvalues --    0.12192   0.12442   0.12577   0.12716   0.13002

  Beta  occ. eigenvalues --  -14.31691 -14.22901 -14.22333 -14.20716 -14.20584
  Beta  occ. eigenvalues --  -10.13482 -10.10473 -10.10468 -10.10462 -10.09681
  Beta  occ. eigenvalues --  -10.07491 -10.07296 -10.07103 -10.07016 -10.06999
  Beta  occ. eigenvalues --  -10.06118  -0.99033  -0.84689  -0.82836  -0.80140
  Beta  occ. eigenvalues --   -0.73368  -0.68316  -0.66043  -0.64938  -0.62885
  Beta  occ. eigenvalues --   -0.56586  -0.52602  -0.51459  -0.49413  -0.46785
  Beta  occ. eigenvalues --   -0.44647  -0.41259  -0.39839  -0.38387  -0.37691
  Beta  occ. eigenvalues --   -0.36626  -0.35531  -0.34246  -0.33348  -0.33165
  Beta  occ. eigenvalues --   -0.32438  -0.30343  -0.29960  -0.29667  -0.29032
  Beta  occ. eigenvalues --   -0.28667  -0.27717  -0.27589  -0.26668  -0.25681
  Beta  occ. eigenvalues --   -0.24893  -0.24165  -0.23588  -0.23350  -0.22957
  Beta  occ. eigenvalues --   -0.21274  -0.20667  -0.17600  -0.13622  -0.10553
  Beta virt. eigenvalues --    0.06113   0.07193   0.07690   0.08235   0.09149
  Beta virt. eigenvalues --    0.09516   0.09688   0.10522   0.10699   0.10961
  Beta virt. eigenvalues --    0.11888   0.12336   0.12557   0.12748   0.12814

 Mulliken charges and spin densities:
               1          2
     1  C    0.729624  -1.242793
     2  C   -0.650392   0.514830
     3  N    0.198049   0.047620
     4  C   -0.085066  -0.589073
     5  C    0.675299  -0.317730
     6  C   -0.421501  -0.053035
     7  N   -0.256710   0.009453
     8  N   -0.483407   0.119460
     9  N    0.565225   0.055113
    10  N   -0.287800   0.266148
    11  C   -0.156378   0.218641
    12  C   -0.360614  -0.050527
    13  C   -0.052317  -0.104555
    14  C   -0.140256  -0.475425
    15  C   -0.333274   0.131427
    16  C   -0.154460  -0.337875
    17  H   -0.054960   0.202933
    18  H   -0.329601   0.457520
    19  H   -0.095183   0.229395
    20  H    0.031509   0.064020
    21  H   -0.105045   0.280634
    22  H    0.213427  -0.010155
    23  H   -0.112360   0.321769
    24  H   -0.373201   0.634185
    25  H    0.218705  -0.012457
    26  H    0.046374   0.098832
    27  H    0.018490   0.116480
    28  H    0.274509  -0.151077
    29  H   -0.198811   0.367901
    30  H   -0.045547   0.206353
    31  H    0.120286  -0.005404
    32  H    0.083050   0.014586
    33  H    0.151322   0.011996
    34  H    0.236609  -0.039998
    35  H    0.134405   0.020812
 Sum of Mulliken charges =  -1.00000   1.00000

 Dipole moment (field-independent basis, Debye):
    X=             -5.4329    Y=             -2.2456    Z=              0.1091  Tot=              5.8797
 Quadrupole moment (field-independent basis, Debye-Ang):
   XX=           -170.1108   YY=           -140.3085   ZZ=           -129.1220
   XY=              9.9097   XZ=              0.1514   YZ=              1.6795

 Summary of Natural Population Analysis:

                                       Natural Population
                Natural  -----------------------------------------------
    Atom  No    Charge         Core      Valence    Rydberg      Total
 -----------------------------------------------------------------------
      C    1   -0.28660      0.99965     2.28158    0.00536     3.28660
      C    2   -0.08340      0.99961     2.07291    0.01087     3.08340
      N    3   -0.29623      0.99968     2.78187    0.01467     3.79623
      C    4   -0.07984      0.99958     2.06740    0.01285     3.07984
      C    5   -0.06912      0.99947     2.05634    0.01331     3.06912
      C    6    0.15456      0.99963     1.82710    0.01871     2.84544
      N    7   -0.18389      0.99979     2.67330    0.01080     3.68389
      N    8   -0.21602      0.99972     2.70151    0.01479     3.71602
      N    9    0.13694      0.99970     2.34700    0.01636     3.36306
      N   10    0.02140      0.99982     2.46601    0.01277     3.47860
      C   11    0.00342      0.99957     1.98547    0.01154     2.99658
      C   12   -0.19323      0.99961     2.18390    0.00972     3.19323
      C   13   -0.19489      0.99962     2.18676    0.00851     3.19489
      C   14   -0.18903      0.99963     2.18062    0.00877     3.18903
      C   15   -0.19193      0.99963     2.18493    0.00736     3.19193
      C   16   -0.19803      0.99961     2.19084    0.00758     3.19803
      H   17    0.09827      0.00000     0.40062    0.00112     0.40173
      H   18    0.09661      0.00000     0.40221    0.00118     0.40339
      H   19    0.09608      0.00000     0.40267    0.00125     0.40392
      H   20    0.09102      0.00000     0.40700    0.00197     0.40898
      H   21    0.09107      0.00000     0.40747    0.00146     0.40893
      H   22    0.10091      0.00000     0.39771    0.00139     0.39909
      H   23    0.10490      0.00000     0.39378    0.00132     0.39510
      H   24    0.11728      0.00000     0.37972    0.00300     0.38272
      H   25    0.09070      0.00000     0.40776    0.00155     0.40930
      H   26    0.09470      0.00000     0.40433    0.00097     0.40530
      H   27    0.10098      0.00000     0.39799    0.00103     0.39902
      H   28    0.10011      0.00000     0.39831    0.00159     0.39989
      H   29    0.09638      0.00000     0.40271    0.00091     0.40362
      H   30    0.09639      0.00000     0.40282    0.00080     0.40361
      H   31    0.08942      0.00000     0.40955    0.00103     0.41058
      H   32    0.09706      0.00000     0.40164    0.00131     0.40294
      H   33    0.09665      0.00000     0.40252    0.00083     0.40335
      H   34    0.10851      0.00000     0.39019    0.00130     0.39149
      H   35    0.09887      0.00000     0.40018    0.00096     0.40113
 =======================================================================
   * Total *    0.00000     15.99434    43.79671    0.20895    60.00000

 Normal termination of Gaussian 16 at Thu Dec 10 23:26:48 2020.
