 Gaussian 16, Revision A.03,

 -----------------------------------------------------------
 # opt freq B3LYP/6-31G(d) empiricaldispersion=gd3bj scf=xqc
 -----------------------------------------------------------

 ------------------------------
 CID_43210734_JID_6217_neutraal
 ------------------------------
 Symbolic Z-matrix:
 Charge =  0 Multiplicity = 1

 SCF Done:  E(RB3LYP) =  -1107.80058863     A.U. after   14 cycles
 SCF Done:  E(RB3LYP) =  -1107.80959330     A.U. after   12 cycles
 SCF Done:  E(RB3LYP) =  -1107.80947791     A.U. after   12 cycles
 SCF Done:  E(RB3LYP) =  -1107.81075480     A.U. after   13 cycles
 SCF Done:  E(RB3LYP) =  -1107.81333310     A.U. after   12 cycles
 SCF Done:  E(RB3LYP) =  -1107.81378156     A.U. after   12 cycles
 SCF Done:  E(RB3LYP) =  -1107.81393778     A.U. after   13 cycles
 SCF Done:  E(RB3LYP) =  -1107.81400210     A.U. after   13 cycles
 SCF Done:  E(RB3LYP) =  -1107.81443510     A.U. after   12 cycles
 SCF Done:  E(RB3LYP) =  -1107.81450159     A.U. after   10 cycles
 SCF Done:  E(RB3LYP) =  -1107.81473043     A.U. after   11 cycles
 SCF Done:  E(RB3LYP) =  -1107.81472536     A.U. after   10 cycles
 SCF Done:  E(RB3LYP) =  -1107.81473074     A.U. after   10 cycles
 SCF Done:  E(RB3LYP) =  -1107.81472736     A.U. after   10 cycles
 SCF Done:  E(RB3LYP) =  -1107.81473082     A.U. after    9 cycles
 SCF Done:  E(RB3LYP) =  -1107.81473084     A.U. after    7 cycles
 Optimization completed.
    -- Stationary point found.
 Normal termination of Gaussian 16 at Thu Dec 10 21:38:40 2020.

 --------------------------------------------------------------------
 #N Geom=AllCheck Guess=TCheck SCRF=Check GenChk RB3LYP/6-31G(d) Freq
 --------------------------------------------------------------------

 Structure from the checkpoint file:  "JID_6217.chk"
 ------------------------------
 CID_43210734_JID_6217_neutraal
 ------------------------------
 Charge =  0 Multiplicity = 1

 SCF Done:  E(RB3LYP) =  -1107.81473084     A.U. after    1 cycles

  Exact polarizability: 163.589   0.649 141.639  -2.304  -1.351 125.802
 Approx polarizability: 205.295  -4.298 207.467   2.195  -2.475 200.940

                      1                      2                      3
                      A                      A                      A
 Frequencies --     39.9820                43.4131                61.2931
 Red. masses --      4.1677                 3.7921                 3.3445
 Frc consts  --      0.0039                 0.0042                 0.0074
 IR Inten    --      0.9273                 0.7534                 0.3079

                      4                      5                      6
                      A                      A                      A
 Frequencies --     76.0802               107.7301               145.9560
 Red. masses --      3.6611                 3.9534                 3.4385
 Frc consts  --      0.0125                 0.0270                 0.0432
 IR Inten    --      1.4860                 3.8131                 2.0975

                      7                      8                      9
                      A                      A                      A
 Frequencies --    154.4454               187.0426               194.0132
 Red. masses --      2.6664                 3.8048                 2.3465
 Frc consts  --      0.0375                 0.0784                 0.0520
 IR Inten    --      0.6451                 5.7083                 0.1562

                     10                     11                     12
                      A                      A                      A
 Frequencies --    197.8318               217.9972               227.9516
 Red. masses --      1.3788                 1.4574                 1.5735
 Frc consts  --      0.0318                 0.0408                 0.0482
 IR Inten    --      0.0503                 1.3376                 0.7923

                     13                     14                     15
                      A                      A                      A
 Frequencies --    251.0607               258.2788               322.7591
 Red. masses --      2.9653                 2.3996                 2.5707
 Frc consts  --      0.1101                 0.0943                 0.1578
 IR Inten    --      5.2553                 1.6971                 5.0616

                     16                     17                     18
                      A                      A                      A
 Frequencies --    324.2890               334.7982               354.7594
 Red. masses --      3.0047                 3.7796                 2.3985
 Frc consts  --      0.1862                 0.2496                 0.1778
 IR Inten    --      6.3769                 6.7267                20.1799

                     19                     20                     21
                      A                      A                      A
 Frequencies --    380.7055               391.5122               393.4052
 Red. masses --      1.6576                 1.9723                 2.0516
 Frc consts  --      0.1415                 0.1781                 0.1871
 IR Inten    --     27.0767                12.8486                 6.4033

                     22                     23                     24
                      A                      A                      A
 Frequencies --    425.5009               455.9101               489.7919
 Red. masses --      2.8457                 2.9898                 2.5050
 Frc consts  --      0.3036                 0.3661                 0.3541
 IR Inten    --      3.1640                 3.8749                10.9356

                     25                     26                     27
                      A                      A                      A
 Frequencies --    504.9041               514.3106               538.8926
 Red. masses --      4.0046                 5.2496                 3.1463
 Frc consts  --      0.6015                 0.8181                 0.5383
 IR Inten    --      7.7927                 8.7938                 3.8876

                     28                     29                     30
                      A                      A                      A
 Frequencies --    586.5820               615.1432               679.2991
 Red. masses --      3.8134                 2.9653                 3.2913
 Frc consts  --      0.7731                 0.6611                 0.8948
 IR Inten    --     25.2870                41.7220                28.4104

                     31                     32                     33
                      A                      A                      A
 Frequencies --    722.2365               793.4395               814.0966
 Red. masses --      3.5504                 1.5548                 3.0206
 Frc consts  --      1.0912                 0.5767                 1.1795
 IR Inten    --     83.5032                24.9369                28.1424

                     34                     35                     36
                      A                      A                      A
 Frequencies --    832.5088               855.3979               873.6308
 Red. masses --      1.6008                 2.5904                 2.4240
 Frc consts  --      0.6537                 1.1168                 1.0900
 IR Inten    --     13.2947                10.1310                14.4131

                     37                     38                     39
                      A                      A                      A
 Frequencies --    892.2409               899.7225               919.1770
 Red. masses --      1.3641                 1.7568                 1.8931
 Frc consts  --      0.6398                 0.8379                 0.9424
 IR Inten    --    129.1452               118.1270                41.3109

                     40                     41                     42
                      A                      A                      A
 Frequencies --    936.2378               980.6478               986.6521
 Red. masses --      2.3255                 1.9009                 1.7661
 Frc consts  --      1.2010                 1.0770                 1.0130
 IR Inten    --    124.8629                27.5393                 0.0984

                     43                     44                     45
                      A                      A                      A
 Frequencies --   1002.1429              1037.3117              1048.2017
 Red. masses --      1.8869                 1.5109                 1.7462
 Frc consts  --      1.1165                 0.9578                 1.1304
 IR Inten    --     17.3506                 8.5161                23.6800

                     46                     47                     48
                      A                      A                      A
 Frequencies --   1066.9746              1082.0017              1083.9616
 Red. masses --      2.0164                 2.2158                 2.0836
 Frc consts  --      1.3525                 1.5284                 1.4424
 IR Inten    --     14.8565                19.3378                 4.0306

                     49                     50                     51
                      A                      A                      A
 Frequencies --   1103.1653              1108.9103              1131.1027
 Red. masses --      1.6217                 6.0779                 1.9498
 Frc consts  --      1.1628                 4.4035                 1.4697
 IR Inten    --     17.2706               103.4825                14.5198

                     52                     53                     54
                      A                      A                      A
 Frequencies --   1153.4057              1160.9536              1176.3995
 Red. masses --      1.9175                 1.3877                 2.3643
 Frc consts  --      1.5030                 1.1020                 1.9278
 IR Inten    --     40.8545                 9.7460                 6.5501

                     55                     56                     57
                      A                      A                      A
 Frequencies --   1196.1609              1203.7622              1229.5832
 Red. masses --      2.5944                 1.5443                 1.4049
 Frc consts  --      2.1871                 1.3184                 1.2514
 IR Inten    --     15.3675                11.2801                 6.8660

                     58                     59                     60
                      A                      A                      A
 Frequencies --   1238.9178              1247.3807              1282.6911
 Red. masses --      1.7952                 2.0489                 1.4144
 Frc consts  --      1.6235                 1.8783                 1.3711
 IR Inten    --     22.2213                 6.6592                 8.4302

                     61                     62                     63
                      A                      A                      A
 Frequencies --   1298.3099              1309.9805              1339.8118
 Red. masses --      7.6054                 1.2976                 1.1815
 Frc consts  --      7.5531                 1.3119                 1.2496
 IR Inten    --    225.2214                10.0103                 2.1711

                     64                     65                     66
                      A                      A                      A
 Frequencies --   1345.9370              1355.8407              1370.4417
 Red. masses --      1.3876                 1.4134                 1.1639
 Frc consts  --      1.4810                 1.5308                 1.2880
 IR Inten    --      3.3545                 8.1790                 2.9864

                     67                     68                     69
                      A                      A                      A
 Frequencies --   1382.9724              1398.7124              1400.7046
 Red. masses --      1.3823                 1.3442                 1.4047
 Frc consts  --      1.5576                 1.5494                 1.6237
 IR Inten    --      2.8778                11.8675                 0.8683

                     70                     71                     72
                      A                      A                      A
 Frequencies --   1405.9134              1411.2826              1418.4157
 Red. masses --      1.3119                 1.4192                 1.3248
 Frc consts  --      1.5278                 1.6654                 1.5704
 IR Inten    --      3.6304                 4.1535                 4.6674

                     73                     74                     75
                      A                      A                      A
 Frequencies --   1436.3020              1444.7760              1452.7203
 Red. masses --      1.2539                 1.3173                 1.3998
 Frc consts  --      1.5241                 1.6201                 1.7405
 IR Inten    --      7.4883                20.2216                 9.7925

                     76                     77                     78
                      A                      A                      A
 Frequencies --   1472.7546              1506.4526              1510.4099
 Red. masses --      1.1806                 1.0896                 1.0880
 Frc consts  --      1.5088                 1.4569                 1.4624
 IR Inten    --      2.5244                 2.4391                 1.6957

                     79                     80                     81
                      A                      A                      A
 Frequencies --   1513.3341              1514.2071              1525.5110
 Red. masses --      1.0694                 1.0764                 1.0484
 Frc consts  --      1.4429                 1.4540                 1.4375
 IR Inten    --      4.7149                 2.6558                 6.5853

                     82                     83                     84
                      A                      A                      A
 Frequencies --   1527.7795              1530.3321              1533.0041
 Red. masses --      1.0702                 1.0690                 1.0678
 Frc consts  --      1.4717                 1.4750                 1.4786
 IR Inten    --      6.6071                 4.3570                 6.8860

                     85                     86                     87
                      A                      A                      A
 Frequencies --   1535.2745              1537.3301              1538.8312
 Red. masses --      1.0640                 1.0800                 1.0831
 Frc consts  --      1.4776                 1.5039                 1.5112
 IR Inten    --      4.4135                 7.7361                 6.4315

                     88                     89                     90
                      A                      A                      A
 Frequencies --   1721.2693              2964.9846              3032.2143
 Red. masses --      1.0845                 1.0728                 1.0714
 Frc consts  --      1.8931                 5.5569                 5.8038
 IR Inten    --     22.8778                73.2967                29.0271

                     91                     92                     93
                      A                      A                      A
 Frequencies --   3033.8313              3039.7084              3046.6683
 Red. masses --      1.0671                 1.0452                 1.0616
 Frc consts  --      5.7866                 5.6901                 5.8059
 IR Inten    --     22.9839                28.1337                21.6437

                     94                     95                     96
                      A                      A                      A
 Frequencies --   3047.2143              3052.9723              3057.7981
 Red. masses --      1.0646                 1.0598                 1.0624
 Frc consts  --      5.8241                 5.8200                 5.8524
 IR Inten    --     66.9260                19.3265                 8.4438

                     97                     98                     99
                      A                      A                      A
 Frequencies --   3063.7390              3071.8726              3082.7510
 Red. masses --      1.0501                 1.0879                 1.0949
 Frc consts  --      5.8074                 6.0487                 6.1307
 IR Inten    --     35.2686                65.1421                45.6731

                    100                    101                    102
                      A                      A                      A
 Frequencies --   3091.9782              3092.5126              3105.7506
 Red. masses --      1.1007                 1.1030                 1.1012
 Frc consts  --      6.2000                 6.2151                 6.2585
 IR Inten    --     40.5452                37.7567                32.2609

                    103                    104                    105
                      A                      A                      A
 Frequencies --   3119.4457              3123.0628              3131.6061
 Red. masses --      1.0924                 1.0931                 1.0990
 Frc consts  --      6.2631                 6.2815                 6.3503
 IR Inten    --      6.3747                17.7140                21.0140

                    106                    107                    108
                      A                      A                      A
 Frequencies --   3140.8065              3163.7634              3165.4759
 Red. masses --      1.0975                 1.0911                 1.0935
 Frc consts  --      6.3789                 6.4349                 6.4559
 IR Inten    --     29.6460                 2.8018                 2.1255

                    109                    110                    111
                      A                      A                      A
 Frequencies --   3166.8564              3469.9755              3556.3795
 Red. masses --      1.1019                 1.0504                 1.0929
 Frc consts  --      6.5107                 7.4518                 8.1441
 IR Inten    --      8.8952                19.6104                11.3290

 - Thermochemistry -
 -------------------
 Temperature   298.150 Kelvin.  Pressure   1.00000 Atm.
 Atom     1 has atomic number  6 and mass  12.00000

 Molecular mass:   249.15110 amu.
 Principal axes and moments of inertia in atomic units:
                           1         2         3
     Eigenvalues --  2485.354874708.724395544.26450
           X            0.99995   0.00867  -0.00522
           Y           -0.00876   0.99979  -0.01842
           Z            0.00506   0.01846   0.99982
 This molecule is an asymmetric top.
 Rotational symmetry number  1.
 Warning -- assumption of classical behavior for rotation
           may cause significant error
 Rotational temperatures (Kelvin)      0.03485     0.01839     0.01562
 Rotational constants (GHZ):           0.72615     0.38328     0.32551
 Zero-point vibrational energy     915709.3 (Joules/Mol)
                                  218.85976 (Kcal/Mol)
 Warning -- explicit consideration of  29 degrees of freedom as
           vibrations may cause significant error
 Vibrational temperatures:     57.53    62.46    88.19   109.46   155.00
          (Kelvin)            210.00   222.21   269.11   279.14   284.64
                              313.65   327.97   361.22   371.61   464.38
                              466.58   481.70   510.42   547.75   563.30
                              566.02   612.20   655.95   704.70   726.44
                              739.98   775.35   843.96   885.05   977.36
                             1039.14  1141.58  1171.30  1197.79  1230.73
                             1256.96  1283.74  1294.50  1322.49  1347.04
                             1410.93  1419.57  1441.86  1492.46  1508.13
                             1535.14  1556.76  1559.58  1587.21  1595.47
                             1627.40  1659.49  1670.35  1692.58  1721.01
                             1731.95  1769.10  1782.53  1794.70  1845.51
                             1867.98  1884.77  1927.69  1936.50  1950.75
                             1971.76  1989.79  2012.44  2015.30  2022.80
                             2030.52  2040.78  2066.52  2078.71  2090.14
                             2118.97  2167.45  2173.14  2177.35  2178.61
                             2194.87  2198.13  2201.81  2205.65  2208.92
                             2211.88  2214.03  2476.52  4265.95  4362.68
                             4365.01  4373.46  4383.48  4384.26  4392.55
                             4399.49  4408.04  4419.74  4435.39  4448.67
                             4449.44  4468.48  4488.19  4493.39  4505.68
                             4518.92  4551.95  4554.41  4556.40  4992.52
                             5116.84

 Zero-point correction=                           0.348775 (Hartree/Particle)
 Thermal correction to Energy=                    0.366278
 Thermal correction to Enthalpy=                  0.367222
 Thermal correction to Gibbs Free Energy=         0.304034
 Sum of electronic and zero-point Energies=          -1107.465956
 Sum of electronic and thermal Energies=             -1107.448453
 Sum of electronic and thermal Enthalpies=           -1107.447509
 Sum of electronic and thermal Free Energies=        -1107.510697

                     E (Thermal)             CV                S
                      KCal/Mol        Cal/Mol-Kelvin    Cal/Mol-Kelvin
 Total                  229.843             67.391            132.992
 Electronic               0.000              0.000              0.000
 Translational            0.889              2.981             42.439
 Rotational               0.889              2.981             32.539
 Vibrational            228.066             61.429             58.013
 Vibration     1          0.594              1.981              5.260
 Vibration     2          0.595              1.980              5.097
 Vibration     3          0.597              1.973              4.415
 Vibration     4          0.599              1.965              3.990
 Vibration     5          0.606              1.943              3.309
 Vibration     6          0.617              1.907              2.724
 Vibration     7          0.620              1.898              2.617
 Vibration     8          0.632              1.858              2.257
 Vibration     9          0.635              1.848              2.189
 Vibration    10          0.637              1.843              2.153
 Vibration    11          0.646              1.814              1.976
 Vibration    12          0.651              1.798              1.895
 Vibration    13          0.663              1.761              1.723
 Vibration    14          0.667              1.749              1.673
 Vibration    15          0.708              1.630              1.296
 Vibration    16          0.709              1.627              1.288
 Vibration    17          0.716              1.606              1.237
 Vibration    18          0.731              1.565              1.145
 Vibration    19          0.750              1.511              1.036
 Vibration    20          0.759              1.488              0.994
 Vibration    21          0.761              1.484              0.987
 Vibration    22          0.787              1.415              0.873
 Vibration    23          0.814              1.348              0.778
 Vibration    24          0.846              1.273              0.684
 Vibration    25          0.860              1.239              0.646
 Vibration    26          0.869              1.218              0.623
 Vibration    27          0.894              1.164              0.568
 Vibration    28          0.944              1.060              0.473
 Vibration    29          0.975              1.000              0.424

 Optimization completed.
    -- Stationary point found.
 Normal termination of Gaussian 16 at Thu Dec 10 21:56:57 2020.

 ----------------------------------------------------------------------
 # B3LYP/6-311++G(d,p) empiricaldispersion=gd3bj scf=xqc pop=npa geom=c
 heck
 ----------------------------------------------------------------------

 --------------------------------------
 CID_43210734_JID_6217_Energie_neutraal
 --------------------------------------
 Structure from the checkpoint file:  "JID_6217.chk"
 Charge =  0 Multiplicity = 1

 SCF Done:  E(RB3LYP) =  -1108.05024026     A.U. after   15 cycles
 Normal termination of Gaussian 16 at Thu Dec 10 22:06:35 2020.

 ----------------------------------------------------------------------
 # B3LYP/6-311++G(d,p) empiricaldispersion=gd3bj scf=xqc pop=npa geom=c
 heck
 ----------------------------------------------------------------------

 ------------------------------------
 CID_43210734_JID_6217_Energie_kation
 ------------------------------------
 Structure from the checkpoint file:  "JID_6217.chk"
 Charge =  1 Multiplicity = 2

 SCF Done:  E(UB3LYP) =  -1107.74615758     A.U. after   27 cycles
 Normal termination of Gaussian 16 at Thu Dec 10 22:32:08 2020.
 Gaussian 16:  ES64L-G16RevA.03 25-Dec-2016

 ----------------------------------------------------------------------
 # B3LYP/6-311++G(d,p) empiricaldispersion=gd3bj scf=xqc pop=npa geom=c
 heck
 ----------------------------------------------------------------------

 -----------------------------------
 CID_43210734_JID_6217_Energie_anion
 -----------------------------------
 Structure from the checkpoint file:  "JID_6217.chk"
 Charge = -1 Multiplicity = 2

                         Standard orientation:
 ---------------------------------------------------------------------
 Center     Atomic      Atomic             Coordinates (Angstroms)
 Number     Number       Type             X           Y           Z
 ---------------------------------------------------------------------
      1          6           0        1.325736    1.608428    1.953924
      2          6           0        1.050507    1.112913    0.532473
      3          6           0        1.998221    1.703403   -0.528212
      4          6           0        3.411637    1.110174   -0.455264
      5          6           0        3.357192   -0.420582   -0.533495
      6          6           0        2.434189   -0.979209    0.551272
      7          7           0        1.087524   -0.375270    0.515028
      8         16           0       -0.031611   -1.099914   -0.498774
      9          8           0       -0.231208   -0.335316   -1.741221
     10          8           0        0.329598   -2.518452   -0.584708
     11          7           0       -1.416254   -0.839573    0.417482
     12          6           0       -1.465323   -1.588938    1.673640
     13          6           0       -2.693934   -0.763198   -0.319518
     14          6           0       -3.565615    0.385304    0.199387
     15          6           0       -2.843798    1.735269    0.187751
     16          7           0       -2.365428    2.061160   -1.157995
     17          1           0        1.222642    2.698198    1.993619
     18          1           0        2.335423    1.359249    2.294511
     19          1           0        0.610117    1.165769    2.653134
     20          1           0        0.028304    1.397847    0.277574
     21          1           0        1.570938    1.491222   -1.514178
     22          1           0        2.030287    2.793844   -0.412063
     23          1           0        3.901577    1.409569    0.481854
     24          1           0        4.025059    1.513788   -1.268911
     25          1           0        4.358296   -0.853503   -0.416824
     26          1           0        2.981316   -0.731708   -1.516758
     27          1           0        2.845131   -0.764986    1.545096
     28          1           0        2.315606   -2.059229    0.469643
     29          1           0       -2.259193   -1.161790    2.291851
     30          1           0       -1.666902   -2.656223    1.511152
     31          1           0       -0.515976   -1.474458    2.198935
     32          1           0       -2.470425   -0.597535   -1.373076
     33          1           0       -3.225003   -1.722143   -0.241928
     34          1           0       -4.454786    0.439453   -0.440022
     35          1           0       -3.910926    0.173505    1.219914
     36          1           0       -3.553593    2.513841    0.491621
     37          1           0       -2.051023    1.710763    0.955905
     38          1           0       -1.981911    3.003669   -1.172678
     39          1           0       -1.610080    1.434035   -1.433910
 ---------------------------------------------------------------------

 SCF Done:  E(UB3LYP) =  -1108.04038694     A.U. after   28 cycles

 The electronic state is 2-A.
 Alpha  occ. eigenvalues --  -88.98494 -19.02763 -19.02762 -14.25541 -14.25058
 Alpha  occ. eigenvalues --  -14.19285 -10.11917 -10.11673 -10.11256 -10.10918
 Alpha  occ. eigenvalues --  -10.09461 -10.07822 -10.07740 -10.07565 -10.07154
 Alpha  occ. eigenvalues --  -10.06383  -8.04442  -6.00703  -6.00686  -6.00622
 Alpha  occ. eigenvalues --   -1.03707  -0.91986  -0.85807  -0.84401  -0.78508
 Alpha  occ. eigenvalues --   -0.71102  -0.68846  -0.67867  -0.63246  -0.61302
 Alpha  occ. eigenvalues --   -0.59087  -0.55207  -0.53189  -0.51416  -0.48567
 Alpha  occ. eigenvalues --   -0.46154  -0.43481  -0.43022  -0.40974  -0.39018
 Alpha  occ. eigenvalues --   -0.38276  -0.37393  -0.37184  -0.36272  -0.36119
 Alpha  occ. eigenvalues --   -0.34781  -0.33547  -0.32727  -0.32490  -0.32074
 Alpha  occ. eigenvalues --   -0.30817  -0.30241  -0.29285  -0.28452  -0.27311
 Alpha  occ. eigenvalues --   -0.26964  -0.26543  -0.25594  -0.25414  -0.25144
 Alpha  occ. eigenvalues --   -0.24315  -0.23684  -0.23263  -0.22116  -0.21600
 Alpha  occ. eigenvalues --   -0.17000  -0.15526  -0.14524   0.04000
 Alpha virt. eigenvalues --    0.06073   0.06743   0.07445   0.08082   0.08444
 Alpha virt. eigenvalues --    0.08592   0.09828   0.09985   0.10430   0.10822
 Alpha virt. eigenvalues --    0.11347   0.11494   0.11967   0.12990   0.13398

  Beta  occ. eigenvalues --  -88.98494 -19.02758 -19.02758 -14.25540 -14.25059
  Beta  occ. eigenvalues --  -14.19272 -10.11913 -10.11667 -10.11236 -10.10881
  Beta  occ. eigenvalues --  -10.09441 -10.07813 -10.07725 -10.07545 -10.07140
  Beta  occ. eigenvalues --  -10.06334  -8.04441  -6.00701  -6.00685  -6.00622
  Beta  occ. eigenvalues --   -1.03698  -0.91976  -0.85798  -0.84392  -0.78482
  Beta  occ. eigenvalues --   -0.71077  -0.68818  -0.67839  -0.63205  -0.61252
  Beta  occ. eigenvalues --   -0.59044  -0.55162  -0.53141  -0.51379  -0.48527
  Beta  occ. eigenvalues --   -0.46120  -0.43452  -0.42998  -0.40942  -0.38984
  Beta  occ. eigenvalues --   -0.38255  -0.37365  -0.37159  -0.36239  -0.36088
  Beta  occ. eigenvalues --   -0.34759  -0.33521  -0.32701  -0.32453  -0.32040
  Beta  occ. eigenvalues --   -0.30779  -0.30208  -0.29246  -0.28421  -0.27286
  Beta  occ. eigenvalues --   -0.26937  -0.26515  -0.25565  -0.25388  -0.25124
  Beta  occ. eigenvalues --   -0.24291  -0.23665  -0.23238  -0.22098  -0.21583
  Beta  occ. eigenvalues --   -0.16987  -0.15516  -0.14502
  Beta virt. eigenvalues --    0.06233   0.06832   0.07466   0.07959   0.08507
  Beta virt. eigenvalues --    0.08795   0.09028   0.10220   0.10363   0.10768
  Beta virt. eigenvalues --    0.11070   0.11646   0.11831   0.12189   0.13182

 Mulliken charges and spin densities:
               1          2
     1  C    2.030966  -2.439900
     2  C   -2.319491   1.935973
     3  C   -0.133065  -0.144197
     4  C    0.524483  -1.024770
     5  C   -0.521968   0.275095
     6  C    0.457828  -0.763213
     7  N    0.029522   0.001072
     8  S    0.562951  -0.380624
     9  O   -0.151575  -0.008337
    10  O   -0.089143   0.034206
    11  N   -0.221475   0.160515
    12  C    0.688361  -1.025576
    13  C   -0.718804   0.364961
    14  C    0.355620  -0.780250
    15  C    0.091141  -0.346368
    16  N   -0.388157   0.000490
    17  H   -0.537118   0.706266
    18  H   -0.114424   0.278670
    19  H   -0.176530   0.332046
    20  H    0.047684   0.020376
    21  H    0.148910   0.017386
    22  H   -0.170480   0.343754
    23  H   -0.051557   0.198871
    24  H   -0.157443   0.327919
    25  H   -0.078097   0.253742
    26  H    0.170680   0.000512
    27  H   -0.336338   0.512675
    28  H    0.235552  -0.015925
    29  H   -0.457300   0.616648
    30  H    0.039320   0.136126
    31  H   -0.010447   0.195966
    32  H    0.198960   0.034275
    33  H    0.034141   0.106057
    34  H    0.118506   0.028267
    35  H   -0.114334   0.271745
    36  H   -0.380102   0.560994
    37  H    0.060620   0.075441
    38  H    0.099872   0.142622
    39  H    0.232730  -0.003513
 Sum of Mulliken charges =  -1.00000   1.00000

 Dipole moment (field-independent basis, Debye):
    X=             -0.3200    Y=             -3.2949    Z=             -3.5785  Tot=              4.8749
 Quadrupole moment (field-independent basis, Debye-Ang):
   XX=           -170.7581   YY=           -160.1658   ZZ=           -157.8728
   XY=              0.5475   XZ=             -1.3374   YZ=             -5.2162

 Summary of Natural Population Analysis:

                                       Natural Population
                Natural  -----------------------------------------------
    Atom  No    Charge         Core      Valence    Rydberg      Total
 -----------------------------------------------------------------------
      C    1   -0.28765      0.99963     2.28124    0.00678     3.28765
      C    2   -0.01537      0.99957     2.00028    0.01552     3.01537
      C    3   -0.19863      0.99960     2.18942    0.00961     3.19863
      C    4   -0.19164      0.99963     2.18371    0.00830     3.19164
      C    5   -0.19861      0.99962     2.19093    0.00806     3.19861
      C    6   -0.08974      0.99959     2.07816    0.01199     3.08974
      N    7   -0.37478      0.99972     2.85932    0.01574     3.87478
      S    8    1.18160      4.99917     1.71723    0.10200     6.81840
      O    9   -0.47157      0.99990     3.46671    0.00496     4.47157
      O   10   -0.46221      0.99990     3.45732    0.00499     4.46221
      N   11   -0.37545      0.99973     2.86086    0.01486     3.87545
      C   12   -0.18010      0.99962     2.17126    0.00922     3.18010
      C   13   -0.09138      0.99959     2.08059    0.01120     3.09138
      C   14   -0.19621      0.99962     2.18703    0.00955     3.19621
      C   15   -0.09097      0.99963     2.08032    0.01102     3.09097
      N   16   -0.43272      0.99977     2.92332    0.00963     3.93272
      H   17    0.10540      0.00000     0.39300    0.00160     0.39460
      H   18    0.09941      0.00000     0.39895    0.00164     0.40059
      H   19    0.10538      0.00000     0.39277    0.00185     0.39462
      H   20    0.10799      0.00000     0.38845    0.00356     0.39201
      H   21    0.10549      0.00000     0.39314    0.00137     0.39451
      H   22    0.10331      0.00000     0.39555    0.00114     0.39669
      H   23    0.09639      0.00000     0.40210    0.00151     0.40361
      H   24    0.09933      0.00000     0.39975    0.00091     0.40067
      H   25    0.10049      0.00000     0.39863    0.00088     0.39951
      H   26    0.09771      0.00000     0.40114    0.00116     0.40229
      H   27    0.09872      0.00000     0.39991    0.00137     0.40128
      H   28    0.11440      0.00000     0.38448    0.00112     0.38560
      H   29    0.10277      0.00000     0.39570    0.00153     0.39723
      H   30    0.09216      0.00000     0.40680    0.00105     0.40784
      H   31    0.10993      0.00000     0.38874    0.00133     0.39007
      H   32    0.11336      0.00000     0.38530    0.00134     0.38664
      H   33    0.09206      0.00000     0.40687    0.00108     0.40794
      H   34    0.10020      0.00000     0.39883    0.00097     0.39980
      H   35    0.09864      0.00000     0.40003    0.00133     0.40136
      H   36    0.09153      0.00000     0.40728    0.00119     0.40847
      H   37    0.08179      0.00000     0.41580    0.00242     0.41821
      H   38    0.17543      0.00000     0.32290    0.00166     0.32457
      H   39    0.18355      0.00000     0.31391    0.00254     0.31645
 =======================================================================
   * Total *   -0.00000     19.99429    47.71772    0.28800    68.00000

 Normal termination of Gaussian 16 at Thu Dec 10 22:57:37 2020.
