 Gaussian 16, Revision A.03,

 -----------------------------------------------------------
 # opt freq B3LYP/6-31G(d) empiricaldispersion=gd3bj scf=xqc
 -----------------------------------------------------------

 -------------------------------
 CID_115653970_JID_6313_neutraal
 -------------------------------
 Symbolic Z-matrix:
 Charge =  0 Multiplicity = 1

 SCF Done:  E(RB3LYP) =  -677.375906279     A.U. after   14 cycles
 SCF Done:  E(RB3LYP) =  -677.381650253     A.U. after   12 cycles
 SCF Done:  E(RB3LYP) =  -677.382625827     A.U. after   12 cycles
 SCF Done:  E(RB3LYP) =  -677.383171268     A.U. after   11 cycles
 SCF Done:  E(RB3LYP) =  -677.383444595     A.U. after   11 cycles
 SCF Done:  E(RB3LYP) =  -677.383746313     A.U. after   11 cycles
 SCF Done:  E(RB3LYP) =  -677.383912994     A.U. after   11 cycles
 SCF Done:  E(RB3LYP) =  -677.384000479     A.U. after   10 cycles
 SCF Done:  E(RB3LYP) =  -677.384133515     A.U. after   11 cycles
 SCF Done:  E(RB3LYP) =  -677.384146018     A.U. after    9 cycles
 SCF Done:  E(RB3LYP) =  -677.384152960     A.U. after    9 cycles
 SCF Done:  E(RB3LYP) =  -677.384154921     A.U. after    9 cycles
 SCF Done:  E(RB3LYP) =  -677.384155581     A.U. after    9 cycles
 SCF Done:  E(RB3LYP) =  -677.384155812     A.U. after    8 cycles
 Optimization completed.
    -- Stationary point found.
 Normal termination of Gaussian 16 at Thu Dec 10 22:10:37 2020.

 --------------------------------------------------------------------
 #N Geom=AllCheck Guess=TCheck SCRF=Check GenChk RB3LYP/6-31G(d) Freq
 --------------------------------------------------------------------

 Structure from the checkpoint file:  "JID_6313.chk"
 -------------------------------
 CID_115653970_JID_6313_neutraal
 -------------------------------
 Charge =  0 Multiplicity = 1

 SCF Done:  E(RB3LYP) =  -677.384155812     A.U. after    1 cycles

  Exact polarizability: 172.903 -14.236 138.117   5.823   1.366 142.922
 Approx polarizability: 206.779 -24.484 203.847   1.637   8.850 234.094

                      1                      2                      3
                      A                      A                      A
 Frequencies --     21.7473                28.5695                42.2675
 Red. masses --      3.3842                 3.3150                 3.8903
 Frc consts  --      0.0009                 0.0016                 0.0041
 IR Inten    --      0.0600                 0.0108                 0.0230

                      4                      5                      6
                      A                      A                      A
 Frequencies --    100.5619               111.6414               125.4761
 Red. masses --      2.6432                 2.6582                 1.1290
 Frc consts  --      0.0157                 0.0195                 0.0105
 IR Inten    --      0.1770                 0.2297                 0.0223

                      7                      8                      9
                      A                      A                      A
 Frequencies --    136.9348               155.8496               180.8631
 Red. masses --      1.1692                 2.3443                 3.1149
 Frc consts  --      0.0129                 0.0335                 0.0600
 IR Inten    --      0.0211                 0.0357                 4.5223

                     10                     11                     12
                      A                      A                      A
 Frequencies --    210.9840               223.9942               240.3721
 Red. masses --      3.1481                 2.4405                 1.1441
 Frc consts  --      0.0826                 0.0721                 0.0389
 IR Inten    --      0.9755                 1.3536                 0.1047

                     13                     14                     15
                      A                      A                      A
 Frequencies --    260.4698               282.2364               292.6782
 Red. masses --      2.4992                 1.9108                 2.5908
 Frc consts  --      0.0999                 0.0897                 0.1308
 IR Inten    --      1.9033                 0.1281                 0.8617

                     16                     17                     18
                      A                      A                      A
 Frequencies --    320.6671               360.1078               401.5596
 Red. masses --      2.4560                 2.5665                 3.2416
 Frc consts  --      0.1488                 0.1961                 0.3080
 IR Inten    --      2.0441                 3.8802                 0.3946

                     19                     20                     21
                      A                      A                      A
 Frequencies --    422.7304               431.3972               448.7650
 Red. masses --      3.4602                 2.7978                 1.8387
 Frc consts  --      0.3643                 0.3068                 0.2182
 IR Inten    --      2.0599                 0.5344                 0.1988

                     22                     23                     24
                      A                      A                      A
 Frequencies --    463.2653               526.2197               555.2420
 Red. masses --      2.4027                 2.7458                 2.5053
 Frc consts  --      0.3038                 0.4480                 0.4551
 IR Inten    --      3.5565                 0.2273                 1.3337

                     25                     26                     27
                      A                      A                      A
 Frequencies --    604.1066               633.7485               635.3374
 Red. masses --      3.4299                 4.8708                 4.3970
 Frc consts  --      0.7375                 1.1526                 1.0457
 IR Inten    --      0.5581                 1.0262                 0.9565

                     28                     29                     30
                      A                      A                      A
 Frequencies --    693.4632               744.1540               790.8230
 Red. masses --      2.3176                 2.4649                 1.9340
 Frc consts  --      0.6566                 0.8042                 0.7126
 IR Inten    --     21.0652                58.0738                 2.2550

                     31                     32                     33
                      A                      A                      A
 Frequencies --    803.9048               823.8927               851.7741
 Red. masses --      1.5240                 2.6510                 1.9356
 Frc consts  --      0.5803                 1.0602                 0.8274
 IR Inten    --     34.9095                28.6180                13.3955

                     34                     35                     36
                      A                      A                      A
 Frequencies --    866.8572               896.1613               915.5773
 Red. masses --      1.4547                 1.8124                 1.9500
 Frc consts  --      0.6440                 0.8576                 0.9631
 IR Inten    --      0.4268                 7.9070                 0.5613

                     37                     38                     39
                      A                      A                      A
 Frequencies --    937.3461               948.6015               964.9961
 Red. masses --      2.1023                 2.0774                 1.7542
 Frc consts  --      1.0883                 1.1014                 0.9624
 IR Inten    --      2.6700                 4.8647                 2.7402

                     40                     41                     42
                      A                      A                      A
 Frequencies --    994.2691              1001.3555              1022.9292
 Red. masses --      1.6930                 1.4670                 3.5264
 Frc consts  --      0.9861                 0.8667                 2.1741
 IR Inten    --      0.8864                 0.9915                 9.9029

                     43                     44                     45
                      A                      A                      A
 Frequencies --   1039.4060              1045.4209              1068.6802
 Red. masses --      1.5355                 2.0980                 1.6661
 Frc consts  --      0.9774                 1.3510                 1.1211
 IR Inten    --     15.2434                 3.4807                 0.7299

                     46                     47                     48
                      A                      A                      A
 Frequencies --   1075.6096              1083.0058              1096.8300
 Red. masses --      1.4400                 1.4734                 1.0967
 Frc consts  --      0.9816                 1.0182                 0.7774
 IR Inten    --      0.2141                 2.8586                 0.2455

                     49                     50                     51
                      A                      A                      A
 Frequencies --   1107.6683              1114.0244              1140.4593
 Red. masses --      3.1731                 2.4839                 2.3713
 Frc consts  --      2.2938                 1.8162                 1.8172
 IR Inten    --     21.0065                 6.6649                41.5810

                     52                     53                     54
                      A                      A                      A
 Frequencies --   1154.4364              1177.0629              1190.7906
 Red. masses --      3.2173                 1.9993                 2.1632
 Frc consts  --      2.5263                 1.6321                 1.8073
 IR Inten    --     14.5608                11.4190                 6.5146

                     55                     56                     57
                      A                      A                      A
 Frequencies --   1205.2944              1242.0692              1257.2771
 Red. masses --      2.1129                 1.9085                 1.9392
 Frc consts  --      1.8084                 1.7348                 1.8060
 IR Inten    --      8.5025                12.8455                 2.1757

                     58                     59                     60
                      A                      A                      A
 Frequencies --   1282.1851              1298.4435              1302.5817
 Red. masses --      1.5876                 3.5133                 1.3292
 Frc consts  --      1.5378                 3.4899                 1.3288
 IR Inten    --     12.3142                11.7383                 2.5498

                     61                     62                     63
                      A                      A                      A
 Frequencies --   1310.9568              1323.1237              1352.6282
 Red. masses --      1.2540                 1.3527                 1.2746
 Frc consts  --      1.2698                 1.3953                 1.3740
 IR Inten    --      2.9581                 3.2638                 2.7189

                     64                     65                     66
                      A                      A                      A
 Frequencies --   1363.1984              1384.9679              1389.3950
 Red. masses --      1.3059                 1.3658                 1.3010
 Frc consts  --      1.4298                 1.5435                 1.4797
 IR Inten    --      3.7367                 2.1036                16.8553

                     67                     68                     69
                      A                      A                      A
 Frequencies --   1394.9145              1397.8721              1412.4357
 Red. masses --      1.3622                 1.4684                 1.5494
 Frc consts  --      1.5616                 1.6906                 1.8212
 IR Inten    --      2.6832                 3.6258                 1.3806

                     70                     71                     72
                      A                      A                      A
 Frequencies --   1423.0931              1427.3604              1438.5625
 Red. masses --      1.7379                 1.8519                 1.2435
 Frc consts  --      2.0737                 2.2229                 1.5161
 IR Inten    --      2.6561                 7.1602                 1.0670

                     73                     74                     75
                      A                      A                      A
 Frequencies --   1444.5247              1450.5495              1497.8791
 Red. masses --      1.3429                 1.5571                 1.1142
 Frc consts  --      1.6509                 1.9303                 1.4728
 IR Inten    --      0.7790                 5.3513                 4.9066

                     76                     77                     78
                      A                      A                      A
 Frequencies --   1502.3901              1502.7847              1509.2679
 Red. masses --      1.0443                 1.0432                 1.0887
 Frc consts  --      1.3888                 1.3880                 1.4612
 IR Inten    --      6.6384                 7.0761                 1.0910

                     79                     80                     81
                      A                      A                      A
 Frequencies --   1513.2047              1515.8886              1519.0645
 Red. masses --      1.1011                 1.1311                 1.0844
 Frc consts  --      1.4855                 1.5314                 1.4743
 IR Inten    --      1.1914                13.6337                 4.7827

                     82                     83                     84
                      A                      A                      A
 Frequencies --   1522.5807              1524.8593              1527.4745
 Red. masses --      1.1134                 1.1349                 1.0470
 Frc consts  --      1.5208                 1.5548                 1.4393
 IR Inten    --      4.5388                12.4766                 5.6327

                     85                     86                     87
                      A                      A                      A
 Frequencies --   1530.4850              1533.2399              1636.9438
 Red. masses --      1.0581                 1.0979                 6.6483
 Frc consts  --      1.4603                 1.5207                10.4961
 IR Inten    --      3.2986                 4.8492                28.7170

                     88                     89                     90
                      A                      A                      A
 Frequencies --   1688.1838              2989.5611              3003.9160
 Red. masses --      6.8768                 1.0812                 1.0729
 Frc consts  --     11.5472                 5.6933                 5.7041
 IR Inten    --      7.1738                 9.7598                 6.8736

                     91                     92                     93
                      A                      A                      A
 Frequencies --   3010.4039              3017.2511              3020.9088
 Red. masses --      1.0693                 1.0683                 1.0666
 Frc consts  --      5.7097                 5.7303                 5.7347
 IR Inten    --     13.7496                16.0228                 9.1665

                     94                     95                     96
                      A                      A                      A
 Frequencies --   3030.6981              3037.6172              3040.1019
 Red. masses --      1.0731                 1.0378                 1.0407
 Frc consts  --      5.8072                 5.6421                 5.6672
 IR Inten    --     60.0721                61.9900                38.6209

                     97                     98                     99
                      A                      A                      A
 Frequencies --   3043.4092              3046.4290              3063.7905
 Red. masses --      1.0386                 1.0598                 1.0962
 Frc consts  --      5.6679                 5.7948                 6.0626
 IR Inten    --     43.4664                44.5251                57.8222

                    100                    101                    102
                      A                      A                      A
 Frequencies --   3071.2507              3081.3730              3085.4129
 Red. masses --      1.0997                 1.0962                 1.1040
 Frc consts  --      6.1118                 6.1321                 6.1922
 IR Inten    --     53.6447                28.2734                33.0373

                    103                    104                    105
                      A                      A                      A
 Frequencies --   3089.2908              3092.2537              3101.3640
 Red. masses --      1.1001                 1.1015                 1.1014
 Frc consts  --      6.1861                 6.2055                 6.2418
 IR Inten    --     18.9676                20.1301                56.2663

                    106                    107                    108
                      A                      A                      A
 Frequencies --   3107.6630              3118.7446              3140.3028
 Red. masses --      1.1023                 1.0902                 1.0993
 Frc consts  --      6.2723                 6.2475                 6.3871
 IR Inten    --     39.4962                24.6885                11.9724

                    109                    110                    111
                      A                      A                      A
 Frequencies --   3141.7469              3250.1906              3486.4617
 Red. masses --      1.0978                 1.0964                 1.0737
 Frc consts  --      6.3845                 6.8240                 7.6896
 IR Inten    --     14.8036                 5.9080                 0.6096

 - Thermochemistry -
 -------------------
 Temperature   298.150 Kelvin.  Pressure   1.00000 Atm.
 Atom     1 has atomic number  6 and mass  12.00000

 Molecular mass:   221.17796 amu.
 Principal axes and moments of inertia in atomic units:
                           1         2         3
     Eigenvalues --  1790.631016879.355397221.75422
           X            0.99998  -0.00243   0.00516
           Y            0.00269   0.99872  -0.05044
           Z           -0.00503   0.05045   0.99871
 This molecule is an asymmetric top.
 Rotational symmetry number  1.
 Warning -- assumption of classical behavior for rotation
           may cause significant error
 Rotational temperatures (Kelvin)      0.04837     0.01259     0.01199
 Rotational constants (GHZ):           1.00788     0.26234     0.24990
 Zero-point vibrational energy     923894.6 (Joules/Mol)
                                  220.81611 (Kcal/Mol)
 Warning -- explicit consideration of  25 degrees of freedom as
           vibrations may cause significant error
 Vibrational temperatures:     31.29    41.11    60.81   144.69   160.63
          (Kelvin)            180.53   197.02   224.23   260.22   303.56
                              322.28   345.84   374.76   406.08   421.10
                              461.37   518.11   577.75   608.21   620.68
                              645.67   666.54   757.11   798.87   869.17
                              911.82   914.11   997.74  1070.67  1137.82
                             1156.64  1185.40  1225.51  1247.21  1289.38
                             1317.31  1348.63  1364.83  1388.41  1430.53
                             1440.73  1471.77  1495.47  1504.13  1537.59
                             1547.56  1558.20  1578.09  1593.69  1602.83
                             1640.87  1660.98  1693.53  1713.28  1734.15
                             1787.06  1808.94  1844.78  1868.17  1874.12
                             1886.17  1903.68  1946.13  1961.34  1992.66
                             1999.03  2006.97  2011.23  2032.18  2047.51
                             2053.65  2069.77  2078.35  2087.02  2155.11
                             2161.60  2162.17  2171.50  2177.16  2181.03
                             2185.59  2190.65  2193.93  2197.70  2202.03
                             2205.99  2355.20  2428.92  4301.31  4321.97
                             4331.30  4341.15  4346.41  4360.50  4370.45
                             4374.03  4378.79  4383.13  4408.11  4418.84
                             4433.41  4439.22  4444.80  4449.06  4462.17
                             4471.23  4487.18  4518.20  4520.27  4676.30
                             5016.24

 Zero-point correction=                           0.351893 (Hartree/Particle)
 Thermal correction to Energy=                    0.368718
 Thermal correction to Enthalpy=                  0.369662
 Thermal correction to Gibbs Free Energy=         0.306415
 Sum of electronic and zero-point Energies=           -677.032263
 Sum of electronic and thermal Energies=              -677.015438
 Sum of electronic and thermal Enthalpies=            -677.014494
 Sum of electronic and thermal Free Energies=         -677.077741

                     E (Thermal)             CV                S
                      KCal/Mol        Cal/Mol-Kelvin    Cal/Mol-Kelvin
 Total                  231.374             64.193            133.115
 Electronic               0.000              0.000              0.000
 Translational            0.889              2.981             42.084
 Rotational               0.889              2.981             32.853
 Vibrational            229.596             58.231             58.177
 Vibration     1          0.593              1.985              6.468
 Vibration     2          0.593              1.984              5.926
 Vibration     3          0.595              1.980              5.150
 Vibration     4          0.604              1.949              3.443
 Vibration     5          0.607              1.940              3.240
 Vibration     6          0.610              1.928              3.014
 Vibration     7          0.614              1.916              2.846
 Vibration     8          0.620              1.896              2.600
 Vibration     9          0.630              1.866              2.319
 Vibration    10          0.643              1.824              2.035
 Vibration    11          0.649              1.805              1.927
 Vibration    12          0.657              1.779              1.800
 Vibration    13          0.669              1.745              1.659
 Vibration    14          0.681              1.707              1.520
 Vibration    15          0.688              1.687              1.458
 Vibration    16          0.706              1.634              1.307
 Vibration    17          0.735              1.554              1.122
 Vibration    18          0.767              1.467              0.957
 Vibration    19          0.785              1.421              0.883
 Vibration    20          0.792              1.402              0.854
 Vibration    21          0.808              1.364              0.800
 Vibration    22          0.821              1.332              0.757
 Vibration    23          0.881              1.192              0.596
 Vibration    24          0.911              1.128              0.533
 Vibration    25          0.963              1.023              0.443

                           ! Non-Optimized Parameters !
 Normal termination of Gaussian 16 at Thu Dec 10 22:24:42 2020.

 ----------------------------------------------------------------------
 # B3LYP/6-311++G(d,p) empiricaldispersion=gd3bj scf=xqc pop=npa geom=c
 heck
 ----------------------------------------------------------------------

 ---------------------------------------
 CID_115653970_JID_6313_Energie_neutraal
 ---------------------------------------
 Structure from the checkpoint file:  "JID_6313.chk"
 Charge =  0 Multiplicity = 1

 SCF Done:  E(RB3LYP) =  -677.569814108     A.U. after   14 cycles
 Normal termination of Gaussian 16 at Thu Dec 10 22:31:50 2020.

 ----------------------------------------------------------------------
 # B3LYP/6-311++G(d,p) empiricaldispersion=gd3bj scf=xqc pop=npa geom=c
 heck
 ----------------------------------------------------------------------

 -------------------------------------
 CID_115653970_JID_6313_Energie_kation
 -------------------------------------
 Structure from the checkpoint file:  "JID_6313.chk"
 Charge =  1 Multiplicity = 2

 SCF Done:  E(UB3LYP) =  -677.295379210     A.U. after   22 cycles
 Normal termination of Gaussian 16 at Thu Dec 10 22:46:16 2020.
 Gaussian 16:  ES64L-G16RevA.03 25-Dec-2016

 ----------------------------------------------------------------------
 # B3LYP/6-311++G(d,p) empiricaldispersion=gd3bj scf=xqc pop=npa geom=c
 heck
 ----------------------------------------------------------------------

 ------------------------------------
 CID_115653970_JID_6313_Energie_anion
 ------------------------------------
 Structure from the checkpoint file:  "JID_6313.chk"
 Charge = -1 Multiplicity = 2

                         Standard orientation:
 ---------------------------------------------------------------------
 Center     Atomic      Atomic             Coordinates (Angstroms)
 Number     Number       Type             X           Y           Z
 ---------------------------------------------------------------------
      1          6           0        5.057852   -0.094045    0.146953
      2          6           0        3.563506    0.161956    0.357518
      3          6           0        3.181451    1.609418    0.011177
      4          6           0        1.680389    1.862299    0.192987
      5          6           0        0.839521    0.863201   -0.612000
      6          6           0        1.197587   -0.592669   -0.262787
      7          6           0        2.704327   -0.824538   -0.448660
      8          7           0        0.446097   -1.603684   -1.021665
      9          6           0       -0.804005   -2.066857   -0.405360
     10          6           0       -1.851308   -1.020787   -0.127529
     11          6           0       -2.146585   -0.431168    1.068753
     12          8           0       -3.105947    0.538367    0.888293
     13          6           0       -3.424080    0.566081   -0.446350
     14          6           0       -2.684431   -0.366095   -1.105994
     15          6           0       -4.459783    1.547333   -0.865250
     16          6           0       -1.641757   -0.602421    2.457209
     17          1           0        5.331892    0.051242   -0.905857
     18          1           0        5.668671    0.590274    0.747863
     19          1           0        5.328669   -1.120049    0.422383
     20          1           0        3.336571    0.006001    1.424855
     21          1           0        3.764515    2.308049    0.625541
     22          1           0        3.458307    1.807072   -1.035749
     23          1           0        1.428201    2.889698   -0.097758
     24          1           0        1.423720    1.769451    1.258748
     25          1           0        1.029658    1.014457   -1.686695
     26          1           0       -0.227687    1.038328   -0.451078
     27          1           0        0.962617   -0.754503    0.799261
     28          1           0        2.945800   -0.724634   -1.518407
     29          1           0        2.940887   -1.859139   -0.173679
     30          1           0        0.252649   -1.247305   -1.956091
     31          1           0       -1.219612   -2.835784   -1.068189
     32          1           0       -0.537502   -2.577627    0.527433
     33          1           0       -2.722217   -0.575455   -2.167142
     34          1           0       -5.417476    1.362229   -0.363023
     35          1           0       -4.159101    2.575385   -0.628075
     36          1           0       -4.620625    1.478047   -1.944534
     37          1           0       -1.106165    0.290467    2.804926
     38          1           0       -2.461417   -0.788890    3.161594
     39          1           0       -0.951564   -1.448712    2.504991
 ---------------------------------------------------------------------

 SCF Done:  E(UB3LYP) =  -677.554961710     A.U. after   33 cycles
 SCF Done:  E(UB3LYP) =  -677.554961710     a.u. after    1 cycles

 The electronic state is 2-A.
 Alpha  occ. eigenvalues --  -19.08220 -14.20186 -10.12781 -10.12492 -10.10614
 Alpha  occ. eigenvalues --  -10.09967 -10.08168 -10.07944 -10.07812 -10.07155
 Alpha  occ. eigenvalues --  -10.07058 -10.07043 -10.06989 -10.06644 -10.06547
 Alpha  occ. eigenvalues --  -10.06465  -1.00662  -0.81463  -0.73794  -0.70750
 Alpha  occ. eigenvalues --   -0.69810  -0.66950  -0.64473  -0.63697  -0.58666
 Alpha  occ. eigenvalues --   -0.58311  -0.54973  -0.51119  -0.49848  -0.48555
 Alpha  occ. eigenvalues --   -0.46702  -0.44354  -0.39881  -0.39352  -0.37642
 Alpha  occ. eigenvalues --   -0.37033  -0.35671  -0.35327  -0.34586  -0.33264
 Alpha  occ. eigenvalues --   -0.33199  -0.32626  -0.32141  -0.30634  -0.29964
 Alpha  occ. eigenvalues --   -0.29690  -0.29525  -0.29248  -0.29181  -0.28344
 Alpha  occ. eigenvalues --   -0.27609  -0.26377  -0.25247  -0.24699  -0.24121
 Alpha  occ. eigenvalues --   -0.22838  -0.21763  -0.21209  -0.17588  -0.13190
 Alpha  occ. eigenvalues --   -0.11729   0.04202
 Alpha virt. eigenvalues --    0.05766   0.06391   0.07070   0.07505   0.08111
 Alpha virt. eigenvalues --    0.08537   0.09074   0.09459   0.09790   0.09940
 Alpha virt. eigenvalues --    0.10403   0.10838   0.11206   0.11759   0.11854

  Beta  occ. eigenvalues --  -19.08210 -14.20181 -10.12780 -10.12489 -10.10604
  Beta  occ. eigenvalues --  -10.09962 -10.08137 -10.07935 -10.07767 -10.07155
  Beta  occ. eigenvalues --  -10.07047 -10.07027 -10.06976 -10.06629 -10.06541
  Beta  occ. eigenvalues --  -10.06458  -1.00648  -0.81452  -0.73775  -0.70737
  Beta  occ. eigenvalues --   -0.69784  -0.66928  -0.64446  -0.63652  -0.58636
  Beta  occ. eigenvalues --   -0.58280  -0.54924  -0.51088  -0.49817  -0.48526
  Beta  occ. eigenvalues --   -0.46667  -0.44330  -0.39840  -0.39325  -0.37616
  Beta  occ. eigenvalues --   -0.37006  -0.35645  -0.35300  -0.34556  -0.33240
  Beta  occ. eigenvalues --   -0.33169  -0.32589  -0.32110  -0.30608  -0.29939
  Beta  occ. eigenvalues --   -0.29667  -0.29494  -0.29212  -0.29153  -0.28324
  Beta  occ. eigenvalues --   -0.27585  -0.26357  -0.25225  -0.24672  -0.24091
  Beta  occ. eigenvalues --   -0.22811  -0.21743  -0.21190  -0.17576  -0.13180
  Beta  occ. eigenvalues --   -0.11710
  Beta virt. eigenvalues --    0.06080   0.06639   0.06902   0.07465   0.07880
  Beta virt. eigenvalues --    0.08434   0.08874   0.09411   0.09777   0.10112
  Beta virt. eigenvalues --    0.10195   0.10672   0.11101   0.11398   0.12020

 Mulliken charges and spin densities:
               1          2
     1  C    0.514066  -1.275351
     2  C   -0.148317   0.812501
     3  C   -0.861483   0.312076
     4  C   -0.180751  -0.233898
     5  C    0.159407  -0.144254
     6  C   -1.752320   1.182825
     7  C    1.281979  -1.974238
     8  N    0.136525   0.088918
     9  C   -0.234078  -0.582103
    10  C    0.494847   0.394398
    11  C   -1.486371   1.088723
    12  O    0.042719   0.020865
    13  C   -2.045995   1.867187
    14  C    0.055974   0.063050
    15  C    2.732795  -3.429040
    16  C    1.496517  -2.067121
    17  H    0.072016   0.050848
    18  H   -0.129621   0.266904
    19  H   -0.038016   0.169864
    20  H   -0.232720   0.402181
    21  H   -0.112623   0.269344
    22  H    0.098430   0.040206
    23  H   -0.233052   0.400967
    24  H    0.073790   0.064230
    25  H   -0.065759   0.179763
    26  H    0.698436  -0.453333
    27  H    0.343115  -0.203481
    28  H    0.102902   0.034714
    29  H    0.093996   0.068975
    30  H    0.184870   0.032350
    31  H    0.017715   0.167217
    32  H    0.052227   0.108189
    33  H   -0.566755   0.732678
    34  H   -0.210603   0.361503
    35  H   -0.305824   0.465309
    36  H   -0.522132   0.690538
    37  H   -0.065633   0.263567
    38  H   -0.178531   0.352668
    39  H   -0.281739   0.410259
 Sum of Mulliken charges =  -1.00000   1.00000

 Dipole moment (field-independent basis, Debye):
    X=              3.5560    Y=             -2.1370    Z=             -0.7094  Tot=              4.2089
 Quadrupole moment (field-independent basis, Debye-Ang):
   XX=           -197.3134   YY=           -145.0110   ZZ=           -144.5286
   XY=              8.1412   XZ=            -14.7211   YZ=              2.4913

 Summary of Natural Population Analysis:

                                       Natural Population
                Natural  -----------------------------------------------
    Atom  No    Charge         Core      Valence    Rydberg      Total
 -----------------------------------------------------------------------
      C    1   -0.27981      0.99965     2.27535    0.00481     3.27981
      C    2   -0.11491      0.99960     2.10533    0.00999     3.11491
      C    3   -0.18724      0.99961     2.17856    0.00907     3.18724
      C    4   -0.18914      0.99963     2.18129    0.00822     3.18914
      C    5   -0.19590      0.99960     2.18798    0.00831     3.19590
      C    6   -0.01185      0.99957     2.00076    0.01151     3.01185
      C    7   -0.18540      0.99959     2.17669    0.00912     3.18540
      N    8   -0.33783      0.99974     2.82637    0.01172     3.83783
      C    9   -0.09124      0.99958     2.08007    0.01158     3.09124
      C   10   -0.07405      0.99944     2.06392    0.01069     3.07405
      C   11    0.15081      0.99939     1.83574    0.01407     2.84919
      O   12   -0.24513      0.99985     3.23679    0.00849     4.24513
      C   13    0.15636      0.99947     1.82995    0.01422     2.84364
      C   14   -0.15034      0.99945     2.14081    0.01009     3.15034
      C   15   -0.30589      0.99963     2.30046    0.00580     3.30589
      C   16   -0.30590      0.99963     2.30023    0.00604     3.30590
      H   17    0.09408      0.00000     0.40499    0.00093     0.40592
      H   18    0.09861      0.00000     0.40039    0.00100     0.40139
      H   19    0.09819      0.00000     0.40086    0.00094     0.40181
      H   20    0.09292      0.00000     0.40505    0.00203     0.40708
      H   21    0.09901      0.00000     0.40002    0.00097     0.40099
      H   22    0.09071      0.00000     0.40813    0.00116     0.40929
      H   23    0.09903      0.00000     0.40006    0.00091     0.40097
      H   24    0.09441      0.00000     0.40385    0.00174     0.40559
      H   25    0.08908      0.00000     0.40962    0.00130     0.41092
      H   26    0.10806      0.00000     0.38957    0.00237     0.39194
      H   27    0.09029      0.00000     0.40731    0.00240     0.40971
      H   28    0.09179      0.00000     0.40688    0.00133     0.40821
      H   29    0.10233      0.00000     0.39629    0.00139     0.39767
      H   30    0.17008      0.00000     0.32723    0.00270     0.32992
      H   31    0.09746      0.00000     0.40150    0.00105     0.40254
      H   32    0.09597      0.00000     0.40266    0.00138     0.40403
      H   33    0.10780      0.00000     0.39106    0.00114     0.39220
      H   34    0.10642      0.00000     0.39219    0.00139     0.39358
      H   35    0.10825      0.00000     0.39022    0.00153     0.39175
      H   36    0.11039      0.00000     0.38780    0.00181     0.38961
      H   37    0.10787      0.00000     0.39075    0.00138     0.39213
      H   38    0.10675      0.00000     0.39211    0.00114     0.39325
      H   39    0.10795      0.00000     0.39082    0.00123     0.39205
 =======================================================================
   * Total *    0.00000     15.99343    44.81963    0.18693    61.00000

 Normal termination of Gaussian 16 at Thu Dec 10 23:09:57 2020.
