 Gaussian 16, Revision A.03,

 -----------------------------------------------------------
 # opt freq B3LYP/6-31G(d) empiricaldispersion=gd3bj scf=xqc
 -----------------------------------------------------------

 ------------------------------
 CID_58823765_JID_8728_neutraal
 ------------------------------
 Symbolic Z-matrix:
 Charge =  0 Multiplicity = 1

 SCF Done:  E(RB3LYP) =  -806.985961804     A.U. after   15 cycles
 SCF Done:  E(RB3LYP) =  -806.990693211     A.U. after   13 cycles
 SCF Done:  E(RB3LYP) =  -806.988315770     A.U. after   14 cycles
 SCF Done:  E(RB3LYP) =  -806.991349271     A.U. after   13 cycles
 SCF Done:  E(RB3LYP) =  -806.992118247     A.U. after   13 cycles
 SCF Done:  E(RB3LYP) =  -806.992465463     A.U. after   12 cycles
 SCF Done:  E(RB3LYP) =  -806.992484417     A.U. after   11 cycles
 SCF Done:  E(RB3LYP) =  -806.992699547     A.U. after   11 cycles
 SCF Done:  E(RB3LYP) =  -806.993005573     A.U. after   12 cycles
 SCF Done:  E(RB3LYP) =  -806.993154574     A.U. after   11 cycles
 SCF Done:  E(RB3LYP) =  -806.993276949     A.U. after    8 cycles
 SCF Done:  E(RB3LYP) =  -806.993277029     A.U. after    8 cycles
 SCF Done:  E(RB3LYP) =  -806.993277110     A.U. after    8 cycles
 SCF Done:  E(RB3LYP) =  -806.993277156     A.U. after    8 cycles
 SCF Done:  E(RB3LYP) =  -806.993277175     A.U. after    7 cycles
 Optimization completed.
    -- Stationary point found.
 Normal termination of Gaussian 16 at Fri Dec 11 20:55:22 2020.

 --------------------------------------------------------------------
 #N Geom=AllCheck Guess=TCheck SCRF=Check GenChk RB3LYP/6-31G(d) Freq
 --------------------------------------------------------------------

 Structure from the checkpoint file:  "JID_8728.chk"
 ------------------------------
 CID_58823765_JID_8728_neutraal
 ------------------------------
 Charge =  0 Multiplicity = 1

 SCF Done:  E(RB3LYP) =  -806.993277175     A.U. after    1 cycles

  Exact polarizability: 250.125  23.467 151.391  27.493 -24.137 107.132
 Approx polarizability: 365.363  39.025 256.844  60.275 -50.659 175.779

                      1                      2                      3
                      A                      A                      A
 Frequencies --     10.7553                30.5595                43.9509
 Red. masses --      6.2139                 6.1312                 5.4252
 Frc consts  --      0.0004                 0.0034                 0.0062
 IR Inten    --      0.5129                 2.0179                 0.9539

                      4                      5                      6
                      A                      A                      A
 Frequencies --     49.5886                85.1510               101.9893
 Red. masses --      5.0473                 2.5498                 1.3277
 Frc consts  --      0.0073                 0.0109                 0.0081
 IR Inten    --      0.7276                 0.5193                 0.2420

                      7                      8                      9
                      A                      A                      A
 Frequencies --    120.4310               186.3241               203.5102
 Red. masses --      4.6309                 3.6592                 3.1209
 Frc consts  --      0.0396                 0.0748                 0.0762
 IR Inten    --      0.4628                 1.4215                 0.5850

                     10                     11                     12
                      A                      A                      A
 Frequencies --    215.5455               227.8779               287.4720
 Red. masses --      3.8808                 3.3283                 3.3942
 Frc consts  --      0.1062                 0.1018                 0.1653
 IR Inten    --      1.6844                 1.4943                 0.0915

                     13                     14                     15
                      A                      A                      A
 Frequencies --    319.1395               333.3165               359.1521
 Red. masses --      3.6879                 2.6968                 4.2999
 Frc consts  --      0.2213                 0.1765                 0.3268
 IR Inten    --      2.5845                 1.0622                 0.4601

                     16                     17                     18
                      A                      A                      A
 Frequencies --    409.9905               430.1968               447.4591
 Red. masses --      3.3169                 3.4692                 3.0474
 Frc consts  --      0.3285                 0.3783                 0.3595
 IR Inten    --      0.4624                 0.0149                 5.5020

                     19                     20                     21
                      A                      A                      A
 Frequencies --    488.1768               506.6993               520.6513
 Red. masses --      2.6967                 4.2499                 2.0409
 Frc consts  --      0.3787                 0.6429                 0.3260
 IR Inten    --      6.8527                 7.1717                21.2093

                     22                     23                     24
                      A                      A                      A
 Frequencies --    535.5690               540.1050               560.1864
 Red. masses --      2.6083                 6.4303                 3.0029
 Frc consts  --      0.4408                 1.1052                 0.5552
 IR Inten    --      6.9335                 0.4182                 4.0294

                     25                     26                     27
                      A                      A                      A
 Frequencies --    594.6461               600.0621               663.0820
 Red. masses --      3.4056                 4.2745                 3.3711
 Frc consts  --      0.7095                 0.9068                 0.8733
 IR Inten    --     18.8496                18.9579                10.2757

                     28                     29                     30
                      A                      A                      A
 Frequencies --    693.4393               702.1982               763.0813
 Red. masses --      4.8396                 1.4497                 2.9708
 Frc consts  --      1.3711                 0.4212                 1.0192
 IR Inten    --     11.1432               104.3141                 1.7975

                     31                     32                     33
                      A                      A                      A
 Frequencies --    768.0945               782.0438               814.3042
 Red. masses --      5.5803                 2.3886                 1.6242
 Frc consts  --      1.9397                 0.8607                 0.6345
 IR Inten    --      5.9056                23.8739                 7.7636

                     34                     35                     36
                      A                      A                      A
 Frequencies --    818.7787               827.9538               850.9394
 Red. masses --      1.3220                 3.7178                 2.9144
 Frc consts  --      0.5222                 1.5016                 1.2434
 IR Inten    --     20.9595                 4.4020                13.5116

                     37                     38                     39
                      A                      A                      A
 Frequencies --    886.1028               899.2358               900.5713
 Red. masses --      1.5068                 1.5132                 2.1586
 Frc consts  --      0.6971                 0.7210                 1.0315
 IR Inten    --     32.9843                 9.7345                 7.4634

                     40                     41                     42
                      A                      A                      A
 Frequencies --    934.9744               950.4569               965.8640
 Red. masses --      3.5014                 1.3147                 1.2853
 Frc consts  --      1.8034                 0.6997                 0.7064
 IR Inten    --      8.1051                 0.2307                 0.4865

                     43                     44                     45
                      A                      A                      A
 Frequencies --    975.8303               995.7547              1038.0264
 Red. masses --      2.7943                 2.4442                 1.5462
 Frc consts  --      1.5677                 1.4279                 0.9816
 IR Inten    --      9.1512                16.3415                 6.8144

                     46                     47                     48
                      A                      A                      A
 Frequencies --   1070.5858              1077.6348              1084.2129
 Red. masses --      1.9321                 1.5070                 2.6050
 Frc consts  --      1.3048                 1.0311                 1.8042
 IR Inten    --     91.6755                 3.8261                22.3716

                     49                     50                     51
                      A                      A                      A
 Frequencies --   1117.5681              1170.8087              1186.8567
 Red. masses --      2.6532                 1.6451                 1.9440
 Frc consts  --      1.9524                 1.3287                 1.6134
 IR Inten    --     14.5319                51.9144                84.2538

                     52                     53                     54
                      A                      A                      A
 Frequencies --   1191.8592              1199.2521              1212.9545
 Red. masses --      1.5395                 1.6718                 1.3851
 Frc consts  --      1.2884                 1.4167                 1.2006
 IR Inten    --     46.3719                97.5206                19.7138

                     55                     56                     57
                      A                      A                      A
 Frequencies --   1235.5758              1259.6770              1287.6739
 Red. masses --      1.2674                 1.9637                 1.7639
 Frc consts  --      1.1400                 1.8359                 1.7232
 IR Inten    --     53.3155                87.6321                 0.7260

                     58                     59                     60
                      A                      A                      A
 Frequencies --   1301.1389              1308.0559              1338.7759
 Red. masses --      1.7571                 1.8836                 1.3255
 Frc consts  --      1.7526                 1.8989                 1.3997
 IR Inten    --      6.5004               134.4483                70.4790

                     61                     62                     63
                      A                      A                      A
 Frequencies --   1360.9207              1387.2360              1393.9137
 Red. masses --      1.6090                 2.1466                 1.7785
 Frc consts  --      1.7557                 2.4339                 2.0360
 IR Inten    --     34.6726                 9.2859                12.3823

                     64                     65                     66
                      A                      A                      A
 Frequencies --   1416.4811              1420.1203              1426.3881
 Red. masses --      2.4433                 1.6641                 2.9923
 Frc consts  --      2.8883                 1.9773                 3.5870
 IR Inten    --     14.5403                 9.2615                14.4344

                     67                     68                     69
                      A                      A                      A
 Frequencies --   1433.6101              1443.6515              1460.8375
 Red. masses --      1.6376                 1.2881                 3.9667
 Frc consts  --      1.9829                 1.5817                 4.9875
 IR Inten    --      1.3675                 0.5158                 0.3353

                     70                     71                     72
                      A                      A                      A
 Frequencies --   1491.8579              1503.3368              1513.3894
 Red. masses --      1.0753                 1.0944                 1.0444
 Frc consts  --      1.4100                 1.4573                 1.4094
 IR Inten    --     10.4526                 7.7529                 5.3203

                     73                     74                     75
                      A                      A                      A
 Frequencies --   1523.2737              1537.5879              1547.5101
 Red. masses --      1.1549                 2.6134                 1.0968
 Frc consts  --      1.5789                 3.6402                 1.5476
 IR Inten    --     11.7533                29.1928                 4.4621

                     76                     77                     78
                      A                      A                      A
 Frequencies --   1564.0644              1625.6111              1671.4144
 Red. masses --      2.9852                 6.6855                 5.7856
 Frc consts  --      4.3026                10.4092                 9.5228
 IR Inten    --     59.6282                 4.8287               124.8121

                     79                     80                     81
                      A                      A                      A
 Frequencies --   1697.6937              1854.1841              3039.2595
 Red. masses --      6.2879                 9.8263                 1.0378
 Frc consts  --     10.6776                19.9043                 5.6479
 IR Inten    --     26.3830               232.4083                49.1815

                     82                     83                     84
                      A                      A                      A
 Frequencies --   3054.8305              3063.4161              3088.7554
 Red. masses --      1.0654                 1.0655                 1.0681
 Frc consts  --      5.8578                 5.8911                 6.0039
 IR Inten    --     12.2975                23.6239                30.6145

                     85                     86                     87
                      A                      A                      A
 Frequencies --   3088.7931              3099.2262              3125.4609
 Red. masses --      1.0995                 1.0968                 1.0922
 Frc consts  --      6.1805                 6.2068                 6.2860
 IR Inten    --     27.7991                34.8995                10.9846

                     88                     89                     90
                      A                      A                      A
 Frequencies --   3125.8748              3137.5613              3172.4662
 Red. masses --      1.1003                 1.1053                 1.0890
 Frc consts  --      6.3346                 6.4110                 6.4577
 IR Inten    --     16.4583                26.5345                10.6931

                     91                     92                     93
                      A                      A                      A
 Frequencies --   3172.9440              3187.5853              3192.3158
 Red. masses --      1.0872                 1.0894                 1.0950
 Frc consts  --      6.4487                 6.5215                 6.5749
 IR Inten    --     15.2708                15.6689                25.6754

                     94                     95                     96
                      A                      A                      A
 Frequencies --   3204.0314              3235.5126              3681.4393
 Red. masses --      1.0905                 1.0907                 1.0640
 Frc consts  --      6.5959                 6.7274                 8.4960
 IR Inten    --      8.7646                12.3044                49.5074

 - Thermochemistry -
 -------------------
 Temperature   298.150 Kelvin.  Pressure   1.00000 Atm.
 Atom     1 has atomic number  6 and mass  12.00000

 Molecular mass:   244.10994 amu.
 Principal axes and moments of inertia in atomic units:
                           1         2         3
     Eigenvalues --  2130.673067975.092769139.03952
           X            0.99987   0.01616   0.00140
           Y           -0.01610   0.99924  -0.03548
           Z           -0.00197   0.03545   0.99937
 This molecule is an asymmetric top.
 Rotational symmetry number  1.
 Warning -- assumption of classical behavior for rotation
           may cause significant error
 Rotational temperatures (Kelvin)      0.04065     0.01086     0.00948
 Rotational constants (GHZ):           0.84703     0.22630     0.19748
 Zero-point vibrational energy     738242.0 (Joules/Mol)
                                  176.44407 (Kcal/Mol)
 Warning -- explicit consideration of  26 degrees of freedom as
           vibrations may cause significant error
 Vibrational temperatures:     15.47    43.97    63.24    71.35   122.51
          (Kelvin)            146.74   173.27   268.08   292.81   310.12
                              327.87   413.61   459.17   479.57   516.74
                              589.88   618.96   643.79   702.38   729.03
                              749.10   770.56   777.09   805.98   855.56
                              863.36   954.03   997.70  1010.31  1097.90
                             1105.12  1125.19  1171.60  1178.04  1191.24
                             1224.31  1274.90  1293.80  1295.72  1345.22
                             1367.50  1389.66  1404.00  1432.67  1493.49
                             1540.33  1550.48  1559.94  1607.93  1684.53
                             1707.62  1714.82  1725.46  1745.17  1777.72
                             1812.39  1852.68  1872.05  1882.00  1926.20
                             1958.06  1995.92  2005.53  2038.00  2043.24
                             2052.25  2062.65  2077.09  2101.82  2146.45
                             2162.97  2177.43  2191.65  2212.25  2226.52
                             2250.34  2338.89  2404.79  2442.60  2667.76
                             4372.82  4395.22  4407.57  4444.03  4444.08
                             4459.10  4496.84  4497.44  4514.25  4564.47
                             4565.16  4586.22  4593.03  4609.89  4655.18
                             5296.77

 Zero-point correction=                           0.281182 (Hartree/Particle)
 Thermal correction to Energy=                    0.297525
 Thermal correction to Enthalpy=                  0.298469
 Thermal correction to Gibbs Free Energy=         0.234557
 Sum of electronic and zero-point Energies=           -806.712096
 Sum of electronic and thermal Energies=              -806.695752
 Sum of electronic and thermal Enthalpies=            -806.694808
 Sum of electronic and thermal Free Energies=         -806.758720

                     E (Thermal)             CV                S
                      KCal/Mol        Cal/Mol-Kelvin    Cal/Mol-Kelvin
 Total                  186.700             62.715            134.513
 Electronic               0.000              0.000              0.000
 Translational            0.889              2.981             42.378
 Rotational               0.889              2.981             33.407
 Vibrational            184.922             56.753             58.728
 Vibration     1          0.593              1.987              7.866
 Vibration     2          0.594              1.984              5.793
 Vibration     3          0.595              1.980              5.073
 Vibration     4          0.595              1.978              4.834
 Vibration     5          0.601              1.959              3.768
 Vibration     6          0.604              1.948              3.416
 Vibration     7          0.609              1.932              3.093
 Vibration     8          0.632              1.859              2.264
 Vibration     9          0.639              1.835              2.101
 Vibration    10          0.645              1.817              1.996
 Vibration    11          0.651              1.798              1.896
 Vibration    12          0.685              1.697              1.489
 Vibration    13          0.705              1.637              1.315
 Vibration    14          0.715              1.609              1.244
 Vibration    15          0.734              1.556              1.126
 Vibration    16          0.774              1.449              0.927
 Vibration    17          0.791              1.404              0.858
 Vibration    18          0.807              1.366              0.803
 Vibration    19          0.844              1.276              0.688
 Vibration    20          0.862              1.235              0.642
 Vibration    21          0.876              1.204              0.608
 Vibration    22          0.891              1.171              0.575
 Vibration    23          0.895              1.161              0.565
 Vibration    24          0.916              1.117              0.523
 Vibration    25          0.952              1.043              0.459
 Vibration    26          0.958              1.032              0.450

 Optimization completed.
    -- Stationary point found.
 Normal termination of Gaussian 16 at Fri Dec 11 21:08:15 2020.

 ----------------------------------------------------------------------
 # B3LYP/6-311++G(d,p) empiricaldispersion=gd3bj scf=xqc pop=npa geom=c
 heck
 ----------------------------------------------------------------------

 --------------------------------------
 CID_58823765_JID_8728_Energie_neutraal
 --------------------------------------
 Structure from the checkpoint file:  "JID_8728.chk"
 Charge =  0 Multiplicity = 1

 SCF Done:  E(RB3LYP) =  -807.219242394     A.U. after   15 cycles
 Normal termination of Gaussian 16 at Fri Dec 11 21:13:20 2020.

 ----------------------------------------------------------------------
 # B3LYP/6-311++G(d,p) empiricaldispersion=gd3bj scf=xqc pop=npa geom=c
 heck
 ----------------------------------------------------------------------

 ------------------------------------
 CID_58823765_JID_8728_Energie_kation
 ------------------------------------
 Structure from the checkpoint file:  "JID_8728.chk"
 Charge =  1 Multiplicity = 2

 SCF Done:  E(UB3LYP) =  -806.951684164     A.U. after   23 cycles
 Normal termination of Gaussian 16 at Fri Dec 11 21:24:02 2020.
 Gaussian 16:  ES64L-G16RevA.03 25-Dec-2016

 ----------------------------------------------------------------------
 # B3LYP/6-311++G(d,p) empiricaldispersion=gd3bj scf=xqc pop=npa geom=c
 heck
 ----------------------------------------------------------------------

 -----------------------------------
 CID_58823765_JID_8728_Energie_anion
 -----------------------------------
 Structure from the checkpoint file:  "JID_8728.chk"
 Charge = -1 Multiplicity = 2

                         Standard orientation:
 ---------------------------------------------------------------------
 Center     Atomic      Atomic             Coordinates (Angstroms)
 Number     Number       Type             X           Y           Z
 ---------------------------------------------------------------------
      1          6           0        5.379468    1.284602    0.111240
      2          6           0        4.084437    0.512364    0.096644
      3          6           0        2.954034    1.001933   -0.520241
      4          6           0        1.735221    0.274195   -0.533140
      5          6           0        1.673696   -1.001641    0.112045
      6          6           0        2.849905   -1.491424    0.743248
      7          6           0        4.011294   -0.758729    0.733880
      8          6           0        0.456446   -1.720475    0.113819
      9          6           0       -0.669307   -1.214977   -0.507848
     10          6           0       -0.608626    0.041706   -1.164946
     11          6           0        0.564657    0.762054   -1.163138
     12          8           0       -1.786481   -2.008787   -0.472027
     13          6           0       -3.087163   -1.445365   -0.651398
     14          6           0       -3.676316   -0.912891    0.655889
     15          6           0       -2.929513    0.256960    1.308388
     16          6           0       -2.907494    1.575736    0.564046
     17          8           0       -2.243303    2.535525    0.879260
     18          8           0       -3.748273    1.604135   -0.507920
     19          1           0        5.281150    2.238293   -0.416173
     20          1           0        5.703930    1.500000    1.137222
     21          1           0        6.188029    0.717385   -0.367177
     22          1           0        2.982729    1.971393   -1.013425
     23          1           0        2.814616   -2.459645    1.236350
     24          1           0        4.900010   -1.151574    1.222699
     25          1           0        0.391404   -2.684286    0.609579
     26          1           0       -1.479812    0.449992   -1.661532
     27          1           0        0.598983    1.730789   -1.654747
     28          1           0       -3.092486   -0.679912   -1.430661
     29          1           0       -3.700100   -2.278724   -1.006415
     30          1           0       -4.716299   -0.625322    0.461422
     31          1           0       -3.699911   -1.739566    1.375494
     32          1           0       -3.380183    0.476096    2.285326
     33          1           0       -1.886665    0.001148    1.516341
     34          1           0       -3.665373    2.502656   -0.879740
 ---------------------------------------------------------------------

 SCF Done:  E(UB3LYP) =  -807.214974972     A.U. after   33 cycles
 SCF Done:  E(UB3LYP) =  -807.214974972     a.u. after    1 cycles

 The electronic state is 2-A.
 Alpha  occ. eigenvalues --  -19.06631 -19.03235 -19.00302 -10.19431 -10.11816
 Alpha  occ. eigenvalues --  -10.10786 -10.07754 -10.07303 -10.06809 -10.05807
 Alpha  occ. eigenvalues --  -10.05545 -10.05119 -10.04342 -10.04181 -10.04089
 Alpha  occ. eigenvalues --  -10.04087 -10.03931 -10.03416  -1.00311  -0.94710
 Alpha  occ. eigenvalues --   -0.91193  -0.74791  -0.70716  -0.69461  -0.65270
 Alpha  occ. eigenvalues --   -0.64357  -0.61101  -0.60189  -0.56649  -0.53050
 Alpha  occ. eigenvalues --   -0.50414  -0.49543  -0.47427  -0.46264  -0.41704
 Alpha  occ. eigenvalues --   -0.39405  -0.38630  -0.38179  -0.37777  -0.36766
 Alpha  occ. eigenvalues --   -0.34927  -0.34424  -0.33093  -0.32296  -0.31874
 Alpha  occ. eigenvalues --   -0.31275  -0.30026  -0.29557  -0.29023  -0.28477
 Alpha  occ. eigenvalues --   -0.27761  -0.27032  -0.26515  -0.25742  -0.25214
 Alpha  occ. eigenvalues --   -0.23286  -0.22645  -0.21843  -0.21503  -0.19968
 Alpha  occ. eigenvalues --   -0.18009  -0.17351  -0.15709  -0.11402  -0.08678
 Alpha  occ. eigenvalues --    0.04511
 Alpha virt. eigenvalues --    0.06295   0.07353   0.07459   0.08396   0.08994
 Alpha virt. eigenvalues --    0.09693   0.10009   0.10471   0.10608   0.11043
 Alpha virt. eigenvalues --    0.11359   0.11794   0.12366   0.12635   0.13137

  Beta  occ. eigenvalues --  -19.06597 -19.03230 -19.00263 -10.19355 -10.11813
  Beta  occ. eigenvalues --  -10.10809 -10.07744 -10.07286 -10.06807 -10.05834
  Beta  occ. eigenvalues --  -10.05561 -10.05165 -10.04213 -10.04047 -10.03968
  Beta  occ. eigenvalues --  -10.03913 -10.03724 -10.03268  -1.00216  -0.94698
  Beta  occ. eigenvalues --   -0.91116  -0.74605  -0.70576  -0.69341  -0.65022
  Beta  occ. eigenvalues --   -0.64219  -0.60957  -0.59933  -0.56498  -0.52917
  Beta  occ. eigenvalues --   -0.50052  -0.49417  -0.47225  -0.46207  -0.41621
  Beta  occ. eigenvalues --   -0.39275  -0.38538  -0.38029  -0.37688  -0.36670
  Beta  occ. eigenvalues --   -0.34825  -0.34322  -0.32979  -0.32185  -0.31824
  Beta  occ. eigenvalues --   -0.31203  -0.29957  -0.29473  -0.28932  -0.28325
  Beta  occ. eigenvalues --   -0.27675  -0.26928  -0.26314  -0.25563  -0.25145
  Beta  occ. eigenvalues --   -0.23069  -0.22543  -0.21690  -0.21384  -0.19845
  Beta  occ. eigenvalues --   -0.17312  -0.17231  -0.15030  -0.10631  -0.07844
  Beta virt. eigenvalues --    0.06937   0.07339   0.07925   0.08445   0.08962
  Beta virt. eigenvalues --    0.09047   0.09778   0.10056   0.10747   0.11113
  Beta virt. eigenvalues --    0.11172   0.11421   0.11900   0.12415   0.12744

 Mulliken charges and spin densities:
               1          2
     1  C   -0.367786   0.011184
     2  C    0.645590  -0.037873
     3  C   -0.544003   0.125085
     4  C   -0.291856  -0.079698
     5  C    0.160250   0.046428
     6  C   -0.224464   0.087023
     7  C   -0.638047   0.103735
     8  C   -0.451782   0.195569
     9  C   -0.437383  -0.030082
    10  C    0.604976   0.028572
    11  C    0.070526   0.072835
    12  O   -0.065589  -0.001159
    13  C   -0.535018   0.324561
    14  C    0.814666  -1.363859
    15  C   -0.286918   0.308429
    16  C    0.074541  -0.303438
    17  O   -0.256277   0.024061
    18  O   -0.168401   0.033350
    19  H    0.137347  -0.000528
    20  H    0.134370  -0.000917
    21  H    0.131173   0.000003
    22  H    0.045455  -0.010991
    23  H    0.087786  -0.008138
    24  H    0.107934  -0.007980
    25  H    0.126472  -0.005575
    26  H    0.215627  -0.067221
    27  H    0.113178  -0.000663
    28  H    0.140580  -0.004694
    29  H   -0.018030   0.189192
    30  H   -0.167567   0.329561
    31  H    0.029857   0.135231
    32  H   -0.451650   0.659472
    33  H    0.297728  -0.071950
    34  H   -0.033283   0.320477
 Sum of Mulliken charges =  -1.00000   1.00000

 Dipole moment (field-independent basis, Debye):
    X=              3.0437    Y=             -0.9493    Z=             -1.9231  Tot=              3.7234
 Quadrupole moment (field-independent basis, Debye-Ang):
   XX=           -171.6424   YY=           -134.2499   ZZ=           -126.4757
   XY=              6.6221   XZ=              9.8137   YZ=             -7.1086

 Summary of Natural Population Analysis:

                                       Natural Population
                Natural  -----------------------------------------------
    Atom  No    Charge         Core      Valence    Rydberg      Total
 -----------------------------------------------------------------------
      C    1   -0.28768      0.99964     2.28348    0.00456     3.28768
      C    2   -0.04057      0.99953     2.03276    0.00828     3.04057
      C    3   -0.05624      0.99942     2.04782    0.00901     3.05624
      C    4   -0.04457      0.99940     2.03523    0.00994     3.04457
      C    5   -0.02790      0.99951     2.01974    0.00865     3.02790
      C    6   -0.07264      0.99954     2.06437    0.00874     3.07264
      C    7   -0.08375      0.99953     2.07523    0.00899     3.08375
      C    8   -0.09786      0.99949     2.08994    0.00843     3.09786
      C    9    0.15168      0.99937     1.83527    0.01368     2.84832
      C   10   -0.13156      0.99954     2.12164    0.01038     3.13156
      C   11   -0.02183      0.99957     2.01755    0.00471     3.02183
      O   12   -0.28595      0.99986     3.27671    0.00938     4.28595
      C   13   -0.00858      0.99955     1.99694    0.01210     3.00858
      C   14   -0.20447      0.99962     2.19466    0.01018     3.20447
      C   15   -0.24712      0.99956     2.23749    0.01007     3.24712
      C   16    0.41810      0.99971     1.55663    0.02556     2.58190
      O   17   -0.30499      0.99987     3.29931    0.00581     4.30499
      O   18   -0.35425      0.99988     3.34739    0.00698     4.35425
      H   19    0.09707      0.00000     0.40206    0.00087     0.40293
      H   20    0.09638      0.00000     0.40250    0.00112     0.40362
      H   21    0.09563      0.00000     0.40323    0.00114     0.40437
      H   22    0.08821      0.00000     0.40986    0.00193     0.41179
      H   23    0.08993      0.00000     0.40837    0.00170     0.41007
      H   24    0.08801      0.00000     0.41058    0.00141     0.41199
      H   25    0.09638      0.00000     0.40208    0.00154     0.40362
      H   26    0.09705      0.00000     0.40025    0.00270     0.40295
      H   27    0.09087      0.00000     0.40797    0.00115     0.40913
      H   28    0.08823      0.00000     0.41005    0.00173     0.41177
      H   29    0.08795      0.00000     0.41097    0.00108     0.41205
      H   30    0.10356      0.00000     0.39480    0.00164     0.39644
      H   31    0.10030      0.00000     0.39854    0.00116     0.39970
      H   32    0.11804      0.00000     0.37996    0.00200     0.38196
      H   33    0.12296      0.00000     0.37569    0.00135     0.37704
      H   34    0.23972      0.00000     0.25576    0.00452     0.26028
 =======================================================================
   * Total *    0.00008     17.99257    46.80484    0.20250    64.99992

 Normal termination of Gaussian 16 at Fri Dec 11 21:39:35 2020.
