 Gaussian 16, Revision A.03,

 -----------------------------------------------------------
 # opt freq B3LYP/6-31G(d) empiricaldispersion=gd3bj scf=xqc
 -----------------------------------------------------------

 -------------------------------
 CID_134893470_JID_6085_neutraal
 -------------------------------
 Symbolic Z-matrix:
 Charge =  0 Multiplicity = 1

 SCF Done:  E(RB3LYP) =  -660.053122560     A.U. after   15 cycles
 SCF Done:  E(RB3LYP) =  -660.053241553     A.U. after   15 cycles
 SCF Done:  E(RB3LYP) =  -660.057755259     A.U. after   15 cycles
 SCF Done:  E(RB3LYP) =  -660.056208245     A.U. after   15 cycles
 SCF Done:  E(RB3LYP) =  -660.059140227     A.U. after   12 cycles
 SCF Done:  E(RB3LYP) =  -660.059519006     A.U. after   13 cycles
 SCF Done:  E(RB3LYP) =  -660.059767592     A.U. after   13 cycles
 SCF Done:  E(RB3LYP) =  -660.060153420     A.U. after   13 cycles
 SCF Done:  E(RB3LYP) =  -660.060754938     A.U. after   14 cycles
 SCF Done:  E(RB3LYP) =  -660.060884990     A.U. after   14 cycles
 SCF Done:  E(RB3LYP) =  -660.061357980     A.U. after    8 cycles
 SCF Done:  E(RB3LYP) =  -660.061358397     A.U. after    8 cycles
 SCF Done:  E(RB3LYP) =  -660.061358488     A.U. after    7 cycles
 SCF Done:  E(RB3LYP) =  -660.061358516     A.U. after    6 cycles
 SCF Done:  E(RB3LYP) =  -660.061358541     A.U. after    7 cycles
 Optimization completed.
    -- Stationary point found.
 Normal termination of Gaussian 16 at Thu Dec 10 21:25:15 2020.

 --------------------------------------------------------------------
 #N Geom=AllCheck Guess=TCheck SCRF=Check GenChk RB3LYP/6-31G(d) Freq
 --------------------------------------------------------------------

 Structure from the checkpoint file:  "JID_6085.chk"
 -------------------------------
 CID_134893470_JID_6085_neutraal
 -------------------------------
 Charge =  0 Multiplicity = 1

 SCF Done:  E(RB3LYP) =  -660.061358541     A.U. after    1 cycles

  Exact polarizability: 239.786 -12.077 121.351  21.816   2.311 129.529
 Approx polarizability: 345.880 -27.217 178.822  51.388  -2.565 196.585

                      1                      2                      3
                      A                      A                      A
 Frequencies --     24.2012                32.9547                42.0425
 Red. masses --      4.5694                 3.4976                 3.2282
 Frc consts  --      0.0016                 0.0022                 0.0034
 IR Inten    --      0.0783                 0.0087                 0.0229

                      4                      5                      6
                      A                      A                      A
 Frequencies --     44.8456                68.0100                76.6250
 Red. masses --      3.5577                 2.4297                 4.7132
 Frc consts  --      0.0042                 0.0066                 0.0163
 IR Inten    --      0.0529                 0.3159                 0.0998

                      7                      8                      9
                      A                      A                      A
 Frequencies --     94.2498               118.3786               122.7700
 Red. masses --      3.7985                 3.0784                 2.0470
 Frc consts  --      0.0199                 0.0254                 0.0182
 IR Inten    --      0.0452                 0.5464                 0.4716

                     10                     11                     12
                      A                      A                      A
 Frequencies --    141.7519               151.0735               163.6509
 Red. masses --      1.6349                 1.2128                 3.5818
 Frc consts  --      0.0194                 0.0163                 0.0565
 IR Inten    --      1.1912                 0.2020                 3.0934

                     13                     14                     15
                      A                      A                      A
 Frequencies --    195.4744               212.0446               247.2457
 Red. masses --      1.1988                 2.4619                 3.1453
 Frc consts  --      0.0270                 0.0652                 0.1133
 IR Inten    --      0.6183                 0.9489                 0.4999

                     16                     17                     18
                      A                      A                      A
 Frequencies --    306.1125               318.5377               346.5281
 Red. masses --      2.8455                 2.2817                 2.3795
 Frc consts  --      0.1571                 0.1364                 0.1683
 IR Inten    --      0.3414                 0.1342                 0.3124

                     19                     20                     21
                      A                      A                      A
 Frequencies --    385.6387               392.8651               402.9384
 Red. masses --      2.3221                 3.5043                 2.4116
 Frc consts  --      0.2035                 0.3187                 0.2307
 IR Inten    --      0.0830                 0.9573                 1.1766

                     22                     23                     24
                      A                      A                      A
 Frequencies --    423.1041               425.8841               474.6535
 Red. masses --      2.0752                 2.4016                 2.3222
 Frc consts  --      0.2189                 0.2566                 0.3082
 IR Inten    --      0.5831                 5.5774                 1.9718

                     25                     26                     27
                      A                      A                      A
 Frequencies --    487.6560               521.8826               535.3291
 Red. masses --      4.6336                 2.3907                 2.2004
 Frc consts  --      0.6492                 0.3836                 0.3715
 IR Inten    --      5.9658                18.0569                 4.4328

                     28                     29                     30
                      A                      A                      A
 Frequencies --    560.7046               605.9623               635.7479
 Red. masses --      1.7227                 2.3598                 3.9046
 Frc consts  --      0.3191                 0.5105                 0.9298
 IR Inten    --     13.5104                 4.6396                 8.8524

                     31                     32                     33
                      A                      A                      A
 Frequencies --    675.3943               743.3911               745.5421
 Red. masses --      2.3508                 1.2318                 2.2969
 Frc consts  --      0.6318                 0.4011                 0.7522
 IR Inten    --      0.6955                 3.7095                 0.3489

                     34                     35                     36
                      A                      A                      A
 Frequencies --    774.3136               806.2401               862.5222
 Red. masses --      2.6900                 2.9956                 1.3962
 Frc consts  --      0.9502                 1.1473                 0.6120
 IR Inten    --      3.2061                 0.9159                 9.7505

                     37                     38                     39
                      A                      A                      A
 Frequencies --    863.9561               871.7682               876.9070
 Red. masses --      1.7659                 1.6831                 1.5989
 Frc consts  --      0.7766                 0.7536                 0.7244
 IR Inten    --     13.9900                33.1912                21.1847

                     40                     41                     42
                      A                      A                      A
 Frequencies --    913.3633               953.0934               958.8160
 Red. masses --      1.7472                 2.2466                 1.9845
 Frc consts  --      0.8588                 1.2024                 1.0749
 IR Inten    --      2.0613                 5.0791                 2.5862

                     43                     44                     45
                      A                      A                      A
 Frequencies --    977.0068              1002.7699              1012.1120
 Red. masses --      1.4294                 1.8032                 1.7200
 Frc consts  --      0.8039                 1.0683                 1.0381
 IR Inten    --      0.1475                 1.0439                 1.6984

                     46                     47                     48
                      A                      A                      A
 Frequencies --   1032.1609              1036.4460              1057.3161
 Red. masses --      1.2937                 1.6385                 1.7137
 Frc consts  --      0.8120                 1.0370                 1.1288
 IR Inten    --      5.4226                 0.6053                 1.2005

                     49                     50                     51
                      A                      A                      A
 Frequencies --   1068.8180              1085.1293              1118.2664
 Red. masses --      1.9624                 1.8245                 1.6869
 Frc consts  --      1.3208                 1.2658                 1.2429
 IR Inten    --      6.7493                 3.7510                 0.8581

                     52                     53                     54
                      A                      A                      A
 Frequencies --   1120.5551              1140.3386              1146.1855
 Red. masses --      2.3405                 1.6273                 1.9172
 Frc consts  --      1.7315                 1.2467                 1.4840
 IR Inten    --     10.0642                10.4941                14.2245

                     55                     56                     57
                      A                      A                      A
 Frequencies --   1187.7073              1196.6124              1227.2337
 Red. masses --      1.3882                 1.4853                 1.5458
 Frc consts  --      1.1538                 1.2531                 1.3717
 IR Inten    --      6.0593                 1.8197                 2.9122

                     58                     59                     60
                      A                      A                      A
 Frequencies --   1253.0640              1272.6322              1284.5569
 Red. masses --      1.3332                 1.6417                 1.3691
 Frc consts  --      1.2333                 1.5666                 1.3311
 IR Inten    --      2.2851                 3.3556                 1.4500

                     61                     62                     63
                      A                      A                      A
 Frequencies --   1311.4089              1364.6032              1367.8883
 Red. masses --      1.8126                 1.2835                 1.2931
 Frc consts  --      1.8366                 1.4081                 1.4256
 IR Inten    --      9.0078                 7.4921                 6.1400

                     64                     65                     66
                      A                      A                      A
 Frequencies --   1378.3286              1379.5686              1396.8939
 Red. masses --      1.5564                 1.3669                 2.3541
 Frc consts  --      1.7422                 1.5328                 2.7065
 IR Inten    --      5.6818                 1.4490                 9.7168

                     67                     68                     69
                      A                      A                      A
 Frequencies --   1405.8009              1418.4995              1439.7745
 Red. masses --      1.4453                 1.4026                 1.3685
 Frc consts  --      1.6828                 1.6629                 1.6714
 IR Inten    --      2.2070                 4.0710                 6.1458

                     70                     71                     72
                      A                      A                      A
 Frequencies --   1447.8739              1449.5748              1483.1000
 Red. masses --      1.3012                 1.2894                 1.3498
 Frc consts  --      1.6071                 1.5963                 1.7493
 IR Inten    --      2.0440                 3.7023                 1.9734

                     73                     74                     75
                      A                      A                      A
 Frequencies --   1501.7950              1506.0035              1507.9565
 Red. masses --      1.0529                 1.0767                 1.0795
 Frc consts  --      1.3992                 1.4388                 1.4463
 IR Inten    --      0.4899                 1.1049                10.1629

                     76                     77                     78
                      A                      A                      A
 Frequencies --   1510.9950              1519.7654              1520.7737
 Red. masses --      1.0662                 1.0530                 1.0647
 Frc consts  --      1.4342                 1.4329                 1.4508
 IR Inten    --      7.0832                10.1528                 9.9245

                     79                     80                     81
                      A                      A                      A
 Frequencies --   1525.3784              1528.7444              1533.2369
 Red. masses --      1.0732                 1.0880                 1.1022
 Frc consts  --      1.4713                 1.4981                 1.5266
 IR Inten    --      6.5789                 9.8370                 1.2736

                     82                     83                     84
                      A                      A                      A
 Frequencies --   1533.9063              1701.2430              1741.0068
 Red. masses --      1.0835                 4.7924                 6.4752
 Frc consts  --      1.5021                 8.1722                11.5638
 IR Inten    --      9.7573                65.2779                 4.5909

                     85                     86                     87
                      A                      A                      A
 Frequencies --   1753.6197              2209.5129              3021.5655
 Red. masses --      6.4067                12.4647                 1.0392
 Frc consts  --     11.6079                35.8529                 5.5898
 IR Inten    --      4.5140               751.4232                31.2512

                     88                     89                     90
                      A                      A                      A
 Frequencies --   3025.3057              3029.7190              3044.1050
 Red. masses --      1.0618                 1.0415                 1.0645
 Frc consts  --      5.7257                 5.6327                 5.8119
 IR Inten    --     20.7012                64.9174                40.4850

                     91                     92                     93
                      A                      A                      A
 Frequencies --   3044.4845              3046.4301              3051.1298
 Red. masses --      1.0652                 1.0570                 1.0411
 Frc consts  --      5.8172                 5.7795                 5.7105
 IR Inten    --     16.5991                25.4970                22.8306

                     94                     95                     96
                      A                      A                      A
 Frequencies --   3064.6641              3069.8302              3074.1581
 Red. masses --      1.0998                 1.0992                 1.0993
 Frc consts  --      6.0857                 6.1030                 6.1210
 IR Inten    --     12.8744                42.6108                33.6047

                     97                     98                     99
                      A                      A                      A
 Frequencies --   3084.9474              3094.3135              3098.2748
 Red. masses --      1.0990                 1.1039                 1.0969
 Frc consts  --      6.1621                 6.2274                 6.2039
 IR Inten    --     24.2932                44.3788                44.7345

                    100                    101                    102
                      A                      A                      A
 Frequencies --   3102.7699              3122.1487              3130.6080
 Red. masses --      1.0983                 1.0989                 1.1001
 Frc consts  --      6.2299                 6.3110                 6.3521
 IR Inten    --     18.2318                23.7521                35.8876

                    103                    104                    105
                      A                      A                      A
 Frequencies --   3139.8868              3152.2500              3167.3312
 Red. masses --      1.0958                 1.0884                 1.0591
 Frc consts  --      6.3649                 6.3718                 6.2600
 IR Inten    --     23.8735                22.5885                 6.2430

                    106                    107                    108
                      A                      A                      A
 Frequencies --   3172.6226              3195.8161              3246.5426
 Red. masses --      1.0885                 1.0862                 1.1167
 Frc consts  --      6.4552                 6.5363                 6.9345
 IR Inten    --     15.9677                 4.1776                13.8642

 - Thermochemistry -
 -------------------
 Temperature   298.150 Kelvin.  Pressure   1.00000 Atm.
 Atom     1 has atomic number  6 and mass  12.00000

 Molecular mass:   218.16707 amu.
 Principal axes and moments of inertia in atomic units:
                           1         2         3
     Eigenvalues --  1775.572347086.674697654.13739
           X            0.99998  -0.00533   0.00223
           Y            0.00528   0.99977   0.02092
           Z           -0.00234  -0.02091   0.99978
 This molecule is an asymmetric top.
 Rotational symmetry number  1.
 Warning -- assumption of classical behavior for rotation
           may cause significant error
 Rotational temperatures (Kelvin)      0.04878     0.01222     0.01132
 Rotational constants (GHZ):           1.01643     0.25467     0.23579
 Zero-point vibrational energy     875901.2 (Joules/Mol)
                                  209.34540 (Kcal/Mol)
 Warning -- explicit consideration of  29 degrees of freedom as
           vibrations may cause significant error
 Vibrational temperatures:     34.82    47.41    60.49    64.52    97.85
          (Kelvin)            110.25   135.60   170.32   176.64   203.95
                              217.36   235.46   281.24   305.08   355.73
                              440.43   458.30   498.58   554.85   565.25
                              579.74   608.75   612.75   682.92   701.63
                              750.87   770.22   806.73   871.84   914.70
                              971.74  1069.57  1072.67  1114.06  1160.00
                             1240.98  1243.04  1254.28  1261.67  1314.13
                             1371.29  1379.52  1405.69  1442.76  1456.20
                             1485.05  1491.21  1521.24  1537.79  1561.26
                             1608.94  1612.23  1640.69  1649.11  1708.85
                             1721.66  1765.72  1802.88  1831.03  1848.19
                             1886.82  1963.36  1968.09  1983.11  1984.89
                             2009.82  2022.63  2040.90  2071.51  2083.17
                             2085.61  2133.85  2160.75  2166.80  2169.61
                             2173.98  2186.60  2188.05  2194.68  2199.52
                             2205.99  2206.95  2447.71  2504.92  2523.07
                             3179.00  4347.36  4352.74  4359.09  4379.79
                             4380.33  4383.13  4389.90  4409.37  4416.80
                             4423.03  4438.55  4452.03  4457.73  4464.19
                             4492.08  4504.25  4517.60  4535.38  4557.08
                             4564.70  4598.07  4671.05

 Zero-point correction=                           0.333613 (Hartree/Particle)
 Thermal correction to Energy=                    0.352636
 Thermal correction to Enthalpy=                  0.353580
 Thermal correction to Gibbs Free Energy=         0.284614
 Sum of electronic and zero-point Energies=           -659.727745
 Sum of electronic and thermal Energies=              -659.708723
 Sum of electronic and thermal Enthalpies=            -659.707779
 Sum of electronic and thermal Free Energies=         -659.776744

                     E (Thermal)             CV                S
                      KCal/Mol        Cal/Mol-Kelvin    Cal/Mol-Kelvin
 Total                  221.282             69.147            145.150
 Electronic               0.000              0.000              0.000
 Translational            0.889              2.981             42.043
 Rotational               0.889              2.981             32.932
 Vibrational            219.505             63.186             70.175
 Vibration     1          0.593              1.985              6.256
 Vibration     2          0.594              1.983              5.643
 Vibration     3          0.595              1.980              5.160
 Vibration     4          0.595              1.979              5.033
 Vibration     5          0.598              1.969              4.210
 Vibration     6          0.599              1.965              3.976
 Vibration     7          0.603              1.953              3.570
 Vibration     8          0.609              1.934              3.127
 Vibration     9          0.610              1.930              3.056
 Vibration    10          0.615              1.911              2.780
 Vibration    11          0.618              1.901              2.659
 Vibration    12          0.623              1.887              2.507
 Vibration    13          0.636              1.846              2.175
 Vibration    14          0.643              1.823              2.026
 Vibration    15          0.661              1.767              1.750
 Vibration    16          0.696              1.662              1.383
 Vibration    17          0.705              1.638              1.318
 Vibration    18          0.725              1.582              1.182
 Vibration    19          0.754              1.501              1.017
 Vibration    20          0.760              1.485              0.989
 Vibration    21          0.768              1.464              0.952
 Vibration    22          0.785              1.420              0.881
 Vibration    23          0.788              1.414              0.872
 Vibration    24          0.831              1.306              0.725
 Vibration    25          0.844              1.277              0.690
 Vibration    26          0.877              1.202              0.606
 Vibration    27          0.890              1.172              0.575
 Vibration    28          0.916              1.116              0.522
 Vibration    29          0.965              1.019              0.440

 Optimization completed.
    -- Stationary point found.
 Normal termination of Gaussian 16 at Thu Dec 10 21:38:39 2020.

 ----------------------------------------------------------------------
 # B3LYP/6-311++G(d,p) empiricaldispersion=gd3bj scf=xqc pop=npa geom=c
 heck
 ----------------------------------------------------------------------

 ---------------------------------------
 CID_134893470_JID_6085_Energie_neutraal
 ---------------------------------------
 Structure from the checkpoint file:  "JID_6085.chk"
 Charge =  0 Multiplicity = 1

 SCF Done:  E(RB3LYP) =  -660.246549329     A.U. after   16 cycles
 Normal termination of Gaussian 16 at Thu Dec 10 21:45:58 2020.

 ----------------------------------------------------------------------
 # B3LYP/6-311++G(d,p) empiricaldispersion=gd3bj scf=xqc pop=npa geom=c
 heck
 ----------------------------------------------------------------------

 -------------------------------------
 CID_134893470_JID_6085_Energie_kation
 -------------------------------------
 Structure from the checkpoint file:  "JID_6085.chk"
 Charge =  1 Multiplicity = 2

 SCF Done:  E(UB3LYP) =  -659.975298479     A.U. after   25 cycles
 Normal termination of Gaussian 16 at Thu Dec 10 22:02:40 2020.
 Gaussian 16:  ES64L-G16RevA.03 25-Dec-2016

 ----------------------------------------------------------------------
 # B3LYP/6-311++G(d,p) empiricaldispersion=gd3bj scf=xqc pop=npa geom=c
 heck
 ----------------------------------------------------------------------

 ------------------------------------
 CID_134893470_JID_6085_Energie_anion
 ------------------------------------
 Structure from the checkpoint file:  "JID_6085.chk"
 Charge = -1 Multiplicity = 2

                         Standard orientation:
 ---------------------------------------------------------------------
 Center     Atomic      Atomic             Coordinates (Angstroms)
 Number     Number       Type             X           Y           Z
 ---------------------------------------------------------------------
      1          6           0       -4.463615    0.885237   -1.316935
      2          6           0       -3.756409    0.379233   -0.085214
      3          6           0       -2.483354    0.713895    0.169926
      4          6           0       -1.652114    0.261261    1.343411
      5          6           0       -1.021545   -1.150065    1.205341
      6          6           0       -0.005854   -1.328996    0.096905
      7          6           0        1.296353   -1.453401    0.399919
      8          6           0        2.441142   -1.688401   -0.550644
      9          6           0        3.135376   -0.402062   -1.063923
     10          6           0        3.629881    0.498315    0.050558
     11          6           0        4.834269    0.315015    0.615675
     12          6           0        2.733708    1.559330    0.515906
     13          6           0        1.561918    1.829770   -0.035357
     14          8           0        0.528067    2.095072   -0.519177
     15          6           0       -0.539539   -1.380464   -1.312811
     16          6           0       -4.585461   -0.518294    0.798030
     17          1           0       -3.815968    1.527779   -1.921394
     18          1           0       -5.362866    1.458839   -1.051318
     19          1           0       -4.802914    0.052147   -1.948883
     20          1           0       -1.977636    1.363875   -0.541162
     21          1           0       -0.847101    0.984101    1.512103
     22          1           0       -2.259153    0.254925    2.257688
     23          1           0       -0.547169   -1.397743    2.162727
     24          1           0       -1.837717   -1.871888    1.059282
     25          1           0        1.578580   -1.373679    1.449185
     26          1           0        3.199202   -2.297224   -0.042857
     27          1           0        2.111886   -2.262380   -1.424671
     28          1           0        3.983630   -0.692200   -1.693873
     29          1           0        2.435658    0.142572   -1.710815
     30          1           0        5.186292    0.929575    1.439162
     31          1           0        5.502127   -0.465257    0.263538
     32          1           0        3.022950    2.197043    1.346802
     33          1           0       -1.437102   -2.008126   -1.368434
     34          1           0       -0.840944   -0.383574   -1.653756
     35          1           0        0.195163   -1.767203   -2.024595
     36          1           0       -5.526222   -0.025998    1.080580
     37          1           0       -4.865505   -1.437466    0.264513
     38          1           0       -4.068253   -0.810928    1.714877
 ---------------------------------------------------------------------

 SCF Done:  E(UB3LYP) =  -660.240316962     A.U. after   33 cycles
 SCF Done:  E(UB3LYP) =  -660.240316962     a.u. after    1 cycles

 The electronic state is 2-A.
 Alpha  occ. eigenvalues --  -19.02557 -10.11403 -10.07288 -10.07047 -10.06877
 Alpha  occ. eigenvalues --  -10.06797 -10.06739 -10.06388 -10.06186 -10.06051
 Alpha  occ. eigenvalues --  -10.06000 -10.05561 -10.05341 -10.04992 -10.04262
 Alpha  occ. eigenvalues --  -10.03393  -0.96033  -0.72536  -0.71340  -0.69742
 Alpha  occ. eigenvalues --   -0.65757  -0.63181  -0.60591  -0.59051  -0.58358
 Alpha  occ. eigenvalues --   -0.56727  -0.52331  -0.49268  -0.44709  -0.41723
 Alpha  occ. eigenvalues --   -0.40405  -0.38647  -0.37697  -0.36585  -0.36004
 Alpha  occ. eigenvalues --   -0.35340  -0.33594  -0.33084  -0.32939  -0.31645
 Alpha  occ. eigenvalues --   -0.30725  -0.29834  -0.29802  -0.28891  -0.28476
 Alpha  occ. eigenvalues --   -0.28167  -0.28110  -0.27548  -0.26766  -0.26388
 Alpha  occ. eigenvalues --   -0.25890  -0.24199  -0.23608  -0.22590  -0.21876
 Alpha  occ. eigenvalues --   -0.20970  -0.17641  -0.14174  -0.12202  -0.07912
 Alpha  occ. eigenvalues --    0.04735
 Alpha virt. eigenvalues --    0.06123   0.07482   0.07808   0.08289   0.08705
 Alpha virt. eigenvalues --    0.09311   0.09477   0.10109   0.10531   0.11062
 Alpha virt. eigenvalues --    0.11103   0.11398   0.11750   0.12143   0.12322

  Beta  occ. eigenvalues --  -19.02180 -10.10825 -10.07199 -10.07046 -10.06870
  Beta  occ. eigenvalues --  -10.06792 -10.06723 -10.06383 -10.06164 -10.06047
  Beta  occ. eigenvalues --  -10.05962 -10.05551 -10.05344 -10.04990 -10.04351
  Beta  occ. eigenvalues --  -10.03401  -0.95275  -0.72489  -0.71267  -0.69662
  Beta  occ. eigenvalues --   -0.65654  -0.63046  -0.60147  -0.58993  -0.58329
  Beta  occ. eigenvalues --   -0.56704  -0.52298  -0.49228  -0.44296  -0.41611
  Beta  occ. eigenvalues --   -0.40321  -0.38303  -0.37521  -0.36248  -0.35850
  Beta  occ. eigenvalues --   -0.35047  -0.33423  -0.33015  -0.32660  -0.31583
  Beta  occ. eigenvalues --   -0.30546  -0.29669  -0.29346  -0.28767  -0.28428
  Beta  occ. eigenvalues --   -0.28132  -0.27749  -0.26739  -0.26523  -0.26272
  Beta  occ. eigenvalues --   -0.25831  -0.24065  -0.23533  -0.22473  -0.21809
  Beta  occ. eigenvalues --   -0.20936  -0.17622  -0.14135  -0.12168  -0.07835
  Beta virt. eigenvalues --    0.06784   0.07438   0.08022   0.08327   0.08964
  Beta virt. eigenvalues --    0.09368   0.09597   0.10139   0.10624   0.10979
  Beta virt. eigenvalues --    0.11215   0.11401   0.11741   0.12149   0.12242

 Mulliken charges and spin densities:
               1          2
     1  C   -0.201244  -0.500339
     2  C   -0.669144   1.150143
     3  C    0.321981  -0.535423
     4  C   -0.285080   0.093747
     5  C   -0.503269  -0.200462
     6  C    0.110296   0.309805
     7  C    0.422205  -0.103697
     8  C   -0.466392   0.019904
     9  C   -0.844266   0.015114
    10  C    1.017672   0.038155
    11  C   -0.430624  -0.272609
    12  C   -0.280989  -0.124243
    13  C   -0.095715   0.348374
    14  O   -0.256679   0.121618
    15  C   -0.474365  -0.400198
    16  C    0.809153  -1.444725
    17  H   -0.053792   0.192072
    18  H   -0.010758   0.136584
    19  H   -0.120419   0.263483
    20  H    0.353342  -0.090932
    21  H    0.135252   0.021560
    22  H    0.119276   0.046932
    23  H    0.072499   0.073087
    24  H    0.010996   0.116089
    25  H    0.196985  -0.002417
    26  H    0.142304   0.000121
    27  H    0.127885   0.003907
    28  H    0.154856   0.004524
    29  H    0.146232   0.002866
    30  H    0.002826   0.112888
    31  H    0.109621  -0.014222
    32  H   -0.102026   0.311259
    33  H   -0.011222   0.166094
    34  H    0.127447   0.038709
    35  H    0.090840   0.008175
    36  H   -0.174589   0.305961
    37  H   -0.213815   0.377281
    38  H   -0.277280   0.410812
 Sum of Mulliken charges =  -1.00000   1.00000

 Dipole moment (field-independent basis, Debye):
    X=              3.3210    Y=             -1.6154    Z=             -0.7135  Tot=              3.7613
 Quadrupole moment (field-independent basis, Debye-Ang):
   XX=           -192.4873   YY=           -130.4452   ZZ=           -121.5914
   XY=            -14.8998   XZ=             -4.9935   YZ=              1.2363

 Summary of Natural Population Analysis:

                                       Natural Population
                Natural  -----------------------------------------------
    Atom  No    Charge         Core      Valence    Rydberg      Total
 -----------------------------------------------------------------------
      C    1   -0.29347      0.99963     2.28801    0.00582     3.29347
      C    2   -0.01248      0.99949     2.00427    0.00872     3.01248
      C    3   -0.10065      0.99945     2.09089    0.01032     3.10065
      C    4   -0.20488      0.99961     2.19613    0.00915     3.20488
      C    5   -0.19190      0.99958     2.18324    0.00908     3.19190
      C    6    0.00069      0.99947     1.99032    0.00952     2.99931
      C    7   -0.10131      0.99946     2.09128    0.01057     3.10131
      C    8   -0.19881      0.99961     2.19088    0.00831     3.19881
      C    9   -0.19592      0.99958     2.18831    0.00803     3.19592
      C   10    0.01119      0.99951     1.97798    0.01132     2.98881
      C   11   -0.24876      0.99951     2.24067    0.00857     3.24876
      C   12   -0.29073      0.99940     2.28278    0.00855     3.29073
      C   13    0.44137      0.99956     1.53896    0.02010     2.55863
      O   14   -0.21499      0.99987     3.20759    0.00754     4.21499
      C   15   -0.30317      0.99962     2.29788    0.00567     3.30317
      C   16   -0.30137      0.99962     2.29541    0.00633     3.30137
      H   17    0.10127      0.00000     0.39797    0.00075     0.39873
      H   18    0.09778      0.00000     0.40124    0.00098     0.40222
      H   19    0.10043      0.00000     0.39842    0.00115     0.39957
      H   20    0.10175      0.00000     0.39658    0.00167     0.39825
      H   21    0.10667      0.00000     0.39190    0.00143     0.39333
      H   22    0.09712      0.00000     0.40188    0.00100     0.40288
      H   23    0.09719      0.00000     0.40188    0.00092     0.40281
      H   24    0.09725      0.00000     0.40153    0.00122     0.40275
      H   25    0.09495      0.00000     0.40426    0.00079     0.40505
      H   26    0.09739      0.00000     0.40163    0.00098     0.40261
      H   27    0.09583      0.00000     0.40309    0.00108     0.40417
      H   28    0.09704      0.00000     0.40204    0.00092     0.40296
      H   29    0.10259      0.00000     0.39653    0.00088     0.39741
      H   30    0.09130      0.00000     0.40735    0.00135     0.40870
      H   31    0.08609      0.00000     0.41300    0.00091     0.41391
      H   32    0.12374      0.00000     0.37353    0.00273     0.37626
      H   33    0.10157      0.00000     0.39741    0.00102     0.39843
      H   34    0.11245      0.00000     0.38651    0.00104     0.38755
      H   35    0.09648      0.00000     0.40264    0.00088     0.40352
      H   36    0.09995      0.00000     0.39894    0.00112     0.40005
      H   37    0.10420      0.00000     0.39408    0.00172     0.39580
      H   38    0.10212      0.00000     0.39682    0.00106     0.39788
 =======================================================================
   * Total *   -0.00000     15.99297    43.83383    0.17320    60.00000

 Normal termination of Gaussian 16 at Thu Dec 10 22:24:57 2020.
