 Gaussian 16, Revision A.03,

 -----------------------------------------------------------
 # opt freq B3LYP/6-31G(d) empiricaldispersion=gd3bj scf=xqc
 -----------------------------------------------------------

 ------------------------------
 CID_85727727_JID_6913_neutraal
 ------------------------------
 Symbolic Z-matrix:
 Charge =  0 Multiplicity = 1

 SCF Done:  E(RB3LYP) =  -1067.29973604     A.U. after   15 cycles
 SCF Done:  E(RB3LYP) =  -1067.30341191     A.U. after   13 cycles
 SCF Done:  E(RB3LYP) =  -1067.30392059     A.U. after   13 cycles
 SCF Done:  E(RB3LYP) =  -1067.30394733     A.U. after   13 cycles
 SCF Done:  E(RB3LYP) =  -1067.30429515     A.U. after   12 cycles
 SCF Done:  E(RB3LYP) =  -1067.30444853     A.U. after   11 cycles
 SCF Done:  E(RB3LYP) =  -1067.30448298     A.U. after   11 cycles
 SCF Done:  E(RB3LYP) =  -1067.30448920     A.U. after    9 cycles
 SCF Done:  E(RB3LYP) =  -1067.30449350     A.U. after   10 cycles
 SCF Done:  E(RB3LYP) =  -1067.30449381     A.U. after    8 cycles
 SCF Done:  E(RB3LYP) =  -1067.30449386     A.U. after    7 cycles
 Optimization completed.
    -- Stationary point found.
 Normal termination of Gaussian 16 at Fri Dec 11 01:05:02 2020.

 --------------------------------------------------------------------
 #N Geom=AllCheck Guess=TCheck SCRF=Check GenChk RB3LYP/6-31G(d) Freq
 --------------------------------------------------------------------

 Structure from the checkpoint file:  "JID_6913.chk"
 ------------------------------
 CID_85727727_JID_6913_neutraal
 ------------------------------
 Charge =  0 Multiplicity = 1

 SCF Done:  E(RB3LYP) =  -1067.30449386     A.U. after    1 cycles

  Exact polarizability: 250.068  -3.214 151.744  -4.209  -0.771  76.980
 Approx polarizability: 343.770 -10.926 277.079 -10.484  -2.238 124.346

                      1                      2                      3
                      A                      A                      A
 Frequencies --     27.5906                78.7407                94.5867
 Red. masses --      6.7224                 4.9157                 3.8596
 Frc consts  --      0.0030                 0.0180                 0.0203
 IR Inten    --      1.0017                 0.1294                 0.8514

                      4                      5                      6
                      A                      A                      A
 Frequencies --    136.3559               174.0254               186.8697
 Red. masses --      3.8334                 3.3171                 3.9535
 Frc consts  --      0.0420                 0.0592                 0.0813
 IR Inten    --      0.0149                 1.9981                 1.0038

                      7                      8                      9
                      A                      A                      A
 Frequencies --    232.9196               240.6749               258.8370
 Red. masses --      6.4777                 4.1451                 3.5226
 Frc consts  --      0.2071                 0.1415                 0.1390
 IR Inten    --      0.5797                 0.6006                 3.5268

                     10                     11                     12
                      A                      A                      A
 Frequencies --    303.8718               332.7571               351.0496
 Red. masses --      5.5869                 4.2032                 7.4406
 Frc consts  --      0.3039                 0.2742                 0.5403
 IR Inten    --      0.9007                 1.6494                 4.7511

                     13                     14                     15
                      A                      A                      A
 Frequencies --    390.0467               416.5786               443.6515
 Red. masses --      3.1230                 4.0071                 2.3780
 Frc consts  --      0.2799                 0.4097                 0.2758
 IR Inten    --     11.3749                 9.7403                12.6016

                     16                     17                     18
                      A                      A                      A
 Frequencies --    483.1028               499.6547               506.3082
 Red. masses --      2.3403                 5.7996                 4.3224
 Frc consts  --      0.3218                 0.8531                 0.6528
 IR Inten    --     47.4978                 0.4472                 9.2349

                     19                     20                     21
                      A                      A                      A
 Frequencies --    558.2182               571.9309               622.5230
 Red. masses --      2.9335                 3.7813                 4.3415
 Frc consts  --      0.5386                 0.7287                 0.9913
 IR Inten    --     36.8893                 4.6692                 6.3862

                     22                     23                     24
                      A                      A                      A
 Frequencies --    652.2754               668.1600               697.2215
 Red. masses --      5.3440                 4.1006                 3.8595
 Frc consts  --      1.3396                 1.0786                 1.1054
 IR Inten    --     34.6665                36.6933                 1.5488

                     25                     26                     27
                      A                      A                      A
 Frequencies --    735.2863               739.9506               755.7112
 Red. masses --      4.4959                 4.0065                 4.3381
 Frc consts  --      1.4321                 1.2925                 1.4597
 IR Inten    --     13.1896                 8.1070                 0.7794

                     28                     29                     30
                      A                      A                      A
 Frequencies --    787.9843               862.1724               877.6256
 Red. masses --      4.9707                 2.1202                 2.0470
 Frc consts  --      1.8185                 0.9286                 0.9289
 IR Inten    --      6.4047                10.1231                 8.2158

                     31                     32                     33
                      A                      A                      A
 Frequencies --    898.1519               931.5318               939.9441
 Red. masses --      1.3535                 1.7423                 2.3437
 Frc consts  --      0.6433                 0.8908                 1.2200
 IR Inten    --      9.9906                57.1184               136.1396

                     34                     35                     36
                      A                      A                      A
 Frequencies --    962.2222               994.2611              1020.2241
 Red. masses --      3.6427                 2.4117                 1.5890
 Frc consts  --      1.9871                 1.4047                 0.9744
 IR Inten    --     44.1309                 0.4363                 0.8799

                     37                     38                     39
                      A                      A                      A
 Frequencies --   1032.4226              1055.7053              1070.1045
 Red. masses --      2.5470                 2.3017                 7.2606
 Frc consts  --      1.5995                 1.5114                 4.8986
 IR Inten    --     30.1932                23.9419                79.1129

                     40                     41                     42
                      A                      A                      A
 Frequencies --   1158.6321              1175.0275              1184.8615
 Red. masses --      1.2100                 2.8584                 1.5987
 Frc consts  --      0.9571                 2.3253                 1.3224
 IR Inten    --      1.6541                 1.6059                 1.1352

                     43                     44                     45
                      A                      A                      A
 Frequencies --   1198.1156              1206.2303              1242.8366
 Red. masses --      1.2356                 1.4701                 2.1034
 Frc consts  --      1.0450                 1.2603                 1.9143
 IR Inten    --     20.3881                 1.6834                71.9089

                     46                     47                     48
                      A                      A                      A
 Frequencies --   1258.7743              1287.4016              1299.3161
 Red. masses --      2.0551                 1.8174                 1.8164
 Frc consts  --      1.9186                 1.7747                 1.8067
 IR Inten    --     69.6566                29.4794                25.1831

                     49                     50                     51
                      A                      A                      A
 Frequencies --   1317.2531              1335.9317              1353.7956
 Red. masses --      1.4956                 1.5601                 1.5419
 Frc consts  --      1.5290                 1.6405                 1.6650
 IR Inten    --     40.3020                 0.2380                33.8629

                     52                     53                     54
                      A                      A                      A
 Frequencies --   1369.0046              1391.2815              1429.8082
 Red. masses --      2.6391                 1.9635                 1.3998
 Frc consts  --      2.9142                 2.2393                 1.6861
 IR Inten    --      0.7970                 3.3465               179.0874

                     55                     56                     57
                      A                      A                      A
 Frequencies --   1458.9141              1497.2023              1505.8070
 Red. masses --      6.0427                 1.2146                 1.1705
 Frc consts  --      7.5778                 1.6042                 1.5638
 IR Inten    --     79.0754                 2.3861                 5.8541

                     58                     59                     60
                      A                      A                      A
 Frequencies --   1512.9761              1516.4894              1518.8290
 Red. masses --      1.5043                 1.2359                 1.1877
 Frc consts  --      2.0289                 1.6746                 1.6142
 IR Inten    --     19.8155                 1.9739                 4.6800

                     61                     62                     63
                      A                      A                      A
 Frequencies --   1611.0032              1654.4913              1685.3042
 Red. masses --      8.1027                 6.8367                 7.4787
 Frc consts  --     12.3900                11.0262                12.5151
 IR Inten    --      3.7639                37.4666                55.8255

                     64                     65                     66
                      A                      A                      A
 Frequencies --   1775.6971              3026.9856              3033.1780
 Red. masses --     11.2948                 1.0702                 1.0675
 Frc consts  --     20.9830                 5.7776                 5.7866
 IR Inten    --    123.2438                13.6520                22.0597

                     67                     68                     69
                      A                      A                      A
 Frequencies --   3040.9510              3082.5384              3087.3466
 Red. masses --      1.0687                 1.0685                 1.0954
 Frc consts  --      5.8229                 5.9818                 6.1518
 IR Inten    --     21.3419                15.1796                23.9696

                     70                     71                     72
                      A                      A                      A
 Frequencies --   3098.9800              3142.2354              3153.7801
 Red. masses --      1.0894                 1.0914                 1.1049
 Frc consts  --      6.1642                 6.3494                 6.4748
 IR Inten    --     32.8284                 8.2629                11.1707

                     73                     74                     75
                      A                      A                      A
 Frequencies --   3176.7658              3226.9628              3748.3559
 Red. masses --      1.0902                 1.0908                 1.0676
 Frc consts  --      6.4823                 6.6921                 8.8380
 IR Inten    --     16.0055                 1.8361               125.2778

 - Thermochemistry -
 -------------------
 Temperature   298.150 Kelvin.  Pressure   1.00000 Atm.
 Atom     1 has atomic number  6 and mass  12.00000

 Molecular mass:   233.05105 amu.
 Principal axes and moments of inertia in atomic units:
                           1         2         3
     Eigenvalues --  1338.259137272.886288502.14274
           X            0.99999  -0.00231   0.00233
           Y            0.00231   1.00000   0.00081
           Z           -0.00233  -0.00080   1.00000
 This molecule is an asymmetric top.
 Rotational symmetry number  1.
 Warning -- assumption of classical behavior for rotation
           may cause significant error
 Rotational temperatures (Kelvin)      0.06472     0.01191     0.01019
 Rotational constants (GHZ):           1.34857     0.24815     0.21227
 Zero-point vibrational energy     552401.5 (Joules/Mol)
                                  132.02712 (Kcal/Mol)
 Warning -- explicit consideration of  20 degrees of freedom as
           vibrations may cause significant error
 Vibrational temperatures:     39.70   113.29   136.09   196.19   250.38
          (Kelvin)            268.86   335.12   346.28   372.41   437.20
                              478.76   505.08   561.19   599.36   638.32
                              695.08   718.89   728.46   803.15   822.88
                              895.67   938.48   961.33  1003.15  1057.91
                             1064.62  1087.30  1133.73  1240.47  1262.71
                             1292.24  1340.27  1352.37  1384.42  1430.52
                             1467.87  1485.43  1518.92  1539.64  1667.01
                             1690.60  1704.75  1723.82  1735.50  1788.16
                             1811.10  1852.28  1869.43  1895.23  1922.11
                             1947.81  1969.69  2001.74  2057.18  2099.05
                             2154.14  2166.52  2176.84  2181.89  2185.26
                             2317.87  2380.44  2424.78  2554.83  4355.16
                             4364.07  4375.25  4435.09  4442.00  4458.74
                             4520.98  4537.59  4570.66  4642.88  5393.05

 Zero-point correction=                           0.210399 (Hartree/Particle)
 Thermal correction to Energy=                    0.223648
 Thermal correction to Enthalpy=                  0.224592
 Thermal correction to Gibbs Free Energy=         0.169909
 Sum of electronic and zero-point Energies=          -1067.094095
 Sum of electronic and thermal Energies=             -1067.080846
 Sum of electronic and thermal Enthalpies=           -1067.079902
 Sum of electronic and thermal Free Energies=        -1067.134585

                     E (Thermal)             CV                S
                      KCal/Mol        Cal/Mol-Kelvin    Cal/Mol-Kelvin
 Total                  140.341             52.192            115.091
 Electronic               0.000              0.000              0.000
 Translational            0.889              2.981             42.240
 Rotational               0.889              2.981             32.781
 Vibrational            138.564             46.231             40.070
 Vibration     1          0.593              1.984              5.996
 Vibration     2          0.600              1.963              3.922
 Vibration     3          0.603              1.953              3.563
 Vibration     4          0.614              1.917              2.854
 Vibration     5          0.627              1.874              2.392
 Vibration     6          0.632              1.858              2.259
 Vibration     7          0.654              1.791              1.856
 Vibration     8          0.658              1.778              1.798
 Vibration     9          0.668              1.748              1.670
 Vibration    10          0.695              1.666              1.395
 Vibration    11          0.715              1.610              1.247
 Vibration    12          0.728              1.573              1.161
 Vibration    13          0.758              1.491              1.000
 Vibration    14          0.780              1.434              0.904
 Vibration    15          0.803              1.375              0.815
 Vibration    16          0.839              1.288              0.702
 Vibration    17          0.855              1.251              0.659
 Vibration    18          0.862              1.236              0.643
 Vibration    19          0.914              1.122              0.527
 Vibration    20          0.928              1.092              0.501

 Optimization completed.
    -- Stationary point found.
 Normal termination of Gaussian 16 at Fri Dec 11 01:13:38 2020.

 ----------------------------------------------------------------------
 # B3LYP/6-311++G(d,p) empiricaldispersion=gd3bj scf=xqc pop=npa geom=c
 heck
 ----------------------------------------------------------------------

 --------------------------------------
 CID_85727727_JID_6913_Energie_neutraal
 --------------------------------------
 Structure from the checkpoint file:  "JID_6913.chk"
 Charge =  0 Multiplicity = 1

 SCF Done:  E(RB3LYP) =  -1067.51292223     A.U. after   16 cycles
 Normal termination of Gaussian 16 at Fri Dec 11 01:17:14 2020.

 ----------------------------------------------------------------------
 # B3LYP/6-311++G(d,p) empiricaldispersion=gd3bj scf=xqc pop=npa geom=c
 heck
 ----------------------------------------------------------------------

 ------------------------------------
 CID_85727727_JID_6913_Energie_kation
 ------------------------------------
 Structure from the checkpoint file:  "JID_6913.chk"
 Charge =  1 Multiplicity = 2

 SCF Done:  E(UB3LYP) =  -1067.22841327     A.U. after   28 cycles
 Normal termination of Gaussian 16 at Fri Dec 11 01:25:14 2020.
 Gaussian 16:  ES64L-G16RevA.03 25-Dec-2016

 ----------------------------------------------------------------------
 # B3LYP/6-311++G(d,p) empiricaldispersion=gd3bj scf=xqc pop=npa geom=c
 heck
 ----------------------------------------------------------------------

 -----------------------------------
 CID_85727727_JID_6913_Energie_anion
 -----------------------------------
 Structure from the checkpoint file:  "JID_6913.chk"
 Charge = -1 Multiplicity = 2

                         Standard orientation:
 ---------------------------------------------------------------------
 Center     Atomic      Atomic             Coordinates (Angstroms)
 Number     Number       Type             X           Y           Z
 ---------------------------------------------------------------------
      1          6           0        1.582873    1.889417   -0.260637
      2          6           0        2.775758    1.261631    0.473495
      3          6           0        2.948691   -0.180119    0.073610
      4          7           0        4.066385   -0.773631   -0.151561
      5          8           0        5.158958    0.072374    0.031643
      6          6           0        1.724741   -1.048981   -0.063921
      7          8           0        1.798380   -2.263876   -0.172176
      8          6           0        0.412474   -0.341120   -0.034229
      9          6           0       -0.749124   -1.126041    0.047768
     10          6           0       -1.987075   -0.503951    0.067875
     11          6           0       -2.086908    0.899083    0.010427
     12          6           0       -3.506037    1.402349    0.122703
     13          6           0       -4.421389    0.250935   -0.324919
     14         16           0       -3.568987   -1.311797    0.181093
     15          6           0       -0.933493    1.666949   -0.084425
     16          6           0        0.329409    1.062212   -0.111667
     17          1           0        1.408927    2.905492    0.110187
     18          1           0        1.833586    1.987628   -1.326673
     19          1           0        2.595642    1.304366    1.557081
     20          1           0        3.695047    1.815521    0.276036
     21          1           0        5.903127   -0.505642   -0.200670
     22          1           0       -0.641006   -2.204489    0.083939
     23          1           0       -3.681963    2.303942   -0.473976
     24          1           0       -3.715494    1.656990    1.171493
     25          1           0       -4.541860    0.242711   -1.412322
     26          1           0       -5.407489    0.284412    0.141606
     27          1           0       -1.007643    2.751059   -0.135468
 ---------------------------------------------------------------------

 SCF Done:  E(UB3LYP) =  -1067.54351775     A.U. after   25 cycles

 The electronic state is 2-A.
 Alpha  occ. eigenvalues --  -88.73656 -19.02984 -18.91133 -14.19922 -10.10409
 Alpha  occ. eigenvalues --  -10.07874 -10.07314 -10.06360 -10.05512 -10.04954
 Alpha  occ. eigenvalues --  -10.04837 -10.04789 -10.04767 -10.04455 -10.03081
 Alpha  occ. eigenvalues --  -10.02977  -7.82280  -5.78656  -5.78312  -5.77671
 Alpha  occ. eigenvalues --   -0.95147  -0.85515  -0.75708  -0.72589  -0.70437
 Alpha  occ. eigenvalues --   -0.65750  -0.64052  -0.60119  -0.58750  -0.53254
 Alpha  occ. eigenvalues --   -0.51579  -0.47227  -0.46009  -0.44323  -0.38904
 Alpha  occ. eigenvalues --   -0.37287  -0.36932  -0.36198  -0.34436  -0.32745
 Alpha  occ. eigenvalues --   -0.31595  -0.30129  -0.29869  -0.28721  -0.28297
 Alpha  occ. eigenvalues --   -0.27781  -0.26362  -0.25639  -0.24871  -0.24597
 Alpha  occ. eigenvalues --   -0.23767  -0.22554  -0.21354  -0.21165  -0.19984
 Alpha  occ. eigenvalues --   -0.15826  -0.13141  -0.12263  -0.11804  -0.08972
 Alpha  occ. eigenvalues --   -0.07884   0.02730
 Alpha virt. eigenvalues --    0.07109   0.08434   0.09042   0.09234   0.10077
 Alpha virt. eigenvalues --    0.10931   0.11089   0.11736   0.12080   0.12299
 Alpha virt. eigenvalues --    0.12557   0.13267   0.13595   0.14672   0.15114

  Beta  occ. eigenvalues --  -88.73658 -19.02899 -18.90535 -14.19436 -10.10404
  Beta  occ. eigenvalues --  -10.07896 -10.07402 -10.06087 -10.05516 -10.05003
  Beta  occ. eigenvalues --  -10.04787 -10.04681 -10.04580 -10.04476 -10.02973
  Beta  occ. eigenvalues --  -10.02872  -7.82282  -5.78656  -5.78312  -5.77680
  Beta  occ. eigenvalues --   -0.94794  -0.84471  -0.75531  -0.72258  -0.70218
  Beta  occ. eigenvalues --   -0.65578  -0.63855  -0.59917  -0.58541  -0.52789
  Beta  occ. eigenvalues --   -0.51394  -0.47086  -0.45724  -0.44065  -0.38713
  Beta  occ. eigenvalues --   -0.37161  -0.36814  -0.35956  -0.34175  -0.32543
  Beta  occ. eigenvalues --   -0.31435  -0.29986  -0.29717  -0.28527  -0.27643
  Beta  occ. eigenvalues --   -0.27413  -0.26157  -0.25311  -0.24456  -0.24276
  Beta  occ. eigenvalues --   -0.23182  -0.22126  -0.21079  -0.19928  -0.19720
  Beta  occ. eigenvalues --   -0.15504  -0.12635  -0.11234  -0.09964  -0.08398
  Beta  occ. eigenvalues --   -0.07341
  Beta virt. eigenvalues --    0.07049   0.08311   0.08633   0.09035   0.09690
  Beta virt. eigenvalues --    0.10146   0.10993   0.11158   0.11753   0.12143
  Beta virt. eigenvalues --    0.12609   0.12919   0.13544   0.14296   0.14647

 Mulliken charges and spin densities:
               1          2
     1  C   -0.441048  -0.020139
     2  C   -0.379883  -0.011474
     3  C    0.961487  -0.055175
     4  N   -0.448396   0.220402
     5  O   -0.025090   0.017331
     6  C   -1.841117   0.171652
     7  O   -0.351999   0.232422
     8  C    1.586790   0.003512
     9  C   -0.392730   0.195162
    10  C    0.470985  -0.006259
    11  C    0.379619   0.157347
    12  C   -0.487953  -0.016898
    13  C   -0.396307  -0.004356
    14  S   -0.872922  -0.014447
    15  C   -0.351447  -0.038706
    16  C    0.004453   0.085170
    17  H    0.084534   0.020314
    18  H    0.141259   0.011309
    19  H    0.105531   0.019836
    20  H    0.155160  -0.008676
    21  H    0.256634  -0.000860
    22  H    0.174425  -0.013729
    23  H    0.123110  -0.000014
    24  H    0.104087   0.043470
    25  H    0.197475  -0.000586
    26  H    0.138515   0.011502
    27  H    0.104829   0.001889
 Sum of Mulliken charges =  -1.00000   1.00000

 Dipole moment (field-independent basis, Debye):
    X=             -4.8012    Y=              6.2080    Z=             -0.1344  Tot=              7.8491
 Quadrupole moment (field-independent basis, Debye-Ang):
   XX=           -136.1185   YY=           -122.8919   ZZ=           -108.6991
   XY=              3.6519   XZ=              2.0579   YZ=             -1.7778

 Summary of Natural Population Analysis:

                                       Natural Population
                Natural  -----------------------------------------------
    Atom  No    Charge         Core      Valence    Rydberg      Total
 -----------------------------------------------------------------------
      C    1   -0.19001      0.99961     2.18367    0.00673     3.19001
      C    2   -0.21282      0.99960     2.20382    0.00939     3.21282
      C    3    0.04736      0.99958     1.93330    0.01976     2.95264
      N    4    0.00441      0.99960     2.47991    0.01609     3.49559
      O    5   -0.29299      0.99989     3.28581    0.00728     4.29299
      C    6    0.27659      0.99957     1.70284    0.02100     2.72341
      O    7   -0.22722      0.99988     3.22059    0.00675     4.22722
      C    8   -0.05888      0.99947     2.04659    0.01281     3.05888
      C    9   -0.02331      0.99947     2.01737    0.00647     3.02331
      C   10   -0.11599      0.99939     2.10273    0.01388     3.11599
      C   11    0.01738      0.99945     1.97337    0.00980     2.98262
      C   12   -0.20006      0.99961     2.19257    0.00788     3.20006
      C   13   -0.23707      0.99962     2.22975    0.00771     3.23707
      S   14    0.09788      4.99957     2.88152    0.02103     7.90212
      C   15   -0.11567      0.99947     2.10754    0.00866     3.11567
      C   16    0.01225      0.99950     1.97917    0.00908     2.98775
      H   17    0.09249      0.00000     0.40580    0.00171     0.40751
      H   18    0.10015      0.00000     0.39863    0.00121     0.39985
      H   19    0.10120      0.00000     0.39707    0.00173     0.39880
      H   20    0.10555      0.00000     0.39216    0.00229     0.39445
      H   21    0.22749      0.00000     0.27003    0.00248     0.27251
      H   22    0.10754      0.00000     0.39032    0.00214     0.39246
      H   23    0.10061      0.00000     0.39823    0.00116     0.39939
      H   24    0.10015      0.00000     0.39741    0.00245     0.39985
      H   25    0.09420      0.00000     0.40423    0.00157     0.40580
      H   26    0.09807      0.00000     0.40064    0.00128     0.40193
      H   27    0.09074      0.00000     0.40786    0.00140     0.40926
 =======================================================================
   * Total *    0.00006     19.99327    40.80294    0.20373    60.99994

 Normal termination of Gaussian 16 at Fri Dec 11 01:32:34 2020.
