 Gaussian 16, Revision A.03,

 -----------------------------------------------------------
 # opt freq B3LYP/6-31G(d) empiricaldispersion=gd3bj scf=xqc
 -----------------------------------------------------------

 -------------------------------
 CID_149339714_JID_1318_neutraal
 -------------------------------
 Symbolic Z-matrix:
 Charge =  0 Multiplicity = 1

 SCF Done:  E(RB3LYP) =  -520.302151435     A.U. after   13 cycles
 SCF Done:  E(RB3LYP) =  -520.304461756     A.U. after   11 cycles
 SCF Done:  E(RB3LYP) =  -520.305439021     A.U. after   11 cycles
 SCF Done:  E(RB3LYP) =  -520.306504615     A.U. after   11 cycles
 SCF Done:  E(RB3LYP) =  -520.306714103     A.U. after   11 cycles
 SCF Done:  E(RB3LYP) =  -520.307005049     A.U. after   11 cycles
 SCF Done:  E(RB3LYP) =  -520.307175338     A.U. after   10 cycles
 SCF Done:  E(RB3LYP) =  -520.307194441     A.U. after    9 cycles
 SCF Done:  E(RB3LYP) =  -520.307195661     A.U. after    8 cycles
 SCF Done:  E(RB3LYP) =  -520.307197077     A.U. after    7 cycles
 SCF Done:  E(RB3LYP) =  -520.307196528     A.U. after    7 cycles
 Optimization completed.
    -- Stationary point found.
 Normal termination of Gaussian 16 at Tue Dec  8 19:42:46 2020.

 --------------------------------------------------------------------
 #N Geom=AllCheck Guess=TCheck SCRF=Check GenChk RB3LYP/6-31G(d) Freq
 --------------------------------------------------------------------

 Structure from the checkpoint file:  "JID_1318.chk"
 -------------------------------
 CID_149339714_JID_1318_neutraal
 -------------------------------
 Charge =  0 Multiplicity = 1

 SCF Done:  E(RB3LYP) =  -520.307196528     A.U. after    1 cycles

  Exact polarizability: 105.597   0.464  91.313   2.544   0.211  91.169
 Approx polarizability: 129.767  -0.919 132.084   2.270  -1.915 133.453

                      1                      2                      3
                      A                      A                      A
 Frequencies --     75.7795                86.6130               123.0800
 Red. masses --      3.0160                 3.0802                 2.7842
 Frc consts  --      0.0102                 0.0136                 0.0249
 IR Inten    --      0.6795                 1.0710                 1.5568

                      4                      5                      6
                      A                      A                      A
 Frequencies --    137.9846               196.6394               248.2529
 Red. masses --      2.9551                 3.7186                 2.8852
 Frc consts  --      0.0332                 0.0847                 0.1048
 IR Inten    --      0.5805                 1.1799                 1.6286

                      7                      8                      9
                      A                      A                      A
 Frequencies --    253.9028               270.4855               317.2232
 Red. masses --      1.9358                 1.3469                 1.8367
 Frc consts  --      0.0735                 0.0581                 0.1089
 IR Inten    --      0.4705                12.5319                21.5737

                     10                     11                     12
                      A                      A                      A
 Frequencies --    331.3982               359.8154               403.2725
 Red. masses --      2.0880                 1.4940                 2.4076
 Frc consts  --      0.1351                 0.1140                 0.2307
 IR Inten    --      0.4936               103.5223                 9.7805

                     13                     14                     15
                      A                      A                      A
 Frequencies --    428.6442               450.0574               487.4724
 Red. masses --      2.9808                 3.2065                 3.4791
 Frc consts  --      0.3227                 0.3827                 0.4871
 IR Inten    --      5.3994                18.2178                13.5913

                     16                     17                     18
                      A                      A                      A
 Frequencies --    538.1904               582.7177               748.6642
 Red. masses --      1.6461                 4.2777                 2.7855
 Frc consts  --      0.2809                 0.8558                 0.9199
 IR Inten    --     12.8991                23.5151                 7.0778

                     19                     20                     21
                      A                      A                      A
 Frequencies --    762.8091               771.7501               824.3795
 Red. masses --      1.5522                 2.2551                 1.2247
 Frc consts  --      0.5322                 0.7913                 0.4904
 IR Inten    --     84.7441                 1.7052                 0.7907

                     22                     23                     24
                      A                      A                      A
 Frequencies --    839.0447               865.0532               869.0807
 Red. masses --      2.2042                 2.5080                 1.5355
 Frc consts  --      0.9143                 1.1058                 0.6833
 IR Inten    --      4.5412                 3.2713                 6.5620

                     25                     26                     27
                      A                      A                      A
 Frequencies --    934.9303               945.4485               971.6031
 Red. masses --      2.0855                 1.9544                 2.1383
 Frc consts  --      1.0740                 1.0293                 1.1893
 IR Inten    --      3.0713                 4.4322                 3.3590

                     28                     29                     30
                      A                      A                      A
 Frequencies --   1017.3249              1062.8658              1076.9339
 Red. masses --      2.3271                 3.1857                 2.1421
 Frc consts  --      1.4190                 2.1203                 1.4638
 IR Inten    --     21.0391                78.2461                51.6684

                     31                     32                     33
                      A                      A                      A
 Frequencies --   1082.2016              1096.7008              1124.6528
 Red. masses --      2.5895                 1.9030                 1.7940
 Frc consts  --      1.7868                 1.3486                 1.3369
 IR Inten    --     54.0890                49.0881                 8.0691

                     34                     35                     36
                      A                      A                      A
 Frequencies --   1149.1733              1156.7426              1172.3983
 Red. masses --      2.8497                 2.4353                 2.2667
 Frc consts  --      2.2172                 1.9199                 1.8357
 IR Inten    --     28.3891                 8.5794               119.2719

                     37                     38                     39
                      A                      A                      A
 Frequencies --   1191.2615              1213.8911              1239.6644
 Red. masses --      1.3481                 1.8581                 1.5934
 Frc consts  --      1.1272                 1.6132                 1.4427
 IR Inten    --     10.6216                53.7371                14.6612

                     40                     41                     42
                      A                      A                      A
 Frequencies --   1290.7286              1302.9200              1311.4987
 Red. masses --      1.4330                 1.2539                 1.2377
 Frc consts  --      1.4066                 1.2541                 1.2543
 IR Inten    --     22.2200                11.8604                 8.1138

                     43                     44                     45
                      A                      A                      A
 Frequencies --   1331.1487              1362.1432              1372.2318
 Red. masses --      1.1143                 1.2672                 1.2902
 Frc consts  --      1.1633                 1.3853                 1.4314
 IR Inten    --      1.8911                 5.8596                17.3574

                     46                     47                     48
                      A                      A                      A
 Frequencies --   1386.0673              1390.8418              1403.1365
 Red. masses --      1.4333                 1.2638                 1.4673
 Frc consts  --      1.6224                 1.4404                 1.7020
 IR Inten    --     23.4473                 3.7146                 4.3527

                     49                     50                     51
                      A                      A                      A
 Frequencies --   1415.3076              1427.7593              1439.8791
 Red. masses --      1.2429                 1.3220                 1.2798
 Frc consts  --      1.4669                 1.5877                 1.5633
 IR Inten    --      2.4694                18.2196                12.9797

                     52                     53                     54
                      A                      A                      A
 Frequencies --   1442.6121              1461.6803              1503.2921
 Red. masses --      1.4275                 1.1555                 1.1653
 Frc consts  --      1.7504                 1.4546                 1.5515
 IR Inten    --     12.1032                28.0463                 4.9112

                     55                     56                     57
                      A                      A                      A
 Frequencies --   1513.3921              1514.8503              1520.7988
 Red. masses --      1.1606                 1.1427                 1.0658
 Frc consts  --      1.5662                 1.5450                 1.4523
 IR Inten    --      5.5831                 2.0456                 4.9774

                     58                     59                     60
                      A                      A                      A
 Frequencies --   1524.9864              1533.5635              1535.2702
 Red. masses --      1.1122                 1.0681                 1.0760
 Frc consts  --      1.5239                 1.4800                 1.4943
 IR Inten    --      3.2671                 2.7614                 1.0684

                     61                     62                     63
                      A                      A                      A
 Frequencies --   1553.4681              2897.0159              2920.6819
 Red. masses --      1.0855                 1.0810                 1.0732
 Frc consts  --      1.5434                 5.3453                 5.3940
 IR Inten    --      5.7759                49.2754               107.3184

                     64                     65                     66
                      A                      A                      A
 Frequencies --   3029.6690              3046.3025              3046.9384
 Red. masses --      1.0659                 1.0612                 1.0386
 Frc consts  --      5.7646                 5.8024                 5.6813
 IR Inten    --     29.9733                19.6598                12.3127

                     67                     68                     69
                      A                      A                      A
 Frequencies --   3054.6384              3069.7422              3079.5345
 Red. masses --      1.0604                 1.0613                 1.0951
 Frc consts  --      5.8295                 5.8926                 6.1188
 IR Inten    --     38.0379                18.5590                55.8653

                     70                     71                     72
                      A                      A                      A
 Frequencies --   3084.3248              3088.2557              3091.6478
 Red. masses --      1.0879                 1.0877                 1.1054
 Frc consts  --      6.0975                 6.1118                 6.2250
 IR Inten    --     50.5467                45.2996                34.1459

                     73                     74                     75
                      A                      A                      A
 Frequencies --   3099.6396              3105.1418              3115.9186
 Red. masses --      1.0998                 1.1017                 1.1049
 Frc consts  --      6.2256                 6.2584                 6.3205
 IR Inten    --      5.8940               102.7846                25.4026

                     76                     77                     78
                      A                      A                      A
 Frequencies --   3139.5803              3514.0650              3766.5313
 Red. masses --      1.1024                 1.0747                 1.0650
 Frc consts  --      6.4024                 7.8191                 8.9019
 IR Inten    --     29.6274                 0.1733                 9.7368

 - Thermochemistry -
 -------------------
 Temperature   298.150 Kelvin.  Pressure   1.00000 Atm.
 Atom     1 has atomic number  6 and mass  12.00000

 Molecular mass:   159.12593 amu.
 Principal axes and moments of inertia in atomic units:
                           1         2         3
     Eigenvalues --  1046.852592556.424632593.39087
           X            0.99970  -0.00432   0.02402
           Y           -0.00346   0.94916   0.31478
           Z           -0.02416  -0.31477   0.94886
 This molecule is an asymmetric top.
 Rotational symmetry number  1.
 Warning -- assumption of classical behavior for rotation
           may cause significant error
 Rotational temperatures (Kelvin)      0.08274     0.03388     0.03340
 Rotational constants (GHZ):           1.72397     0.70596     0.69590
 Zero-point vibrational energy     670478.8 (Joules/Mol)
                                  160.24829 (Kcal/Mol)
 Warning -- explicit consideration of  17 degrees of freedom as
           vibrations may cause significant error
 Vibrational temperatures:    109.03   124.62   177.08   198.53   282.92
          (Kelvin)            357.18   365.31   389.17   456.41   476.81
                              517.69   580.22   616.72   647.53   701.36
                              774.34   838.40  1077.16  1097.51  1110.38
                             1186.10  1207.20  1244.62  1250.41  1345.16
                             1360.29  1397.92  1463.70  1529.23  1549.47
                             1557.05  1577.91  1618.12  1653.40  1664.29
                             1686.82  1713.96  1746.52  1783.60  1857.07
                             1874.61  1886.95  1915.23  1959.82  1974.34
                             1994.24  2001.11  2018.80  2036.31  2054.23
                             2071.66  2075.60  2103.03  2162.90  2177.43
                             2179.53  2188.09  2194.12  2206.46  2208.91
                             2235.09  4168.16  4202.21  4359.02  4382.95
                             4383.86  4394.94  4416.67  4430.76  4437.66
                             4443.31  4448.19  4459.69  4467.61  4483.11
                             4517.16  5055.96  5419.20

 Zero-point correction=                           0.255372 (Hartree/Particle)
 Thermal correction to Energy=                    0.266772
 Thermal correction to Enthalpy=                  0.267716
 Thermal correction to Gibbs Free Energy=         0.218737
 Sum of electronic and zero-point Energies=           -520.051825
 Sum of electronic and thermal Energies=              -520.040425
 Sum of electronic and thermal Enthalpies=            -520.039481
 Sum of electronic and thermal Free Energies=         -520.088459

                     E (Thermal)             CV                S
                      KCal/Mol        Cal/Mol-Kelvin    Cal/Mol-Kelvin
 Total                  167.402             44.377            103.085
 Electronic               0.000              0.000              0.000
 Translational            0.889              2.981             41.103
 Rotational               0.889              2.981             30.319
 Vibrational            165.624             38.415             31.663
 Vibration     1          0.599              1.965              3.997
 Vibration     2          0.601              1.959              3.735
 Vibration     3          0.610              1.930              3.051
 Vibration     4          0.614              1.915              2.832
 Vibration     5          0.636              1.845              2.164
 Vibration     6          0.662              1.766              1.743
 Vibration     7          0.665              1.756              1.703
 Vibration     8          0.674              1.728              1.593
 Vibration     9          0.704              1.641              1.324
 Vibration    10          0.714              1.613              1.253
 Vibration    11          0.734              1.555              1.123
 Vibration    12          0.769              1.463              0.951
 Vibration    13          0.790              1.408              0.863
 Vibration    14          0.809              1.361              0.796
 Vibration    15          0.843              1.278              0.690
 Vibration    16          0.893              1.166              0.569
 Vibration    17          0.940              1.069              0.480

 Optimization completed.
    -- Stationary point found.
 Normal termination of Gaussian 16 at Tue Dec  8 19:50:01 2020.

 ----------------------------------------------------------------------
 # B3LYP/6-311++G(d,p) empiricaldispersion=gd3bj scf=xqc pop=npa geom=c
 heck
 ----------------------------------------------------------------------

 ---------------------------------------
 CID_149339714_JID_1318_Energie_neutraal
 ---------------------------------------
 Structure from the checkpoint file:  "JID_1318.chk"
 Charge =  0 Multiplicity = 1

 SCF Done:  E(RB3LYP) =  -520.468598498     A.U. after   13 cycles
 Normal termination of Gaussian 16 at Tue Dec  8 19:53:26 2020.

 ----------------------------------------------------------------------
 # B3LYP/6-311++G(d,p) empiricaldispersion=gd3bj scf=xqc pop=npa geom=c
 heck
 ----------------------------------------------------------------------

 -------------------------------------
 CID_149339714_JID_1318_Energie_kation
 -------------------------------------
 Structure from the checkpoint file:  "JID_1318.chk"
 Charge =  1 Multiplicity = 2

 SCF Done:  E(UB3LYP) =  -520.156199866     A.U. after   23 cycles
 Normal termination of Gaussian 16 at Tue Dec  8 20:00:44 2020.
 Gaussian 16:  ES64L-G16RevA.03 25-Dec-2016

 ----------------------------------------------------------------------
 # B3LYP/6-311++G(d,p) empiricaldispersion=gd3bj scf=xqc pop=npa geom=c
 heck
 ----------------------------------------------------------------------

 ------------------------------------
 CID_149339714_JID_1318_Energie_anion
 ------------------------------------
 Structure from the checkpoint file:  "JID_1318.chk"
 Charge = -1 Multiplicity = 2

                         Standard orientation:
 ---------------------------------------------------------------------
 Center     Atomic      Atomic             Coordinates (Angstroms)
 Number     Number       Type             X           Y           Z
 ---------------------------------------------------------------------
      1          6           0        2.647867    0.316475    1.539240
      2          6           0        1.856080   -0.881501    1.014919
      3          8           0        1.831865   -1.001481   -0.408175
      4          6           0        1.103137   -0.087504   -1.193281
      5          6           0       -0.386002    0.103192   -0.800729
      6          6           0       -0.698677    1.206391    0.224060
      7          6           0       -2.217630    1.301928    0.435789
      8          6           0       -2.811350   -0.063261    0.806791
      9          6           0       -2.402786   -1.121146   -0.221210
     10          7           0       -0.945498   -1.157344   -0.318068
     11          8           0        1.752352    1.152215   -1.382985
     12          1           0        3.606200    0.397759    1.017719
     13          1           0        2.842125    0.192510    2.611148
     14          1           0        2.108644    1.264139    1.422706
     15          1           0        2.349674   -1.802284    1.342315
     16          1           0        0.834860   -0.901580    1.408226
     17          1           0        1.128997   -0.551420   -2.184043
     18          1           0       -0.875237    0.428832   -1.741985
     19          1           0       -0.318596    2.169066   -0.138037
     20          1           0       -0.212803    0.987877    1.181218
     21          1           0       -2.447774    2.046568    1.207018
     22          1           0       -2.683365    1.655938   -0.495105
     23          1           0       -2.439678   -0.372219    1.792035
     24          1           0       -3.904594   -0.002928    0.868764
     25          1           0       -2.755458   -2.111691    0.086595
     26          1           0       -2.884653   -0.884362   -1.191239
     27          1           0       -0.634925   -1.927706   -0.904731
     28          1           0        1.687488    1.659591   -0.560322
 ---------------------------------------------------------------------

 SCF Done:  E(UB3LYP) =  -520.452703556     A.U. after   29 cycles

 The electronic state is 2-A.
 Alpha  occ. eigenvalues --  -19.02834 -19.02310 -14.19504 -10.16841 -10.11141
 Alpha  occ. eigenvalues --  -10.09956 -10.08619 -10.06420 -10.06343 -10.06217
 Alpha  occ. eigenvalues --  -10.05849  -0.96399  -0.90444  -0.81338  -0.68445
 Alpha  occ. eigenvalues --   -0.66958  -0.65280  -0.58379  -0.53614  -0.52476
 Alpha  occ. eigenvalues --   -0.49169  -0.45533  -0.42867  -0.41122  -0.39135
 Alpha  occ. eigenvalues --   -0.35892  -0.35246  -0.34284  -0.33170  -0.32248
 Alpha  occ. eigenvalues --   -0.31530  -0.30906  -0.29113  -0.28174  -0.28143
 Alpha  occ. eigenvalues --   -0.24877  -0.24210  -0.23138  -0.22971  -0.22302
 Alpha  occ. eigenvalues --   -0.21131  -0.18144  -0.17071  -0.12705   0.04646
 Alpha virt. eigenvalues --    0.06638   0.07391   0.07839   0.09132   0.09258
 Alpha virt. eigenvalues --    0.10022   0.10257   0.10802   0.11959   0.12073
 Alpha virt. eigenvalues --    0.12729   0.13400   0.13855   0.14313   0.14886

  Beta  occ. eigenvalues --  -19.02820 -19.02308 -14.19488 -10.16831 -10.11129
  Beta  occ. eigenvalues --  -10.09950 -10.08592 -10.06398 -10.06307 -10.06193
  Beta  occ. eigenvalues --  -10.05829  -0.96379  -0.90423  -0.81312  -0.68401
  Beta  occ. eigenvalues --   -0.66924  -0.65239  -0.58333  -0.53554  -0.52414
  Beta  occ. eigenvalues --   -0.49121  -0.45470  -0.42820  -0.41081  -0.39098
  Beta  occ. eigenvalues --   -0.35864  -0.35209  -0.34252  -0.33125  -0.32198
  Beta  occ. eigenvalues --   -0.31496  -0.30845  -0.29083  -0.28146  -0.28105
  Beta  occ. eigenvalues --   -0.24841  -0.24164  -0.23114  -0.22930  -0.22266
  Beta  occ. eigenvalues --   -0.21088  -0.18121  -0.17052  -0.12653
  Beta virt. eigenvalues --    0.06967   0.07630   0.08220   0.08390   0.09835
  Beta virt. eigenvalues --    0.09877   0.10457   0.10646   0.11195   0.12346
  Beta virt. eigenvalues --    0.12560   0.13331   0.13605   0.14352   0.14734

 Mulliken charges and spin densities:
               1          2
     1  C    0.996019  -1.436719
     2  C   -0.580604   0.373386
     3  O   -0.044090   0.024987
     4  C    0.404412  -1.348567
     5  C   -0.211486   0.249426
     6  C   -0.275521   0.170988
     7  C    0.420877  -0.804533
     8  C    0.362449  -0.727502
     9  C    0.776605  -1.017030
    10  N   -0.298363   0.240465
    11  O   -0.155208   0.023300
    12  H    0.070996   0.098801
    13  H   -0.345851   0.486669
    14  H   -0.743971   0.860834
    15  H   -0.268037   0.426754
    16  H    0.340068  -0.132640
    17  H   -0.063903   0.259131
    18  H    0.031023   0.136863
    19  H   -0.219439   0.354315
    20  H    0.292079  -0.156668
    21  H   -0.738854   0.928051
    22  H    0.052818   0.069011
    23  H    0.078921   0.046900
    24  H   -0.402778   0.573813
    25  H   -0.523580   0.686291
    26  H   -0.214220   0.333453
    27  H    0.027883   0.243937
    28  H    0.231754   0.036285
 Sum of Mulliken charges =  -1.00000   1.00000

 Dipole moment (field-independent basis, Debye):
    X=              2.0772    Y=             -0.9914    Z=             -2.2904  Tot=              3.2471
 Quadrupole moment (field-independent basis, Debye-Ang):
   XX=           -133.9512   YY=           -112.4384   ZZ=           -107.6844
   XY=             -2.4506   XZ=             -0.1414   YZ=             -4.9931

 Summary of Natural Population Analysis:

                                       Natural Population
                Natural  -----------------------------------------------
    Atom  No    Charge         Core      Valence    Rydberg      Total
 -----------------------------------------------------------------------
      C    1   -0.30136      0.99966     2.29660    0.00509     3.30136
      C    2   -0.01971      0.99958     2.00703    0.01311     3.01971
      O    3   -0.30355      0.99988     3.29432    0.00936     4.30355
      C    4    0.22069      0.99956     1.75981    0.01994     2.77931
      C    5   -0.02832      0.99957     2.01705    0.01171     3.02832
      C    6   -0.20244      0.99960     2.19230    0.01053     3.20244
      C    7   -0.18719      0.99963     2.17844    0.00913     3.18719
      C    8   -0.19279      0.99962     2.18485    0.00831     3.19279
      C    9   -0.08413      0.99962     2.07282    0.01169     3.08413
      N   10   -0.34522      0.99972     2.83274    0.01276     3.84522
      O   11   -0.36896      0.99989     3.36328    0.00579     4.36896
      H   12    0.10166      0.00000     0.39721    0.00113     0.39834
      H   13    0.10289      0.00000     0.39579    0.00132     0.39711
      H   14    0.09111      0.00000     0.40716    0.00173     0.40889
      H   15    0.08695      0.00000     0.41181    0.00124     0.41305
      H   16    0.09266      0.00000     0.40510    0.00223     0.40734
      H   17    0.08071      0.00000     0.41785    0.00144     0.41929
      H   18    0.08479      0.00000     0.41323    0.00197     0.41521
      H   19    0.10061      0.00000     0.39784    0.00155     0.39939
      H   20    0.09857      0.00000     0.39938    0.00205     0.40143
      H   21    0.10217      0.00000     0.39609    0.00173     0.39783
      H   22    0.09248      0.00000     0.40588    0.00164     0.40752
      H   23    0.09602      0.00000     0.40235    0.00163     0.40398
      H   24    0.10021      0.00000     0.39821    0.00158     0.39979
      H   25    0.09713      0.00000     0.40133    0.00154     0.40287
      H   26    0.07592      0.00000     0.42222    0.00187     0.42408
      H   27    0.17902      0.00000     0.31827    0.00271     0.32098
      H   28    0.23008      0.00000     0.26646    0.00347     0.26992
 =======================================================================
   * Total *   -0.00000     10.99633    32.85541    0.14826    44.00000

 Normal termination of Gaussian 16 at Tue Dec  8 20:09:54 2020.
