 Gaussian 16, Revision A.03,

 -----------------------------------------------------------
 # opt freq B3LYP/6-31G(d) empiricaldispersion=gd3bj scf=xqc
 -----------------------------------------------------------

 ------------------------------
 CID_42691824_JID_9024_neutraal
 ------------------------------
 Symbolic Z-matrix:
 Charge =  0 Multiplicity = 1

 SCF Done:  E(RB3LYP) =  -823.761581420     A.U. after   14 cycles
 SCF Done:  E(RB3LYP) =  -823.765699817     A.U. after   13 cycles
 SCF Done:  E(RB3LYP) =  -823.767184592     A.U. after   14 cycles
 SCF Done:  E(RB3LYP) =  -823.769080539     A.U. after   15 cycles
 SCF Done:  E(RB3LYP) =  -823.770071257     A.U. after   13 cycles
 SCF Done:  E(RB3LYP) =  -823.770927105     A.U. after   13 cycles
 SCF Done:  E(RB3LYP) =  -823.771332739     A.U. after   13 cycles
 SCF Done:  E(RB3LYP) =  -823.771595045     A.U. after   11 cycles
 SCF Done:  E(RB3LYP) =  -823.771670298     A.U. after   11 cycles
 SCF Done:  E(RB3LYP) =  -823.771690747     A.U. after   10 cycles
 SCF Done:  E(RB3LYP) =  -823.771724705     A.U. after   10 cycles
 SCF Done:  E(RB3LYP) =  -823.771726344     A.U. after   10 cycles
 SCF Done:  E(RB3LYP) =  -823.771726664     A.U. after    8 cycles
 SCF Done:  E(RB3LYP) =  -823.771726720     A.U. after    7 cycles
 SCF Done:  E(RB3LYP) =  -823.771726724     A.U. after    6 cycles
 SCF Done:  E(RB3LYP) =  -823.771726726     A.U. after    5 cycles
 Optimization completed.
    -- Stationary point found.
 Normal termination of Gaussian 16 at Mon Dec 14 13:35:22 2020.

 --------------------------------------------------------------------
 #N Geom=AllCheck Guess=TCheck SCRF=Check GenChk RB3LYP/6-31G(d) Freq
 --------------------------------------------------------------------

 Structure from the checkpoint file:  "JID_9024.chk"
 ------------------------------
 CID_42691824_JID_9024_neutraal
 ------------------------------
 Charge =  0 Multiplicity = 1

 SCF Done:  E(RB3LYP) =  -823.771726726     A.U. after    1 cycles

  Exact polarizability: 252.288 -18.427 186.720   1.023   9.123 108.147
 Approx polarizability: 333.358 -21.366 303.438   2.495  21.981 162.964

                      1                      2                      3
                      A                      A                      A
 Frequencies --     14.2846                17.2597                20.7004
 Red. masses --      4.2130                 1.1809                 2.5479
 Frc consts  --      0.0005                 0.0002                 0.0006
 IR Inten    --      0.1697                 0.1765                 0.0243

                      4                      5                      6
                      A                      A                      A
 Frequencies --     36.0887                56.4743                64.9033
 Red. masses --      3.7296                 2.8559                 4.3994
 Frc consts  --      0.0029                 0.0054                 0.0109
 IR Inten    --      0.3968                 0.1829                 0.0497

                      7                      8                      9
                      A                      A                      A
 Frequencies --     87.3610               104.5018               134.8839
 Red. masses --      6.6468                 3.7263                 4.3958
 Frc consts  --      0.0299                 0.0240                 0.0471
 IR Inten    --      0.0102                 0.4273                 0.3522

                     10                     11                     12
                      A                      A                      A
 Frequencies --    187.1590               204.2384               215.0654
 Red. masses --      2.3599                 2.7331                 3.0044
 Frc consts  --      0.0487                 0.0672                 0.0819
 IR Inten    --      0.3610                 2.0596                 1.0394

                     13                     14                     15
                      A                      A                      A
 Frequencies --    231.3874               239.5901               260.8275
 Red. masses --      1.1138                 3.9468                 1.2678
 Frc consts  --      0.0351                 0.1335                 0.0508
 IR Inten    --      0.2891                 0.5741                 0.2441

                     16                     17                     18
                      A                      A                      A
 Frequencies --    295.8460               307.8344               343.6798
 Red. masses --      2.8759                 2.5138                 3.6351
 Frc consts  --      0.1483                 0.1404                 0.2530
 IR Inten    --      1.6597                 1.0298                 1.6412

                     19                     20                     21
                      A                      A                      A
 Frequencies --    357.6280               375.1277               392.2347
 Red. masses --      3.3382                 2.6659                 2.4663
 Frc consts  --      0.2515                 0.2210                 0.2236
 IR Inten    --      0.5984                 1.9649                 0.6937

                     22                     23                     24
                      A                      A                      A
 Frequencies --    414.1316               435.8631               447.7590
 Red. masses --      3.1100                 2.3465                 3.1655
 Frc consts  --      0.3143                 0.2626                 0.3739
 IR Inten    --      1.0794                 0.9882                 2.1642

                     25                     26                     27
                      A                      A                      A
 Frequencies --    490.8285               538.7728               540.1795
 Red. masses --      4.8206                 4.8691                 4.6819
 Frc consts  --      0.6842                 0.8327                 0.8049
 IR Inten    --      0.7180                 0.9963                 1.4457

                     28                     29                     30
                      A                      A                      A
 Frequencies --    558.7854               676.0794               694.6968
 Red. masses --      2.6663                 6.1456                 5.8232
 Frc consts  --      0.4905                 1.6551                 1.6558
 IR Inten    --      6.4173                 9.6112                 2.4879

                     31                     32                     33
                      A                      A                      A
 Frequencies --    705.9402               741.5687               752.1777
 Red. masses --      2.7501                 1.5653                 3.5804
 Frc consts  --      0.8075                 0.5072                 1.1935
 IR Inten    --      4.1171                57.6111                23.1503

                     34                     35                     36
                      A                      A                      A
 Frequencies --    788.7326               808.7951               819.9880
 Red. masses --      3.2868                 1.9267                 1.7443
 Frc consts  --      1.2047                 0.7426                 0.6910
 IR Inten    --     13.8245                65.7429                 8.9082

                     37                     38                     39
                      A                      A                      A
 Frequencies --    853.1894               877.2576               910.4677
 Red. masses --      1.9249                 5.1344                 1.3226
 Frc consts  --      0.8256                 2.3281                 0.6459
 IR Inten    --      2.4431                14.4586                 2.1756

                     40                     41                     42
                      A                      A                      A
 Frequencies --    911.1781               920.6633               942.0339
 Red. masses --      7.0204                 2.5107                 1.1958
 Frc consts  --      3.4341                 1.2539                 0.6252
 IR Inten    --     11.1358                12.8889                 0.8717

                     43                     44                     45
                      A                      A                      A
 Frequencies --    943.1760               970.4445               989.2648
 Red. masses --      1.3860                 1.4607                 1.6471
 Frc consts  --      0.7264                 0.8105                 0.9497
 IR Inten    --      1.9030                 0.7429                 1.2200

                     46                     47                     48
                      A                      A                      A
 Frequencies --    989.9492              1002.2843              1007.3775
 Red. masses --      1.3103                 2.5063                 2.1489
 Frc consts  --      0.7566                 1.4834                 1.2849
 IR Inten    --      0.0599                 1.4012                 4.6009

                     49                     50                     51
                      A                      A                      A
 Frequencies --   1016.2164              1024.0826              1036.3179
 Red. masses --      1.9993                 5.7377                 2.1392
 Frc consts  --      1.2164                 3.5453                 1.3536
 IR Inten    --      5.8067                 0.8591                 3.4973

                     52                     53                     54
                      A                      A                      A
 Frequencies --   1047.3853              1078.4126              1086.1026
 Red. masses --      3.4482                 1.5205                 2.1094
 Frc consts  --      2.2287                 1.0419                 1.4661
 IR Inten    --      1.4681                 4.4925                 2.7330

                     55                     56                     57
                      A                      A                      A
 Frequencies --   1119.5631              1138.6204              1147.9836
 Red. masses --      2.2130                 2.4794                 1.9765
 Frc consts  --      1.6343                 1.8939                 1.5347
 IR Inten    --     15.1109                27.2749                 0.3598

                     58                     59                     60
                      A                      A                      A
 Frequencies --   1171.3445              1187.6142              1206.1711
 Red. masses --      2.0161                 2.5509                 1.1393
 Frc consts  --      1.6298                 2.1198                 0.9766
 IR Inten    --     17.7899                19.4574                 2.4432

                     61                     62                     63
                      A                      A                      A
 Frequencies --   1209.6510              1236.9756              1242.0041
 Red. masses --      1.7864                 1.2701                 2.3525
 Frc consts  --      1.5401                 1.1450                 2.1380
 IR Inten    --      6.8349                 8.2551                 4.6034

                     64                     65                     66
                      A                      A                      A
 Frequencies --   1279.0262              1312.6897              1322.7953
 Red. masses --      1.3938                 1.2571                 3.1138
 Frc consts  --      1.3434                 1.2763                 3.2101
 IR Inten    --      3.1589                 3.6234                 9.9038

                     67                     68                     69
                      A                      A                      A
 Frequencies --   1353.3798              1358.2783              1370.3565
 Red. masses --      2.3751                 1.3237                 2.5315
 Frc consts  --      2.5631                 1.4389                 2.8008
 IR Inten    --     24.9183                 2.0799                11.6094

                     70                     71                     72
                      A                      A                      A
 Frequencies --   1382.1592              1389.6676              1408.8058
 Red. masses --      1.7814                 1.4212                 1.5104
 Frc consts  --      2.0051                 1.6170                 1.7662
 IR Inten    --     87.9549                22.2875                34.8116

                     73                     74                     75
                      A                      A                      A
 Frequencies --   1416.5672              1424.9517              1430.8753
 Red. masses --      1.4510                 2.2748                 1.2821
 Frc consts  --      1.7155                 2.7214                 1.5466
 IR Inten    --      4.6792                56.1438                 5.7744

                     76                     77                     78
                      A                      A                      A
 Frequencies --   1444.7310              1450.6623              1464.5632
 Red. masses --      1.2579                 1.2345                 2.6093
 Frc consts  --      1.5469                 1.5307                 3.2975
 IR Inten    --      0.0815                 6.5282                17.0758

                     79                     80                     81
                      A                      A                      A
 Frequencies --   1507.9765              1514.7094              1515.6237
 Red. masses --      1.0743                 1.0636                 1.0441
 Frc consts  --      1.4393                 1.4377                 1.4131
 IR Inten    --      4.0801                 0.4454                 6.1324

                     82                     83                     84
                      A                      A                      A
 Frequencies --   1520.5053              1524.9093              1525.1733
 Red. masses --      1.1165                 1.0883                 1.2017
 Frc consts  --      1.5208                 1.4910                 1.6470
 IR Inten    --     10.6918                13.3232                16.5398

                     85                     86                     87
                      A                      A                      A
 Frequencies --   1531.2563              1534.8502              1538.4561
 Red. masses --      1.1454                 1.0796                 1.1544
 Frc consts  --      1.5823                 1.4985                 1.6098
 IR Inten    --     12.7737                 9.6155                15.4026

                     88                     89                     90
                      A                      A                      A
 Frequencies --   1541.2174              1542.0673              1579.6802
 Red. masses --      1.8054                 1.1286                 6.7841
 Frc consts  --      2.5267                 1.5813                 9.9743
 IR Inten    --     48.9739                 2.4209                10.6412

                     91                     92                     93
                      A                      A                      A
 Frequencies --   1622.6663              1647.4900              1673.3561
 Red. masses --      8.2813                 5.6312                 5.8186
 Frc consts  --     12.8472                 9.0052                 9.5994
 IR Inten    --    178.6451                 0.0329                 8.0978

                     94                     95                     96
                      A                      A                      A
 Frequencies --   2954.9118              3014.8974              3025.4253
 Red. masses --      1.0721                 1.0812                 1.0618
 Frc consts  --      5.5151                 5.7902                 5.7260
 IR Inten    --     39.8627                 8.7376                23.0678

                     97                     98                     99
                      A                      A                      A
 Frequencies --   3036.4543              3041.2829              3047.1833
 Red. masses --      1.0360                 1.0419                 1.0589
 Frc consts  --      5.6278                 5.6778                 5.7928
 IR Inten    --     36.3631                28.8330                54.2005

                    100                    101                    102
                      A                      A                      A
 Frequencies --   3048.6494              3058.9287              3090.7277
 Red. masses --      1.0376                 1.1017                 1.0938
 Frc consts  --      5.6817                 6.0737                 6.1559
 IR Inten    --     26.5242                36.9714                52.4174

                    103                    104                    105
                      A                      A                      A
 Frequencies --   3091.0314              3100.0603              3102.0359
 Red. masses --      1.0957                 1.1013                 1.1010
 Frc consts  --      6.1683                 6.2359                 6.2421
 IR Inten    --     14.3000                13.1687                17.5035

                    106                    107                    108
                      A                      A                      A
 Frequencies --   3106.1909              3109.6702              3113.8010
 Red. masses --      1.1006                 1.1022                 1.1015
 Frc consts  --      6.2565                 6.2797                 6.2926
 IR Inten    --     69.2386                39.8417                45.2248

                    109                    110                    111
                      A                      A                      A
 Frequencies --   3133.3561              3182.2832              3204.2802
 Red. masses --      1.1011                 1.0880                 1.0923
 Frc consts  --      6.3695                 6.4919                 6.6075
 IR Inten    --     13.5166                 8.8816                20.1500

                    112                    113                    114
                      A                      A                      A
 Frequencies --   3212.5042              3230.5553              3508.0444
 Red. masses --      1.0908                 1.0937                 1.0735
 Frc consts  --      6.6325                 6.7249                 7.7839
 IR Inten    --      1.6198                 3.1853                 1.8984

 - Thermochemistry -
 -------------------
 Temperature   298.150 Kelvin.  Pressure   1.00000 Atm.
 Atom     1 has atomic number  6 and mass  12.00000

 Molecular mass:   259.16846 amu.
 Principal axes and moments of inertia in atomic units:
                           1         2         3
     Eigenvalues --  2533.24161********************
           X            0.99996   0.00874  -0.00161
           Y           -0.00874   0.99996  -0.00283
           Z            0.00158   0.00285   0.99999
 This molecule is an asymmetric top.
 Rotational symmetry number  1.
 Warning -- assumption of classical behavior for rotation
           may cause significant error
 Rotational temperatures (Kelvin)      0.03419     0.00730     0.00633
 Rotational constants (GHZ):           0.71242     0.15201     0.13188
 Zero-point vibrational energy     904190.4 (Joules/Mol)
                                  216.10669 (Kcal/Mol)
 Warning -- explicit consideration of  28 degrees of freedom as
           vibrations may cause significant error
 Vibrational temperatures:     20.55    24.83    29.78    51.92    81.25
          (Kelvin)             93.38   125.69   150.35   194.07   269.28
                              293.85   309.43   332.91   344.72   375.27
                              425.66   442.90   494.48   514.55   539.73
                              564.34   595.84   627.11   644.23   706.19
                              775.17   777.20   803.97   972.73   999.51
                             1015.69  1066.95  1082.22  1134.81  1163.68
                             1179.78  1227.55  1262.18  1309.96  1310.98
                             1324.63  1355.38  1357.02  1396.25  1423.33
                             1424.32  1442.06  1449.39  1462.11  1473.43
                             1491.03  1506.95  1551.60  1562.66  1610.80
                             1638.22  1651.69  1685.30  1708.71  1735.41
                             1740.42  1779.73  1786.97  1840.23  1888.67
                             1903.21  1947.21  1954.26  1971.64  1988.62
                             1999.42  2026.96  2038.12  2050.19  2058.71
                             2078.65  2087.18  2107.18  2169.64  2179.33
                             2180.64  2187.67  2194.00  2194.38  2203.14
                             2208.31  2213.50  2217.47  2218.69  2272.81
                             2334.65  2370.37  2407.59  4251.46  4337.76
                             4352.91  4368.78  4375.73  4384.22  4386.33
                             4401.12  4446.87  4447.30  4460.30  4463.14
                             4469.12  4474.12  4480.07  4508.20  4578.60
                             4610.24  4622.08  4648.05  5047.29

 Zero-point correction=                           0.344388 (Hartree/Particle)
 Thermal correction to Energy=                    0.363448
 Thermal correction to Enthalpy=                  0.364392
 Thermal correction to Gibbs Free Energy=         0.292836
 Sum of electronic and zero-point Energies=           -823.427339
 Sum of electronic and thermal Energies=              -823.408279
 Sum of electronic and thermal Enthalpies=            -823.407335
 Sum of electronic and thermal Free Energies=         -823.478891

                     E (Thermal)             CV                S
                      KCal/Mol        Cal/Mol-Kelvin    Cal/Mol-Kelvin
 Total                  228.067             70.759            150.603
 Electronic               0.000              0.000              0.000
 Translational            0.889              2.981             42.557
 Rotational               0.889              2.981             34.375
 Vibrational            226.290             64.798             73.671
 Vibration     1          0.593              1.986              7.303
 Vibration     2          0.593              1.986              6.927
 Vibration     3          0.593              1.986              6.566
 Vibration     4          0.594              1.982              5.463
 Vibration     5          0.596              1.975              4.577
 Vibration     6          0.597              1.971              4.302
 Vibration     7          0.601              1.958              3.718
 Vibration     8          0.605              1.946              3.369
 Vibration     9          0.613              1.919              2.875
 Vibration    10          0.632              1.857              2.256
 Vibration    11          0.640              1.834              2.095
 Vibration    12          0.645              1.818              2.000
 Vibration    13          0.653              1.793              1.868
 Vibration    14          0.657              1.780              1.806
 Vibration    15          0.669              1.744              1.656
 Vibration    16          0.690              1.681              1.440
 Vibration    17          0.698              1.659              1.374
 Vibration    18          0.722              1.588              1.195
 Vibration    19          0.733              1.560              1.132
 Vibration    20          0.746              1.523              1.059
 Vibration    21          0.760              1.487              0.992
 Vibration    22          0.778              1.440              0.912
 Vibration    23          0.796              1.392              0.840
 Vibration    24          0.807              1.366              0.803
 Vibration    25          0.847              1.270              0.681
 Vibration    26          0.894              1.164              0.568
 Vibration    27          0.895              1.161              0.565
 Vibration    28          0.914              1.121              0.526

 Optimization completed on the basis of negligible forces.
    -- Stationary point found.
 Normal termination of Gaussian 16 at Mon Dec 14 13:51:51 2020.

 ----------------------------------------------------------------------
 # B3LYP/6-311++G(d,p) empiricaldispersion=gd3bj scf=xqc pop=npa geom=c
 heck
 ----------------------------------------------------------------------

 --------------------------------------
 CID_42691824_JID_9024_Energie_neutraal
 --------------------------------------
 Structure from the checkpoint file:  "JID_9024.chk"
 Charge =  0 Multiplicity = 1

 SCF Done:  E(RB3LYP) =  -823.991592031     A.U. after   14 cycles
 Normal termination of Gaussian 16 at Mon Dec 14 13:59:38 2020.

 ----------------------------------------------------------------------
 # B3LYP/6-311++G(d,p) empiricaldispersion=gd3bj scf=xqc pop=npa geom=c
 heck
 ----------------------------------------------------------------------

 ------------------------------------
 CID_42691824_JID_9024_Energie_kation
 ------------------------------------
 Structure from the checkpoint file:  "JID_9024.chk"
 Charge =  1 Multiplicity = 2

 SCF Done:  E(UB3LYP) =  -823.694370132     A.U. after   27 cycles
 Normal termination of Gaussian 16 at Mon Dec 14 14:20:32 2020.
 Gaussian 16:  ES64L-G16RevA.03 25-Dec-2016

 ----------------------------------------------------------------------
 # B3LYP/6-311++G(d,p) empiricaldispersion=gd3bj scf=xqc pop=npa geom=c
 heck
 ----------------------------------------------------------------------

 -----------------------------------
 CID_42691824_JID_9024_Energie_anion
 -----------------------------------
 Structure from the checkpoint file:  "JID_9024.chk"
 Charge = -1 Multiplicity = 2

                         Standard orientation:
 ---------------------------------------------------------------------
 Center     Atomic      Atomic             Coordinates (Angstroms)
 Number     Number       Type             X           Y           Z
 ---------------------------------------------------------------------
      1          6           0       -6.266896   -0.107186   -0.115458
      2          6           0       -4.863708    0.438958   -0.012342
      3          6           0       -3.755764   -0.402987   -0.109319
      4          6           0       -2.453596    0.109138   -0.008300
      5          6           0       -2.250404    1.480705    0.191874
      6          6           0       -3.352226    2.325194    0.288625
      7          6           0       -4.644103    1.809792    0.187424
      8          6           0       -1.295342   -0.769902   -0.108989
      9          7           0       -0.028660   -0.450030   -0.033486
     10          6           0        0.599964   -1.665116   -0.191111
     11          7           0       -0.205211   -2.684203   -0.355411
     12          8           0       -1.485878   -2.088606   -0.306713
     13          6           0        2.090356   -1.780684   -0.189193
     14          7           0        2.623778   -1.130552    1.003534
     15          6           0        4.076753   -0.965955    1.004162
     16          6           0        4.680969   -0.133991   -0.145056
     17          6           0        4.043860    1.251860   -0.346016
     18          6           0        4.173317    2.135460    0.901780
     19          6           0        4.654598    1.948933   -1.567465
     20          1           0       -6.262166   -1.183148   -0.312039
     21          1           0       -6.827219    0.061910    0.812033
     22          1           0       -6.824722    0.380684   -0.923494
     23          1           0       -3.897373   -1.467792   -0.264334
     24          1           0       -1.237699    1.860822    0.267522
     25          1           0       -3.204611    3.389969    0.443255
     26          1           0       -5.497780    2.478989    0.264195
     27          1           0        2.370741   -2.839494   -0.190115
     28          1           0        2.454931   -1.346299   -1.138031
     29          1           0        2.168606   -0.225665    1.105542
     30          1           0        4.344105   -0.516798    1.967259
     31          1           0        4.527933   -1.966877    0.997025
     32          1           0        5.756852   -0.013143    0.048703
     33          1           0        4.608133   -0.694224   -1.086873
     34          1           0        2.972067    1.106863   -0.547851
     35          1           0        5.228837    2.281730    1.165572
     36          1           0        3.732889    3.123922    0.728461
     37          1           0        3.671798    1.699637    1.772916
     38          1           0        4.541577    1.339233   -2.471601
     39          1           0        4.176985    2.918132   -1.752416
     40          1           0        5.727112    2.128564   -1.418180
 ---------------------------------------------------------------------

 SCF Done:  E(UB3LYP) =  -824.005013539     A.U. after   32 cycles

 The electronic state is 2-A.
 Alpha  occ. eigenvalues --  -19.04454 -14.20533 -14.19616 -14.15416 -10.10317
 Alpha  occ. eigenvalues --  -10.09831 -10.09399 -10.09291 -10.09215 -10.08364
 Alpha  occ. eigenvalues --  -10.08160 -10.08145 -10.05288 -10.04221 -10.03192
 Alpha  occ. eigenvalues --  -10.02752 -10.02357 -10.02254 -10.01836  -0.99929
 Alpha  occ. eigenvalues --   -0.81441  -0.77614  -0.73240  -0.72567  -0.70690
 Alpha  occ. eigenvalues --   -0.64438  -0.63997  -0.60999  -0.60891  -0.58716
 Alpha  occ. eigenvalues --   -0.55847  -0.52836  -0.50166  -0.47483  -0.46926
 Alpha  occ. eigenvalues --   -0.44746  -0.43308  -0.39825  -0.39160  -0.37725
 Alpha  occ. eigenvalues --   -0.36407  -0.35556  -0.34751  -0.33264  -0.33068
 Alpha  occ. eigenvalues --   -0.32573  -0.32156  -0.31173  -0.30758  -0.30389
 Alpha  occ. eigenvalues --   -0.29539  -0.29095  -0.27710  -0.27581  -0.26761
 Alpha  occ. eigenvalues --   -0.25950  -0.25709  -0.24979  -0.24242  -0.23622
 Alpha  occ. eigenvalues --   -0.22674  -0.21222  -0.20791  -0.18615  -0.17957
 Alpha  occ. eigenvalues --   -0.16193  -0.14882  -0.12765  -0.11487  -0.10113
 Alpha  occ. eigenvalues --    0.04340
 Alpha virt. eigenvalues --    0.05667   0.07415   0.07718   0.08272   0.08688
 Alpha virt. eigenvalues --    0.09773   0.10090   0.10303   0.10838   0.11206
 Alpha virt. eigenvalues --    0.11346   0.11479   0.12147   0.12859   0.13155

  Beta  occ. eigenvalues --  -19.04140 -14.20274 -14.19615 -14.15282 -10.10315
  Beta  occ. eigenvalues --  -10.09510 -10.09399 -10.09291 -10.09258 -10.08362
  Beta  occ. eigenvalues --  -10.08158 -10.08143 -10.05285 -10.04293 -10.03249
  Beta  occ. eigenvalues --  -10.02597 -10.02184 -10.02084 -10.01478  -0.99435
  Beta  occ. eigenvalues --   -0.81403  -0.77297  -0.72913  -0.72409  -0.70351
  Beta  occ. eigenvalues --   -0.64402  -0.63822  -0.60918  -0.60513  -0.58632
  Beta  occ. eigenvalues --   -0.55561  -0.52808  -0.49406  -0.47412  -0.46873
  Beta  occ. eigenvalues --   -0.44589  -0.43038  -0.39742  -0.39139  -0.37635
  Beta  occ. eigenvalues --   -0.36308  -0.35446  -0.34659  -0.33024  -0.32443
  Beta  occ. eigenvalues --   -0.32233  -0.31843  -0.31157  -0.30630  -0.30324
  Beta  occ. eigenvalues --   -0.29485  -0.28994  -0.27634  -0.27536  -0.26646
  Beta  occ. eigenvalues --   -0.25830  -0.25589  -0.24938  -0.24193  -0.23610
  Beta  occ. eigenvalues --   -0.21618  -0.20979  -0.20648  -0.18287  -0.16720
  Beta  occ. eigenvalues --   -0.14686  -0.14555  -0.12724  -0.10589  -0.08477
  Beta virt. eigenvalues --    0.05616   0.07325   0.07633   0.08215   0.08629
  Beta virt. eigenvalues --    0.09693   0.09924   0.10072   0.10273   0.10763
  Beta virt. eigenvalues --    0.11272   0.11369   0.11451   0.12092   0.12811

 Mulliken charges and spin densities:
               1          2
     1  C   -0.480320   0.015355
     2  C    0.603215  -0.063655
     3  C   -1.150557   0.154996
     4  C    0.976489   0.017257
     5  C   -0.664701   0.191738
     6  C   -0.213403  -0.027681
     7  C   -0.449983   0.299353
     8  C   -1.065590   0.151611
     9  N   -0.055823   0.069039
    10  C    0.853908  -0.010981
    11  N   -0.377786   0.124795
    12  O    0.130762   0.071331
    13  C   -0.416937  -0.012494
    14  N   -0.020849  -0.002170
    15  C   -0.500221   0.011842
    16  C   -0.024427  -0.027620
    17  C    0.107371   0.033976
    18  C   -0.531153  -0.062679
    19  C   -0.543721  -0.031205
    20  H    0.134728  -0.000368
    21  H    0.123700   0.006491
    22  H    0.118254   0.007702
    23  H    0.151911  -0.010854
    24  H    0.108237  -0.008656
    25  H    0.117611   0.002614
    26  H    0.089540  -0.025138
    27  H    0.184115  -0.000709
    28  H    0.120976  -0.000986
    29  H    0.238683   0.012173
    30  H    0.150393   0.010673
    31  H    0.134867   0.000829
    32  H    0.109275   0.026204
    33  H    0.136316   0.007824
    34  H    0.191281  -0.008661
    35  H    0.105242   0.025080
    36  H    0.121041   0.009315
    37  H    0.132217   0.012285
    38  H    0.123246   0.008437
    39  H    0.132517   0.002436
    40  H    0.099575   0.020500
 Sum of Mulliken charges =  -1.00000   1.00000

 Dipole moment (field-independent basis, Debye):
    X=              7.7537    Y=              2.3744    Z=             -0.5087  Tot=              8.1251
 Quadrupole moment (field-independent basis, Debye-Ang):
   XX=           -167.2879   YY=           -143.4255   ZZ=           -129.0668
   XY=              4.3839   XZ=             -1.0257   YZ=              0.6683

 Summary of Natural Population Analysis:

                                       Natural Population
                Natural  -----------------------------------------------
    Atom  No    Charge         Core      Valence    Rydberg      Total
 -----------------------------------------------------------------------
      C    1   -0.28721      0.99964     2.28292    0.00464     3.28721
      C    2   -0.04629      0.99953     2.03803    0.00873     3.04629
      C    3   -0.04948      0.99943     2.04171    0.00834     3.04948
      C    4   -0.03530      0.99937     2.02652    0.00941     3.03530
      C    5   -0.04615      0.99945     2.03841    0.00829     3.04615
      C    6   -0.12713      0.99960     2.11757    0.00995     3.12713
      C    7   -0.03719      0.99952     2.02863    0.00904     3.03719
      C    8    0.33248      0.99958     1.64991    0.01803     2.66752
      N    9   -0.28246      0.99966     2.77158    0.01122     3.78246
      C   10    0.15265      0.99966     1.82904    0.01865     2.84735
      N   11   -0.07457      0.99965     2.56286    0.01206     3.57457
      O   12   -0.15291      0.99985     3.14151    0.01154     4.15291
      C   13   -0.10336      0.99958     2.09381    0.00998     3.10336
      N   14   -0.33980      0.99975     2.82638    0.01366     3.83980
      C   15   -0.08540      0.99964     2.07585    0.00992     3.08540
      C   16   -0.19800      0.99962     2.19078    0.00761     3.19800
      C   17   -0.12520      0.99962     2.11776    0.00782     3.12520
      C   18   -0.28614      0.99966     2.28117    0.00531     3.28614
      C   19   -0.28081      0.99966     2.27653    0.00462     3.28081
      H   20    0.09709      0.00000     0.40194    0.00096     0.40291
      H   21    0.09540      0.00000     0.40354    0.00106     0.40460
      H   22    0.09524      0.00000     0.40371    0.00106     0.40476
      H   23    0.09733      0.00000     0.40155    0.00112     0.40267
      H   24    0.10016      0.00000     0.39834    0.00150     0.39984
      H   25    0.08953      0.00000     0.40928    0.00119     0.41047
      H   26    0.08342      0.00000     0.41511    0.00147     0.41658
      H   27    0.09801      0.00000     0.40079    0.00120     0.40199
      H   28    0.08228      0.00000     0.41593    0.00179     0.41772
      H   29    0.18209      0.00000     0.31522    0.00269     0.31791
      H   30    0.09054      0.00000     0.40850    0.00096     0.40946
      H   31    0.08883      0.00000     0.41001    0.00116     0.41117
      H   32    0.09210      0.00000     0.40585    0.00205     0.40790
      H   33    0.09650      0.00000     0.40244    0.00106     0.40350
      H   34    0.10395      0.00000     0.39415    0.00190     0.39605
      H   35    0.09189      0.00000     0.40691    0.00120     0.40811
      H   36    0.09926      0.00000     0.39974    0.00100     0.40074
      H   37    0.10055      0.00000     0.39839    0.00107     0.39945
      H   38    0.09859      0.00000     0.40066    0.00075     0.40141
      H   39    0.09783      0.00000     0.40137    0.00079     0.40217
      H   40    0.09169      0.00000     0.40728    0.00104     0.40831
 =======================================================================
   * Total *    0.00002     18.99247    50.79165    0.21586    69.99998

 Normal termination of Gaussian 16 at Mon Dec 14 14:44:03 2020.
