 Gaussian 16, Revision A.03,

 -----------------------------------------------------------
 # opt freq B3LYP/6-31G(d) empiricaldispersion=gd3bj scf=xqc
 -----------------------------------------------------------

 -------------------------------
 CID_102543542_JID_5779_neutraal
 -------------------------------
 Symbolic Z-matrix:
 Charge =  0 Multiplicity = 1

 SCF Done:  E(RB3LYP) =  -671.313440582     A.U. after   14 cycles
 SCF Done:  E(RB3LYP) =  -671.317633576     A.U. after   11 cycles
 SCF Done:  E(RB3LYP) =  -671.318508686     A.U. after   12 cycles
 SCF Done:  E(RB3LYP) =  -671.318851322     A.U. after   11 cycles
 SCF Done:  E(RB3LYP) =  -671.318980574     A.U. after   11 cycles
 SCF Done:  E(RB3LYP) =  -671.319052962     A.U. after   11 cycles
 SCF Done:  E(RB3LYP) =  -671.319124801     A.U. after   11 cycles
 SCF Done:  E(RB3LYP) =  -671.319182696     A.U. after   11 cycles
 SCF Done:  E(RB3LYP) =  -671.319202198     A.U. after   10 cycles
 SCF Done:  E(RB3LYP) =  -671.319210955     A.U. after    9 cycles
 SCF Done:  E(RB3LYP) =  -671.319222146     A.U. after    7 cycles
 SCF Done:  E(RB3LYP) =  -671.319222298     A.U. after    7 cycles
 SCF Done:  E(RB3LYP) =  -671.319222478     A.U. after    7 cycles
 SCF Done:  E(RB3LYP) =  -671.319222654     A.U. after    7 cycles
 SCF Done:  E(RB3LYP) =  -671.319222862     A.U. after    7 cycles
 SCF Done:  E(RB3LYP) =  -671.319223014     A.U. after    7 cycles
 Optimization completed.
    -- Stationary point found.
 Normal termination of Gaussian 16 at Thu Dec 10 17:02:09 2020.

 --------------------------------------------------------------------
 #N Geom=AllCheck Guess=TCheck SCRF=Check GenChk RB3LYP/6-31G(d) Freq
 --------------------------------------------------------------------

 Structure from the checkpoint file:  "JID_5779.chk"
 -------------------------------
 CID_102543542_JID_5779_neutraal
 -------------------------------
 Charge =  0 Multiplicity = 1

 SCF Done:  E(RB3LYP) =  -671.319223014     A.U. after    1 cycles

  Exact polarizability: 154.816  -8.744 124.785   5.313   3.596 125.853
 Approx polarizability: 207.008 -19.007 170.459  10.773   9.237 206.073

                      1                      2                      3
                      A                      A                      A
 Frequencies --     20.9915                30.8460                42.1529
 Red. masses --      3.3844                 3.4133                 3.0583
 Frc consts  --      0.0009                 0.0019                 0.0032
 IR Inten    --      0.0582                 0.4052                 1.0863

                      4                      5                      6
                      A                      A                      A
 Frequencies --     61.9148                81.8794               103.6186
 Red. masses --      2.4907                 1.3651                 1.9992
 Frc consts  --      0.0056                 0.0054                 0.0126
 IR Inten    --      0.1698                 0.1376                 2.9255

                      7                      8                      9
                      A                      A                      A
 Frequencies --    107.9041               142.3038               151.1616
 Red. masses --      1.7420                 2.9195                 3.1344
 Frc consts  --      0.0120                 0.0348                 0.0422
 IR Inten    --      0.0658                 1.0888                 0.4396

                     10                     11                     12
                      A                      A                      A
 Frequencies --    196.7772               203.9421               235.7134
 Red. masses --      1.7018                 2.3145                 1.6287
 Frc consts  --      0.0388                 0.0567                 0.0533
 IR Inten    --      0.6668                 0.9238                 4.7761

                     13                     14                     15
                      A                      A                      A
 Frequencies --    248.3352               260.1747               292.7606
 Red. masses --      1.4688                 1.3903                 3.1689
 Frc consts  --      0.0534                 0.0554                 0.1600
 IR Inten    --      0.1999                 0.8638                 3.0897

                     16                     17                     18
                      A                      A                      A
 Frequencies --    297.4539               311.6481               327.1101
 Red. masses --      1.8591                 2.3564                 2.8307
 Frc consts  --      0.0969                 0.1348                 0.1785
 IR Inten    --      3.6747                 1.1119                 3.3256

                     19                     20                     21
                      A                      A                      A
 Frequencies --    334.9384               400.8216               419.3154
 Red. masses --      2.9406                 3.3801                 2.9429
 Frc consts  --      0.1944                 0.3200                 0.3049
 IR Inten    --      2.7006                 4.4659                 4.0332

                     22                     23                     24
                      A                      A                      A
 Frequencies --    494.2583               510.1512               579.9369
 Red. masses --      3.2276                 3.3285                 3.2087
 Frc consts  --      0.4645                 0.5104                 0.6358
 IR Inten    --      4.4683                 2.9752                 2.7523

                     25                     26                     27
                      A                      A                      A
 Frequencies --    649.0413               668.7374               694.4720
 Red. masses --      4.8864                 3.5254                 3.7224
 Frc consts  --      1.2128                 0.9289                 1.0577
 IR Inten    --      0.0806                 0.2560                 3.9767

                     28                     29                     30
                      A                      A                      A
 Frequencies --    733.6318               759.4108               792.5138
 Red. masses --      2.8903                 2.3084                 1.7726
 Frc consts  --      0.9165                 0.7843                 0.6560
 IR Inten    --     18.1624                 9.9754               103.6500

                     31                     32                     33
                      A                      A                      A
 Frequencies --    828.1839               846.4538               855.0910
 Red. masses --      1.1408                 1.8428                 2.8305
 Frc consts  --      0.4610                 0.7779                 1.2194
 IR Inten    --      0.9460                17.2956                41.2708

                     34                     35                     36
                      A                      A                      A
 Frequencies --    874.0889               929.5498               953.9005
 Red. masses --      1.3821                 2.2075                 2.1710
 Frc consts  --      0.6222                 1.1238                 1.1639
 IR Inten    --      9.4317                 1.5593                 8.9563

                     37                     38                     39
                      A                      A                      A
 Frequencies --    963.3200              1006.7254              1049.7883
 Red. masses --      1.9530                 2.2927                 1.8349
 Frc consts  --      1.0678                 1.3691                 1.1915
 IR Inten    --     33.2110                10.1519                 4.8602

                     40                     41                     42
                      A                      A                      A
 Frequencies --   1057.8491              1061.2512              1074.6259
 Red. masses --      2.4934                 1.7844                 1.4753
 Frc consts  --      1.6439                 1.1841                 1.0038
 IR Inten    --      1.3061                17.2758                 0.3719

                     43                     44                     45
                      A                      A                      A
 Frequencies --   1101.7342              1121.8764              1149.2172
 Red. masses --      2.6847                 1.8596                 3.4470
 Frc consts  --      1.9200                 1.3790                 2.6822
 IR Inten    --     25.9205                 9.4607                74.4072

                     46                     47                     48
                      A                      A                      A
 Frequencies --   1151.7652              1176.1693              1189.9687
 Red. masses --      1.9382                 2.3272                 1.4447
 Frc consts  --      1.5149                 1.8968                 1.2053
 IR Inten    --     48.7279                 6.5677                 9.4368

                     49                     50                     51
                      A                      A                      A
 Frequencies --   1192.0738              1213.5786              1221.5030
 Red. masses --      2.3545                 1.7620                 2.1924
 Frc consts  --      1.9713                 1.5289                 1.9273
 IR Inten    --     28.1035                10.2220                20.6258

                     52                     53                     54
                      A                      A                      A
 Frequencies --   1235.1062              1274.9896              1290.9712
 Red. masses --      1.6498                 1.6043                 1.2848
 Frc consts  --      1.4828                 1.5365                 1.2616
 IR Inten    --      9.1635                11.3296                 1.3012

                     55                     56                     57
                      A                      A                      A
 Frequencies --   1320.7910              1345.1575              1359.8775
 Red. masses --      1.7968                 1.6046                 1.7943
 Frc consts  --      1.8467                 1.7107                 1.9550
 IR Inten    --      3.5314                 5.1926                25.4740

                     58                     59                     60
                      A                      A                      A
 Frequencies --   1396.6386              1398.8380              1409.4032
 Red. masses --      1.4071                 1.2091                 1.2781
 Frc consts  --      1.6171                 1.3939                 1.4959
 IR Inten    --      4.1910                 5.8430                 7.7276

                     61                     62                     63
                      A                      A                      A
 Frequencies --   1418.0701              1427.5580              1441.9781
 Red. masses --      1.3205                 1.3288                 1.5586
 Frc consts  --      1.5645                 1.5955                 1.9094
 IR Inten    --     10.2734                 6.8287                13.6516

                     64                     65                     66
                      A                      A                      A
 Frequencies --   1443.8137              1445.2870              1452.0339
 Red. masses --      1.9911                 1.4313                 2.4060
 Frc consts  --      2.4455                 1.7616                 2.9888
 IR Inten    --      5.7114                 4.1919                32.3281

                     67                     68                     69
                      A                      A                      A
 Frequencies --   1495.0516              1501.9630              1508.6955
 Red. masses --      1.1371                 1.1467                 1.0826
 Frc consts  --      1.4975                 1.5241                 1.4519
 IR Inten    --      1.3809                13.3112                 4.1655

                     70                     71                     72
                      A                      A                      A
 Frequencies --   1509.7991              1513.0937              1514.6838
 Red. masses --      1.4125                 1.0896                 1.1910
 Frc consts  --      1.8971                 1.4697                 1.6099
 IR Inten    --     12.8355                 6.9943                 7.8954

                     73                     74                     75
                      A                      A                      A
 Frequencies --   1521.1186              1527.4066              1529.8058
 Red. masses --      1.7691                 1.0580                 1.0886
 Frc consts  --      2.4117                 1.4543                 1.5011
 IR Inten    --      9.3251                 1.6368                11.1643

                     76                     77                     78
                      A                      A                      A
 Frequencies --   1531.3688              1535.6058              1541.1017
 Red. masses --      1.0781                 1.1436                 1.0781
 Frc consts  --      1.4896                 1.5888                 1.5085
 IR Inten    --      4.8026                15.8459                 5.2434

                     79                     80                     81
                      A                      A                      A
 Frequencies --   1545.5229              1551.8537              1613.7387
 Red. masses --      1.0704                 1.0923                 5.1867
 Frc consts  --      1.5064                 1.5498                 7.9581
 IR Inten    --     15.0253                 0.8644                21.8935

                     82                     83                     84
                      A                      A                      A
 Frequencies --   2945.4806              3001.8214              3041.4630
 Red. masses --      1.0716                 1.0380                 1.0796
 Frc consts  --      5.4779                 5.5108                 5.8841
 IR Inten    --     95.5432                42.6952                19.6322

                     85                     86                     87
                      A                      A                      A
 Frequencies --   3046.6864              3048.2177              3049.2695
 Red. masses --      1.0457                 1.0487                 1.0699
 Frc consts  --      5.7188                 5.7410                 5.8613
 IR Inten    --     20.7670                36.3797                55.6413

                     88                     89                     90
                      A                      A                      A
 Frequencies --   3050.1958              3063.4862              3064.1463
 Red. masses --      1.0923                 1.0700                 1.0814
 Frc consts  --      5.9878                 5.9166                 5.9819
 IR Inten    --     35.3781                76.7509                21.4036

                     91                     92                     93
                      A                      A                      A
 Frequencies --   3067.6112              3094.0771              3111.5969
 Red. masses --      1.0416                 1.1000                 1.0996
 Frc consts  --      5.7752                 6.2047                 6.2729
 IR Inten    --     20.8134                16.5613                46.5231

                     94                     95                     96
                      A                      A                      A
 Frequencies --   3122.3639              3132.1392              3134.6446
 Red. masses --      1.0959                 1.0969                 1.1030
 Frc consts  --      6.2948                 6.3404                 6.3857
 IR Inten    --      3.8433                34.1198                25.7410

                     97                     98                     99
                      A                      A                      A
 Frequencies --   3135.1243              3142.6286              3146.8250
 Red. masses --      1.1032                 1.1003                 1.0956
 Frc consts  --      6.3889                 6.4025                 6.3923
 IR Inten    --     26.9681                32.9296                30.8772

                    100                    101                    102
                      A                      A                      A
 Frequencies --   3193.2764              3246.3847              3498.3215
 Red. masses --      1.0913                 1.0961                 1.0735
 Frc consts  --      6.5565                 6.8060                 7.7407
 IR Inten    --      9.6443                 7.6556                 1.6276

 - Thermochemistry -
 -------------------
 Temperature   298.150 Kelvin.  Pressure   1.00000 Atm.
 Atom     1 has atomic number  6 and mass  12.00000

 Molecular mass:   211.16846 amu.
 Principal axes and moments of inertia in atomic units:
                           1         2         3
     Eigenvalues --  2098.562474462.084595239.09616
           X            0.99989   0.01315  -0.00623
           Y           -0.01321   0.99988  -0.00868
           Z            0.00611   0.00876   0.99994
 This molecule is an asymmetric top.
 Rotational symmetry number  1.
 Warning -- assumption of classical behavior for rotation
           may cause significant error
 Rotational temperatures (Kelvin)      0.04127     0.01941     0.01653
 Rotational constants (GHZ):           0.85999     0.40446     0.34448
 Zero-point vibrational energy     844023.5 (Joules/Mol)
                                  201.72646 (Kcal/Mol)
 Warning -- explicit consideration of  24 degrees of freedom as
           vibrations may cause significant error
 Vibrational temperatures:     30.20    44.38    60.65    89.08   117.81
          (Kelvin)            149.08   155.25   204.74   217.49   283.12
                              293.43   339.14   357.30   374.33   421.22
                              427.97   448.39   470.64   481.90   576.69
                              603.30   711.13   733.99   834.40   933.83
                              962.16   999.19  1055.53  1092.62  1140.25
                             1191.57  1217.86  1230.29  1257.62  1337.41
                             1372.45  1386.00  1448.45  1510.41  1522.01
                             1526.90  1546.15  1585.15  1614.13  1653.47
                             1657.13  1692.25  1712.10  1715.13  1746.07
                             1757.47  1777.04  1834.43  1857.42  1900.32
                             1935.38  1956.56  2009.45  2012.62  2027.82
                             2040.29  2053.94  2074.68  2077.33  2079.45
                             2089.15  2151.05  2160.99  2170.68  2172.26
                             2177.00  2179.29  2188.55  2197.60  2201.05
                             2203.30  2209.39  2217.30  2223.66  2232.77
                             2321.81  4237.89  4318.95  4375.99  4383.50
                             4385.71  4387.22  4388.55  4407.67  4408.62
                             4413.61  4451.69  4476.89  4492.39  4506.45
                             4510.05  4510.74  4521.54  4527.58  4594.41
                             4670.82  5033.30

 Zero-point correction=                           0.321472 (Hartree/Particle)
 Thermal correction to Energy=                    0.338642
 Thermal correction to Enthalpy=                  0.339586
 Thermal correction to Gibbs Free Energy=         0.274972
 Sum of electronic and zero-point Energies=           -670.997751
 Sum of electronic and thermal Energies=              -670.980581
 Sum of electronic and thermal Enthalpies=            -670.979637
 Sum of electronic and thermal Free Energies=         -671.044251

                     E (Thermal)             CV                S
                      KCal/Mol        Cal/Mol-Kelvin    Cal/Mol-Kelvin
 Total                  212.501             62.089            135.993
 Electronic               0.000              0.000              0.000
 Translational            0.889              2.981             41.946
 Rotational               0.889              2.981             32.262
 Vibrational            210.724             56.127             61.785
 Vibration     1          0.593              1.986              6.538
 Vibration     2          0.594              1.984              5.774
 Vibration     3          0.595              1.980              5.155
 Vibration     4          0.597              1.972              4.395
 Vibration     5          0.600              1.962              3.845
 Vibration     6          0.605              1.946              3.385
 Vibration     7          0.606              1.943              3.306
 Vibration     8          0.616              1.911              2.773
 Vibration     9          0.619              1.901              2.658
 Vibration    10          0.636              1.844              2.163
 Vibration    11          0.640              1.834              2.097
 Vibration    12          0.655              1.786              1.835
 Vibration    13          0.662              1.766              1.742
 Vibration    14          0.668              1.746              1.661
 Vibration    15          0.688              1.687              1.458
 Vibration    16          0.691              1.678              1.431
 Vibration    17          0.700              1.651              1.354
 Vibration    18          0.711              1.621              1.274
 Vibration    19          0.716              1.606              1.236
 Vibration    20          0.767              1.468              0.960
 Vibration    21          0.782              1.428              0.894
 Vibration    22          0.850              1.263              0.673
 Vibration    23          0.865              1.228              0.633
 Vibration    24          0.937              1.075              0.485

                           ! Non-Optimized Parameters !
 Normal termination of Gaussian 16 at Thu Dec 10 17:16:15 2020.

 ----------------------------------------------------------------------
 # B3LYP/6-311++G(d,p) empiricaldispersion=gd3bj scf=xqc pop=npa geom=c
 heck
 ----------------------------------------------------------------------

 ---------------------------------------
 CID_102543542_JID_5779_Energie_neutraal
 ---------------------------------------
 Structure from the checkpoint file:  "JID_5779.chk"
 Charge =  0 Multiplicity = 1

 SCF Done:  E(RB3LYP) =  -671.508806034     A.U. after   15 cycles
 Normal termination of Gaussian 16 at Thu Dec 10 17:23:51 2020.

 ----------------------------------------------------------------------
 # B3LYP/6-311++G(d,p) empiricaldispersion=gd3bj scf=xqc pop=npa geom=c
 heck
 ----------------------------------------------------------------------

 -------------------------------------
 CID_102543542_JID_5779_Energie_kation
 -------------------------------------
 Structure from the checkpoint file:  "JID_5779.chk"
 Charge =  1 Multiplicity = 2

 SCF Done:  E(UB3LYP) =  -671.211871983     A.U. after   31 cycles
 Normal termination of Gaussian 16 at Thu Dec 10 17:41:12 2020.
 Gaussian 16:  ES64L-G16RevA.03 25-Dec-2016

 ----------------------------------------------------------------------
 # B3LYP/6-311++G(d,p) empiricaldispersion=gd3bj scf=xqc pop=npa geom=c
 heck
 ----------------------------------------------------------------------

 ------------------------------------
 CID_102543542_JID_5779_Energie_anion
 ------------------------------------
 Structure from the checkpoint file:  "JID_5779.chk"
 Charge = -1 Multiplicity = 2

                         Standard orientation:
 ---------------------------------------------------------------------
 Center     Atomic      Atomic             Coordinates (Angstroms)
 Number     Number       Type             X           Y           Z
 ---------------------------------------------------------------------
      1          6           0        2.478973    2.736230   -0.170407
      2          6           0        2.680498    1.354085    0.443365
      3          7           0        2.906426    0.361855   -0.600017
      4          6           0        3.091707   -1.003620   -0.143337
      5          6           0        1.934853   -1.606625    0.688490
      6          7           0        0.649311   -1.358294    0.053175
      7          6           0       -0.479638   -0.816728    0.603363
      8          6           0       -1.397335   -0.690035   -0.440639
      9          6           0       -0.702808   -1.179970   -1.572033
     10          7           0        0.528525   -1.584419   -1.279615
     11          6           0       -2.785570   -0.106454   -0.505620
     12          6           0       -3.706461   -0.413990    0.679830
     13          8           0       -2.785551    1.301166   -0.810053
     14          6           0       -2.041502    2.121858    0.063902
     15          6           0       -0.553585   -0.487005    2.061580
     16          1           0        3.336109    3.006445   -0.794871
     17          1           0        2.353343    3.497085    0.607498
     18          1           0        1.581185    2.752144   -0.801278
     19          1           0        3.562977    1.359494    1.098036
     20          1           0        1.814067    1.125363    1.092423
     21          1           0        2.133988    0.374689   -1.264106
     22          1           0        3.242272   -1.628962   -1.026761
     23          1           0        4.005014   -1.061334    0.463683
     24          1           0        2.088284   -2.685939    0.808082
     25          1           0        1.895872   -1.164419    1.685481
     26          1           0       -1.067983   -1.250379   -2.589202
     27          1           0       -3.256028   -0.536276   -1.396686
     28          1           0       -3.398212    0.092739    1.597844
     29          1           0       -4.721056   -0.078250    0.445300
     30          1           0       -3.727739   -1.490446    0.879179
     31          1           0       -2.404478    2.079679    1.102463
     32          1           0       -0.971938    1.866164    0.060135
     33          1           0       -2.160948    3.145683   -0.300040
     34          1           0       -0.358803   -1.367134    2.685635
     35          1           0        0.175159    0.284428    2.340739
     36          1           0       -1.541308   -0.110593    2.321107
 ---------------------------------------------------------------------

 SCF Done:  E(UB3LYP) =  -671.497682324     A.U. after   31 cycles

 The electronic state is 2-A.
 Alpha  occ. eigenvalues --  -19.02754 -14.28986 -14.23101 -14.19981 -10.13723
 Alpha  occ. eigenvalues --  -10.12015 -10.11397 -10.11115 -10.10100 -10.09459
 Alpha  occ. eigenvalues --  -10.09387 -10.07696 -10.07231 -10.06915 -10.06616
 Alpha  occ. eigenvalues --   -0.95386  -0.93693  -0.81406  -0.74944  -0.71858
 Alpha  occ. eigenvalues --   -0.67625  -0.65403  -0.61620  -0.61222  -0.59162
 Alpha  occ. eigenvalues --   -0.54687  -0.52918  -0.51002  -0.47813  -0.44890
 Alpha  occ. eigenvalues --   -0.41546  -0.40187  -0.39359  -0.39149  -0.37199
 Alpha  occ. eigenvalues --   -0.36493  -0.35839  -0.34697  -0.33032  -0.32631
 Alpha  occ. eigenvalues --   -0.32142  -0.31927  -0.30627  -0.30255  -0.29743
 Alpha  occ. eigenvalues --   -0.29256  -0.28479  -0.28142  -0.26477  -0.25980
 Alpha  occ. eigenvalues --   -0.25322  -0.25091  -0.21920  -0.20025  -0.16907
 Alpha  occ. eigenvalues --   -0.15796  -0.14642  -0.13118   0.04246
 Alpha virt. eigenvalues --    0.06592   0.06966   0.07585   0.08539   0.08675
 Alpha virt. eigenvalues --    0.09075   0.09547   0.09676   0.10368   0.10683
 Alpha virt. eigenvalues --    0.11440   0.11603   0.11868   0.12379   0.12805

  Beta  occ. eigenvalues --  -19.02751 -14.28987 -14.23098 -14.19980 -10.13720
  Beta  occ. eigenvalues --  -10.12011 -10.11370 -10.11088 -10.10090 -10.09432
  Beta  occ. eigenvalues --  -10.09384 -10.07634 -10.07230 -10.06886 -10.06599
  Beta  occ. eigenvalues --   -0.95380  -0.93685  -0.81392  -0.74929  -0.71840
  Beta  occ. eigenvalues --   -0.67598  -0.65374  -0.61583  -0.61153  -0.59109
  Beta  occ. eigenvalues --   -0.54650  -0.52884  -0.50951  -0.47785  -0.44849
  Beta  occ. eigenvalues --   -0.41504  -0.40161  -0.39338  -0.39126  -0.37173
  Beta  occ. eigenvalues --   -0.36462  -0.35811  -0.34678  -0.33003  -0.32594
  Beta  occ. eigenvalues --   -0.32089  -0.31888  -0.30594  -0.30215  -0.29706
  Beta  occ. eigenvalues --   -0.29227  -0.28450  -0.28110  -0.26435  -0.25952
  Beta  occ. eigenvalues --   -0.25296  -0.25067  -0.21903  -0.20012  -0.16894
  Beta  occ. eigenvalues --   -0.15784  -0.14629  -0.13106
  Beta virt. eigenvalues --    0.06570   0.07212   0.07584   0.08014   0.08910
  Beta virt. eigenvalues --    0.09045   0.09394   0.09831   0.10059   0.10787
  Beta virt. eigenvalues --    0.11089   0.11703   0.11937   0.12097   0.12698

 Mulliken charges and spin densities:
               1          2
     1  C    0.286079  -0.828825
     2  C   -0.409994   0.128142
     3  N   -0.041144   0.034488
     4  C   -0.081705  -0.507632
     5  C    0.161117  -0.150601
     6  N    0.567908   0.047441
     7  C   -2.652058   1.865073
     8  C    0.994121  -0.051779
     9  C    0.358806  -0.273349
    10  N   -0.416152   0.007877
    11  C   -2.589693   1.617013
    12  C    0.625927  -1.020980
    13  O   -0.041780   0.011562
    14  C    0.137882  -0.556338
    15  C    3.655884  -4.278674
    16  H    0.094904   0.054041
    17  H   -0.213750   0.354372
    18  H    0.103188   0.021096
    19  H   -0.446156   0.614376
    20  H    0.670608  -0.580623
    21  H    0.200439   0.017346
    22  H    0.243731  -0.053250
    23  H   -0.210022   0.372877
    24  H   -0.546758   0.748906
    25  H   -0.103816   0.260140
    26  H    0.101432   0.042209
    27  H    0.111391   0.055553
    28  H   -0.195757   0.355565
    29  H   -0.099354   0.254291
    30  H   -0.064934   0.210813
    31  H   -0.176404   0.314198
    32  H    0.192864   0.065733
    33  H    0.034271   0.115290
    34  H   -0.634357   0.838998
    35  H   -0.898897   1.051363
    36  H    0.282179  -0.156713
 Sum of Mulliken charges =  -1.00000   1.00000

 Dipole moment (field-independent basis, Debye):
    X=             -1.4506    Y=             -0.0144    Z=             -6.5554  Tot=              6.7140
 Quadrupole moment (field-independent basis, Debye-Ang):
   XX=           -156.9436   YY=           -140.0470   ZZ=           -144.9667
   XY=              2.2364   XZ=             -0.9418   YZ=              2.0181

 Summary of Natural Population Analysis:

                                       Natural Population
                Natural  -----------------------------------------------
    Atom  No    Charge         Core      Valence    Rydberg      Total
 -----------------------------------------------------------------------
      C    1   -0.28698      0.99967     2.28136    0.00596     3.28698
      C    2   -0.08987      0.99964     2.07965    0.01058     3.08987
      N    3   -0.34050      0.99974     2.83024    0.01052     3.84050
      C    4   -0.08969      0.99963     2.07788    0.01219     3.08969
      C    5   -0.09284      0.99960     2.08186    0.01138     3.09284
      N    6   -0.11489      0.99962     2.60072    0.01455     3.61489
      C    7    0.10077      0.99948     1.88662    0.01312     2.89923
      C    8   -0.09521      0.99943     2.08507    0.01070     3.09521
      C    9   -0.00056      0.99957     1.98763    0.01336     3.00056
      N   10   -0.16509      0.99973     2.65430    0.01105     3.66509
      C   11    0.06192      0.99951     1.92448    0.01408     2.93808
      C   12   -0.29505      0.99964     2.29001    0.00539     3.29505
      O   13   -0.30121      0.99989     3.29234    0.00898     4.30121
      C   14   -0.10234      0.99960     2.09305    0.00969     3.10234
      C   15   -0.30740      0.99962     2.30077    0.00701     3.30740
      H   16    0.09772      0.00000     0.40125    0.00103     0.40228
      H   17    0.10138      0.00000     0.39778    0.00084     0.39862
      H   18    0.09455      0.00000     0.40422    0.00122     0.40545
      H   19    0.08936      0.00000     0.40907    0.00158     0.41064
      H   20    0.07876      0.00000     0.41860    0.00264     0.42124
      H   21    0.17669      0.00000     0.32033    0.00298     0.32331
      H   22    0.09998      0.00000     0.39874    0.00128     0.40002
      H   23    0.09437      0.00000     0.40455    0.00108     0.40563
      H   24    0.10237      0.00000     0.39612    0.00151     0.39763
      H   25    0.10586      0.00000     0.39174    0.00241     0.39414
      H   26    0.09540      0.00000     0.40372    0.00088     0.40460
      H   27    0.09079      0.00000     0.40739    0.00182     0.40921
      H   28    0.09965      0.00000     0.39908    0.00127     0.40035
      H   29    0.10066      0.00000     0.39840    0.00093     0.39934
      H   30    0.10385      0.00000     0.39513    0.00102     0.39615
      H   31    0.07959      0.00000     0.41903    0.00138     0.42041
      H   32    0.08240      0.00000     0.41581    0.00179     0.41760
      H   33    0.08896      0.00000     0.41008    0.00096     0.41104
      H   34    0.11329      0.00000     0.38439    0.00232     0.38671
      H   35    0.11120      0.00000     0.38567    0.00312     0.38880
      H   36    0.11210      0.00000     0.38614    0.00176     0.38790
 =======================================================================
   * Total *    0.00000     14.99438    42.81321    0.19241    58.00000

 Normal termination of Gaussian 16 at Thu Dec 10 17:59:10 2020.
