 Gaussian 16, Revision A.03,

 -----------------------------------------------------------
 # opt freq B3LYP/6-31G(d) empiricaldispersion=gd3bj scf=xqc
 -----------------------------------------------------------

 ------------------------------
 CID_149153275_JID_904_neutraal
 ------------------------------
 Symbolic Z-matrix:
 Charge =  0 Multiplicity = 1

 SCF Done:  E(RB3LYP) =  -385.462994367     A.U. after   17 cycles
 SCF Done:  E(RB3LYP) =  -385.494813657     A.U. after   16 cycles
 SCF Done:  E(RB3LYP) =  -385.512539220     A.U. after   15 cycles
 SCF Done:  E(RB3LYP) =  -385.516336147     A.U. after   14 cycles
 SCF Done:  E(RB3LYP) =  -385.520793958     A.U. after   14 cycles
 SCF Done:  E(RB3LYP) =  -385.523008141     A.U. after   14 cycles
 SCF Done:  E(RB3LYP) =  -385.525054067     A.U. after   14 cycles
 SCF Done:  E(RB3LYP) =  -385.525664204     A.U. after   13 cycles
 SCF Done:  E(RB3LYP) =  -385.525854696     A.U. after   12 cycles
 SCF Done:  E(RB3LYP) =  -385.525954574     A.U. after   10 cycles
 SCF Done:  E(RB3LYP) =  -385.526061524     A.U. after   13 cycles
 SCF Done:  E(RB3LYP) =  -385.526096382     A.U. after   10 cycles
 SCF Done:  E(RB3LYP) =  -385.526141971     A.U. after   10 cycles
 SCF Done:  E(RB3LYP) =  -385.526154556     A.U. after   11 cycles
 SCF Done:  E(RB3LYP) =  -385.526156725     A.U. after    9 cycles
 SCF Done:  E(RB3LYP) =  -385.526157821     A.U. after    9 cycles
 Optimization completed.
    -- Stationary point found.
 Normal termination of Gaussian 16 at Tue Dec  8 13:44:32 2020.

 --------------------------------------------------------------------
 #N Geom=AllCheck Guess=TCheck SCRF=Check GenChk RB3LYP/6-31G(d) Freq
 --------------------------------------------------------------------

 Structure from the checkpoint file:  "JID_904.chk"
 ------------------------------
 CID_149153275_JID_904_neutraal
 ------------------------------
 Charge =  0 Multiplicity = 1

 SCF Done:  E(RB3LYP) =  -385.526157821     A.U. after    1 cycles

  Exact polarizability:  99.925  -3.111  88.706   1.132  -1.043  78.253
 Approx polarizability: 162.524 -17.871 172.905   1.033 -15.685 143.916

                      1                      2                      3
                      A                      A                      A
 Frequencies --    196.7823               243.8976               326.5270
 Red. masses --      3.8946                 3.3159                 3.6178
 Frc consts  --      0.0889                 0.1162                 0.2273
 IR Inten    --      3.2678                 2.5289                10.0180

                      4                      5                      6
                      A                      A                      A
 Frequencies --    341.3110               437.4213               519.5794
 Red. masses --      3.5899                 4.0310                 5.7451
 Frc consts  --      0.2464                 0.4544                 0.9138
 IR Inten    --     15.8154                11.9554                64.3560

                      7                      8                      9
                      A                      A                      A
 Frequencies --    533.9573               639.3646               680.3467
 Red. masses --      3.8019                 3.3157                 2.4939
 Frc consts  --      0.6387                 0.7986                 0.6801
 IR Inten    --      4.2363                 8.3081                 7.1601

                     10                     11                     12
                      A                      A                      A
 Frequencies --    694.6208               725.1424               742.6720
 Red. masses --      2.8796                 1.7297                 2.5826
 Frc consts  --      0.8186                 0.5359                 0.8393
 IR Inten    --     55.0385                14.2451                49.2162

                     13                     14                     15
                      A                      A                      A
 Frequencies --    798.4531               802.8980               813.0374
 Red. masses --      1.7794                 2.3840                 2.7475
 Frc consts  --      0.6684                 0.9055                 1.0701
 IR Inten    --      8.0900                35.1724                 8.9180

                     16                     17                     18
                      A                      A                      A
 Frequencies --    860.3466               868.8823               889.1379
 Red. masses --      4.1035                 1.9136                 1.3426
 Frc consts  --      1.7896                 0.8512                 0.6254
 IR Inten    --      5.0764                 7.8206                 0.2960

                     19                     20                     21
                      A                      A                      A
 Frequencies --    909.1681               930.8185               937.4652
 Red. masses --      1.8333                 2.3370                 1.7506
 Frc consts  --      0.8928                 1.1930                 0.9065
 IR Inten    --     20.2239                11.4782                 8.7979

                     22                     23                     24
                      A                      A                      A
 Frequencies --    975.1825               981.2410              1000.1902
 Red. masses --      1.7974                 1.6083                 2.5014
 Frc consts  --      1.0071                 0.9123                 1.4744
 IR Inten    --      9.9348                 7.1286                 9.0833

                     25                     26                     27
                      A                      A                      A
 Frequencies --   1021.9523              1037.1396              1052.1609
 Red. masses --      2.8401                 1.9080                 1.6391
 Frc consts  --      1.7476                 1.2092                 1.0691
 IR Inten    --      2.9208                10.4266                15.5219

                     28                     29                     30
                      A                      A                      A
 Frequencies --   1093.2796              1100.3243              1134.0730
 Red. masses --      1.4250                 2.2742                 1.5086
 Frc consts  --      1.0036                 1.6223                 1.1431
 IR Inten    --      2.2565                 6.6054                 2.2372

                     31                     32                     33
                      A                      A                      A
 Frequencies --   1143.4047              1197.9708              1248.8797
 Red. masses --      2.2154                 1.6417                 1.8570
 Frc consts  --      1.7065                 1.3881                 1.7065
 IR Inten    --      0.5324                 9.2934                 7.1925

                     34                     35                     36
                      A                      A                      A
 Frequencies --   1274.8262              1283.2643              1334.2310
 Red. masses --      1.5475                 1.6077                 1.5222
 Frc consts  --      1.4818                 1.5599                 1.5965
 IR Inten    --      0.1792                 4.6529                11.2421

                     37                     38                     39
                      A                      A                      A
 Frequencies --   1359.0142              1406.2979              1418.6391
 Red. masses --      2.1413                 4.8246                 2.1978
 Frc consts  --      2.3301                 5.6216                 2.6060
 IR Inten    --     27.4225                 3.8569                 0.4893

                     40                     41                     42
                      A                      A                      A
 Frequencies --   1617.0805              3075.1491              3117.5372
 Red. masses --      5.8648                 1.0870                 1.0872
 Frc consts  --      9.0358                 6.0563                 6.2258
 IR Inten    --      3.2985                29.9859                33.8303

                     43                     44                     45
                      A                      A                      A
 Frequencies --   3134.6917              3188.6563              3209.2349
 Red. masses --      1.0895                 1.0918                 1.0856
 Frc consts  --      6.3076                 6.5407                 6.5877
 IR Inten    --     63.3648                30.5879                 9.3960

                     46                     47                     48
                      A                      A                      A
 Frequencies --   3233.4869              3286.9458              3306.3536
 Red. masses --      1.1047                 1.0893                 1.1115
 Frc consts  --      6.8054                 6.9340                 7.1590
 IR Inten    --     21.9162                 0.2333                 0.2165

 - Thermochemistry -
 -------------------
 Temperature   298.150 Kelvin.  Pressure   1.00000 Atm.
 Atom     1 has atomic number  6 and mass  12.00000

 Molecular mass:   128.06260 amu.
 Principal axes and moments of inertia in atomic units:
                           1         2         3
     Eigenvalues --   594.381261175.121651225.82754
           X            0.99987  -0.00269   0.01589
           Y            0.00076   0.99277   0.12002
           Z           -0.01610  -0.11999   0.99264
 This molecule is an asymmetric top.
 Rotational symmetry number  1.
 Warning -- assumption of classical behavior for rotation
           may cause significant error
 Rotational temperatures (Kelvin)      0.14572     0.07371     0.07066
 Rotational constants (GHZ):           3.03634     1.53579     1.47226
 Zero-point vibrational energy     371578.3 (Joules/Mol)
                                   88.80934 (Kcal/Mol)
 Warning -- explicit consideration of   7 degrees of freedom as
           vibrations may cause significant error
 Vibrational temperatures:    283.13   350.91   469.80   491.07   629.35
          (Kelvin)            747.56   768.25   919.90   978.87   999.40
                             1043.32  1068.54  1148.80  1155.19  1169.78
                             1237.85  1250.13  1279.27  1308.09  1339.24
                             1348.80  1403.07  1411.79  1439.05  1470.36
                             1492.21  1513.82  1572.99  1583.12  1631.68
                             1645.10  1723.61  1796.86  1834.19  1846.33
                             1919.66  1955.32  2023.35  2041.11  2326.62
                             4424.45  4485.44  4510.12  4587.77  4617.37
                             4652.27  4729.18  4757.11

 Zero-point correction=                           0.141527 (Hartree/Particle)
 Thermal correction to Energy=                    0.148393
 Thermal correction to Enthalpy=                  0.149338
 Thermal correction to Gibbs Free Energy=         0.110778
 Sum of electronic and zero-point Energies=           -385.384631
 Sum of electronic and thermal Energies=              -385.377764
 Sum of electronic and thermal Enthalpies=            -385.376820
 Sum of electronic and thermal Free Energies=         -385.415380

                     E (Thermal)             CV                S
                      KCal/Mol        Cal/Mol-Kelvin    Cal/Mol-Kelvin
 Total                   93.118             30.158             81.155
 Electronic               0.000              0.000              0.000
 Translational            0.889              2.981             40.455
 Rotational               0.889              2.981             28.239
 Vibrational             91.341             24.197             12.461
 Vibration     1          0.636              1.844              2.163
 Vibration     2          0.659              1.773              1.774
 Vibration     3          0.710              1.622              1.277
 Vibration     4          0.721              1.593              1.206
 Vibration     5          0.798              1.389              0.835
 Vibration     6          0.875              1.207              0.611
 Vibration     7          0.889              1.175              0.578

 Optimization completed.
    -- Stationary point found.
 Normal termination of Gaussian 16 at Tue Dec  8 13:49:14 2020.

 ----------------------------------------------------------------------
 # B3LYP/6-311++G(d,p) empiricaldispersion=gd3bj scf=xqc pop=npa geom=c
 heck
 ----------------------------------------------------------------------

 --------------------------------------
 CID_149153275_JID_904_Energie_neutraal
 --------------------------------------
 Structure from the checkpoint file:  "JID_904.chk"
 Charge =  0 Multiplicity = 1

 SCF Done:  E(RB3LYP) =  -385.622306993     A.U. after   15 cycles
 Normal termination of Gaussian 16 at Tue Dec  8 13:51:39 2020.

 ----------------------------------------------------------------------
 # B3LYP/6-311++G(d,p) empiricaldispersion=gd3bj scf=xqc pop=npa geom=c
 heck
 ----------------------------------------------------------------------

 ------------------------------------
 CID_149153275_JID_904_Energie_kation
 ------------------------------------
 Structure from the checkpoint file:  "JID_904.chk"
 Charge =  1 Multiplicity = 2

 SCF Done:  E(UB3LYP) =  -385.355851761     A.U. after   23 cycles
 Normal termination of Gaussian 16 at Tue Dec  8 13:56:36 2020.
 Gaussian 16:  ES64L-G16RevA.03 25-Dec-2016

 ----------------------------------------------------------------------
 # B3LYP/6-311++G(d,p) empiricaldispersion=gd3bj scf=xqc pop=npa geom=c
 heck
 ----------------------------------------------------------------------

 -----------------------------------
 CID_149153275_JID_904_Energie_anion
 -----------------------------------
 Structure from the checkpoint file:  "JID_904.chk"
 Charge = -1 Multiplicity = 2

                         Standard orientation:
 ---------------------------------------------------------------------
 Center     Atomic      Atomic             Coordinates (Angstroms)
 Number     Number       Type             X           Y           Z
 ---------------------------------------------------------------------
      1          6           0        1.638174    0.515441    0.961649
      2          6           0        1.349449    1.292017   -0.094929
      3          6           0        0.821602    0.388986   -1.180067
      4          6           0        1.386886   -0.869665   -0.945748
      5          6           0        1.310893   -0.899756    0.574860
      6          6           0       -0.406770   -1.010225    0.381042
      7          6           0       -0.607500    0.048443   -0.710885
      8          6           0       -2.150449   -0.004235   -0.534252
      9          6           0       -1.674592   -0.308243    0.923955
     10          6           0       -1.423079    0.991385    0.197002
     11          1           0        1.959420    0.818462    1.952005
     12          1           0        1.329604    2.375954   -0.135375
     13          1           0        0.982115   -1.728239   -1.483741
     14          1           0        1.735505   -1.717854    1.159926
     15          1           0       -0.599186   -2.045992    0.081763
     16          1           0       -3.052323   -0.137614   -1.110017
     17          1           0       -2.369399   -0.486140    1.741079
     18          1           0       -1.453427    2.056531    0.358599
 ---------------------------------------------------------------------

 SCF Done:  E(UB3LYP) =  -385.649147592     A.U. after   26 cycles

 The electronic state is 2-A.
 Alpha  occ. eigenvalues --  -10.04819 -10.04753 -10.03303 -10.03256 -10.01929
 Alpha  occ. eigenvalues --  -10.01835  -9.99929  -9.99796  -9.96561  -9.96437
 Alpha  occ. eigenvalues --   -0.80993  -0.69798  -0.56514  -0.53489  -0.49715
 Alpha  occ. eigenvalues --   -0.46994  -0.43887  -0.38969  -0.36872  -0.36393
 Alpha  occ. eigenvalues --   -0.33175  -0.28549  -0.28152  -0.27052  -0.22632
 Alpha  occ. eigenvalues --   -0.22039  -0.19251  -0.18624  -0.14592  -0.14384
 Alpha  occ. eigenvalues --   -0.11414  -0.10094  -0.06773  -0.01924   0.03736
 Alpha virt. eigenvalues --    0.09100   0.10441   0.10922   0.11196   0.12325
 Alpha virt. eigenvalues --    0.13009   0.14060   0.14750   0.15714   0.16425
 Alpha virt. eigenvalues --    0.17508   0.18272   0.18662   0.18887   0.19581

  Beta  occ. eigenvalues --  -10.04794 -10.04751 -10.03200 -10.03096 -10.01873
  Beta  occ. eigenvalues --  -10.01685  -9.99907  -9.99812  -9.96083  -9.95639
  Beta  occ. eigenvalues --   -0.80844  -0.69274  -0.56183  -0.53011  -0.49292
  Beta  occ. eigenvalues --   -0.46653  -0.43784  -0.38785  -0.36351  -0.35926
  Beta  occ. eigenvalues --   -0.32933  -0.28008  -0.27934  -0.26390  -0.22166
  Beta  occ. eigenvalues --   -0.21810  -0.18957  -0.18053  -0.14379  -0.14191
  Beta  occ. eigenvalues --   -0.11255  -0.09485  -0.06435   0.01800
  Beta virt. eigenvalues --    0.09089   0.10068   0.10849   0.11168   0.12279
  Beta virt. eigenvalues --    0.12520   0.13091   0.14049   0.14906   0.15802
  Beta virt. eigenvalues --    0.16605   0.17694   0.18313   0.18801   0.18964

 Mulliken charges and spin densities:
               1          2
     1  C   -0.632031   0.054657
     2  C   -0.363983  -0.169636
     3  C    0.656680   0.579943
     4  C   -0.626245   0.586807
     5  C    0.305585  -0.135247
     6  C   -0.329072   0.138384
     7  C   -0.221098  -0.150173
     8  C   -0.381268  -0.065853
     9  C   -0.185350  -0.007227
    10  C    0.069760   0.070591
    11  H    0.015176   0.060415
    12  H    0.071650  -0.010643
    13  H    0.069623  -0.032956
    14  H    0.114993   0.062445
    15  H    0.106269  -0.008181
    16  H    0.050811   0.034281
    17  H    0.121448  -0.005312
    18  H    0.157054  -0.002296
 Sum of Mulliken charges =  -1.00000   1.00000

 Dipole moment (field-independent basis, Debye):
    X=             -4.1993    Y=              0.2410    Z=              3.6666  Tot=              5.5800
 Quadrupole moment (field-independent basis, Debye-Ang):
   XX=            -82.0372   YY=            -67.3297   ZZ=            -76.9693
   XY=              0.8819   XZ=              5.8898   YZ=              1.7686

 Summary of Natural Population Analysis:

                                       Natural Population
                Natural  -----------------------------------------------
    Atom  No    Charge         Core      Valence    Rydberg      Total
 -----------------------------------------------------------------------
      C    1   -0.12668      0.99950     2.11434    0.01284     3.12668
      C    2   -0.09892      0.99951     2.08555    0.01386     3.09892
      C    3   -0.02395      0.99906     2.00027    0.02461     3.02395
      C    4    0.11400      0.99922     1.86663    0.02015     2.88600
      C    5   -0.14953      0.99958     2.13401    0.01594     3.14953
      C    6   -0.06783      0.99949     2.05596    0.01238     3.06783
      C    7   -0.01834      0.99939     1.99967    0.01927     3.01834
      C    8   -0.12174      0.99950     2.10564    0.01659     3.12174
      C    9   -0.10853      0.99959     2.09684    0.01210     3.10853
      C   10   -0.10871      0.99947     2.09495    0.01428     3.10871
      H   11    0.08699      0.00000     0.41121    0.00180     0.41301
      H   12    0.08829      0.00000     0.41070    0.00101     0.41171
      H   13    0.06853      0.00000     0.42975    0.00172     0.43147
      H   14    0.08971      0.00000     0.40826    0.00203     0.41029
      H   15    0.07922      0.00000     0.41936    0.00143     0.42078
      H   16    0.10503      0.00000     0.39236    0.00261     0.39497
      H   17    0.08722      0.00000     0.41031    0.00247     0.41278
      H   18    0.10523      0.00000     0.39297    0.00180     0.39477
 =======================================================================
   * Total *    0.00000      9.99433    23.82877    0.17690    34.00000

 Normal termination of Gaussian 16 at Tue Dec  8 14:02:43 2020.
