 Gaussian 16, Revision A.03,

 -----------------------------------------------------------
 # opt freq B3LYP/6-31G(d) empiricaldispersion=gd3bj scf=xqc
 -----------------------------------------------------------

 -------------------------------
 CID_152231206_JID_5349_neutraal
 -------------------------------
 Symbolic Z-matrix:
 Charge =  0 Multiplicity = 1

 SCF Done:  E(RB3LYP) =  -665.252787597     A.U. after   16 cycles
 SCF Done:  E(RB3LYP) =  -665.255776275     A.U. after   15 cycles
 SCF Done:  E(RB3LYP) =  -665.257460879     A.U. after   13 cycles
 SCF Done:  E(RB3LYP) =  -665.258016972     A.U. after   12 cycles
 SCF Done:  E(RB3LYP) =  -665.258227306     A.U. after   15 cycles
 SCF Done:  E(RB3LYP) =  -665.258442342     A.U. after   12 cycles
 SCF Done:  E(RB3LYP) =  -665.258546933     A.U. after   12 cycles
 SCF Done:  E(RB3LYP) =  -665.258623158     A.U. after   13 cycles
 SCF Done:  E(RB3LYP) =  -665.258630912     A.U. after    9 cycles
 SCF Done:  E(RB3LYP) =  -665.258642305     A.U. after   11 cycles
 SCF Done:  E(RB3LYP) =  -665.258647790     A.U. after   10 cycles
 SCF Done:  E(RB3LYP) =  -665.258649715     A.U. after   10 cycles
 SCF Done:  E(RB3LYP) =  -665.258650999     A.U. after   10 cycles
 SCF Done:  E(RB3LYP) =  -665.258651152     A.U. after    8 cycles
 SCF Done:  E(RB3LYP) =  -665.258651183     A.U. after    8 cycles
 Optimization completed.
    -- Stationary point found.
 Normal termination of Gaussian 16 at Thu Dec 10 15:39:58 2020.

 --------------------------------------------------------------------
 #N Geom=AllCheck Guess=TCheck SCRF=Check GenChk RB3LYP/6-31G(d) Freq
 --------------------------------------------------------------------

 Structure from the checkpoint file:  "JID_5349.chk"
 -------------------------------
 CID_152231206_JID_5349_neutraal
 -------------------------------
 Charge =  0 Multiplicity = 1

 SCF Done:  E(RB3LYP) =  -665.258651183     A.U. after    1 cycles

  Exact polarizability: 170.376  18.272 136.273 -16.882   4.681  88.587
 Approx polarizability: 265.793  44.453 234.698 -52.381   3.114 158.208

                      1                      2                      3
                      A                      A                      A
 Frequencies --     21.1842                35.5589                44.1072
 Red. masses --      5.8306                 2.9385                 7.7554
 Frc consts  --      0.0015                 0.0022                 0.0089
 IR Inten    --      0.2769                 0.1061                 0.4718

                      4                      5                      6
                      A                      A                      A
 Frequencies --     87.5648               107.7974               160.0525
 Red. masses --      3.8732                 5.4837                 6.5315
 Frc consts  --      0.0175                 0.0375                 0.0986
 IR Inten    --      1.1562                 1.8300                 0.9451

                      7                      8                      9
                      A                      A                      A
 Frequencies --    200.7128               223.4403               232.4231
 Red. masses --      1.8034                 3.9209                 2.0005
 Frc consts  --      0.0428                 0.1153                 0.0637
 IR Inten    --      0.7472                 1.3070                 2.1489

                     10                     11                     12
                      A                      A                      A
 Frequencies --    278.3971               298.5303               358.9234
 Red. masses --      3.6008                 1.7158                 5.2121
 Frc consts  --      0.1644                 0.0901                 0.3956
 IR Inten    --      3.4437                 0.0533                 0.2392

                     13                     14                     15
                      A                      A                      A
 Frequencies --    434.2954               459.3477               518.6036
 Red. masses --      3.9255                 4.8052                 4.8215
 Frc consts  --      0.4362                 0.5974                 0.7640
 IR Inten    --      2.2363                 0.2262                 0.2773

                     16                     17                     18
                      A                      A                      A
 Frequencies --    522.6296               574.9172               578.4196
 Red. masses --      3.3669                12.3121                 4.9488
 Frc consts  --      0.5418                 2.3977                 0.9755
 IR Inten    --      1.2235                12.1962                 4.6086

                     19                     20                     21
                      A                      A                      A
 Frequencies --    595.7532               664.5139               678.1322
 Red. masses --      5.0963                 5.5661                 7.3108
 Frc consts  --      1.0657                 1.4481                 1.9808
 IR Inten    --      5.7496                 1.1055                11.1909

                     22                     23                     24
                      A                      A                      A
 Frequencies --    721.2613               749.2167               760.5962
 Red. masses --      4.2243                 3.2220                 1.5926
 Frc consts  --      1.2948                 1.0656                 0.5428
 IR Inten    --      3.3464                 7.2255                40.9426

                     25                     26                     27
                      A                      A                      A
 Frequencies --    787.1963               804.0627               850.3206
 Red. masses --      2.7925                 1.6010                 3.3890
 Frc consts  --      1.0196                 0.6099                 1.4437
 IR Inten    --     19.8243                 6.0904                11.7562

                     28                     29                     30
                      A                      A                      A
 Frequencies --    863.2269               883.6511               893.3369
 Red. masses --      1.4662                 5.3653                 5.5840
 Frc consts  --      0.6437                 2.4683                 2.6256
 IR Inten    --      1.4561                33.5012                12.6388

                     31                     32                     33
                      A                      A                      A
 Frequencies --    928.7158               971.6250               977.1123
 Red. masses --      1.3506                 1.2367                 2.2743
 Frc consts  --      0.6864                 0.6879                 1.2793
 IR Inten    --      1.6359                 0.0823                 1.2582

                     34                     35                     36
                      A                      A                      A
 Frequencies --   1032.5201              1047.2430              1079.3510
 Red. masses --      2.2316                 1.8446                 2.3838
 Frc consts  --      1.4017                 1.1919                 1.6362
 IR Inten    --      7.1472                16.4677                 5.9060

                     37                     38                     39
                      A                      A                      A
 Frequencies --   1094.9777              1134.7134              1172.1571
 Red. masses --      1.8734                 1.8652                 1.8635
 Frc consts  --      1.3234                 1.4150                 1.5085
 IR Inten    --     23.1204                 1.7211                 2.4388

                     40                     41                     42
                      A                      A                      A
 Frequencies --   1191.0221              1212.7516              1264.2054
 Red. masses --      1.2982                 2.7023                 1.3932
 Frc consts  --      1.0850                 2.3416                 1.3119
 IR Inten    --      0.5988                41.3272                 8.0986

                     43                     44                     45
                      A                      A                      A
 Frequencies --   1276.3987              1305.0365              1316.9151
 Red. masses --      2.3151                 2.6155                 1.6922
 Frc consts  --      2.2223                 2.6245                 1.7291
 IR Inten    --     11.4267               131.8873                22.3084

                     46                     47                     48
                      A                      A                      A
 Frequencies --   1327.2861              1366.7937              1392.9556
 Red. masses --      1.5254                 1.7623                 1.5998
 Frc consts  --      1.5833                 1.9397                 1.8289
 IR Inten    --      1.9641                 9.9063                 5.8715

                     49                     50                     51
                      A                      A                      A
 Frequencies --   1407.2784              1415.3358              1435.3481
 Red. masses --      4.2940                 3.0640                 1.2676
 Frc consts  --      5.0104                 3.6163                 1.5386
 IR Inten    --      3.5341                 8.5610                 2.0145

                     52                     53                     54
                      A                      A                      A
 Frequencies --   1498.6623              1503.9226              1523.2820
 Red. masses --      2.4323                 1.1197                 1.2255
 Frc consts  --      3.2186                 1.4921                 1.6755
 IR Inten    --     35.9699                 2.4855                10.9370

                     55                     56                     57
                      A                      A                      A
 Frequencies --   1526.7079              1527.6353              1538.0792
 Red. masses --      1.2228                 1.6978                 1.0677
 Frc consts  --      1.6793                 2.3343                 1.4881
 IR Inten    --      6.0548                 1.3820                 3.0029

                     58                     59                     60
                      A                      A                      A
 Frequencies --   1644.6352              1666.2095              1677.9209
 Red. masses --      6.4418                 8.4327                 7.3342
 Frc consts  --     10.2660                13.7935                12.1659
 IR Inten    --      0.9018                27.6489                 6.4994

                     61                     62                     63
                      A                      A                      A
 Frequencies --   2256.3690              3050.4808              3058.3006
 Red. masses --     13.6592                 1.0700                 1.0407
 Frc consts  --     40.9729                 5.8666                 5.7352
 IR Inten    --    389.3433                35.5183                29.3649

                     64                     65                     66
                      A                      A                      A
 Frequencies --   3060.0221              3098.8207              3131.6740
 Red. masses --      1.0529                 1.1038                 1.1031
 Frc consts  --      5.8090                 6.2451                 6.3744
 IR Inten    --     23.7534                 7.9721                34.5749

                     67                     68                     69
                      A                      A                      A
 Frequencies --   3139.5504              3140.8160              3189.1167
 Red. masses --      1.1005                 1.0991                 1.0859
 Frc consts  --      6.3911                 6.3879                 6.5071
 IR Inten    --     18.6866                18.8450                 1.9146

                     70                     71                     72
                      A                      A                      A
 Frequencies --   3199.9041              3211.8027              3225.7506
 Red. masses --      1.0900                 1.0943                 1.0953
 Frc consts  --      6.5758                 6.6511                 6.7149
 IR Inten    --     13.1322                22.6297                 9.9905

 - Thermochemistry -
 -------------------
 Temperature   298.150 Kelvin.  Pressure   1.00000 Atm.
 Atom     1 has atomic number  6 and mass  12.00000

 Molecular mass:   201.09021 amu.
 Principal axes and moments of inertia in atomic units:
                           1         2         3
     Eigenvalues --  2276.140413248.849104782.64067
           X            0.99606   0.08867  -0.00197
           Y           -0.08857   0.99562   0.02998
           Z            0.00461  -0.02968   0.99955
 This molecule is an asymmetric top.
 Rotational symmetry number  1.
 Warning -- assumption of classical behavior for rotation
           may cause significant error
 Rotational temperatures (Kelvin)      0.03805     0.02666     0.01811
 Rotational constants (GHZ):           0.79290     0.55550     0.37735
 Zero-point vibrational energy     541953.7 (Joules/Mol)
                                  129.53004 (Kcal/Mol)
 Warning -- explicit consideration of  19 degrees of freedom as
           vibrations may cause significant error
 Vibrational temperatures:     30.48    51.16    63.46   125.99   155.10
          (Kelvin)            230.28   288.78   321.48   334.41   400.55
                              429.52   516.41   624.85   660.90   746.15
                              751.95   827.18   832.22   857.16   956.09
                              975.68  1037.73  1077.96  1094.33  1132.60
                             1156.87  1223.42  1241.99  1271.38  1285.31
                             1336.21  1397.95  1405.85  1485.57  1506.75
                             1552.95  1575.43  1632.60  1686.47  1713.62
                             1744.88  1818.91  1836.45  1877.66  1894.75
                             1909.67  1966.51  2004.15  2024.76  2036.35
                             2065.15  2156.24  2163.81  2191.66  2196.59
                             2197.93  2212.95  2366.26  2397.30  2414.15
                             3246.41  4388.96  4400.21  4402.69  4458.51
                             4505.78  4517.11  4518.93  4588.43  4603.95
                             4621.07  4641.14

 Zero-point correction=                           0.206419 (Hartree/Particle)
 Thermal correction to Energy=                    0.219630
 Thermal correction to Enthalpy=                  0.220574
 Thermal correction to Gibbs Free Energy=         0.164370
 Sum of electronic and zero-point Energies=           -665.052232
 Sum of electronic and thermal Energies=              -665.039021
 Sum of electronic and thermal Enthalpies=            -665.038077
 Sum of electronic and thermal Free Energies=         -665.094281

                     E (Thermal)             CV                S
                      KCal/Mol        Cal/Mol-Kelvin    Cal/Mol-Kelvin
 Total                  137.820             49.153            118.291
 Electronic               0.000              0.000              0.000
 Translational            0.889              2.981             41.800
 Rotational               0.889              2.981             31.937
 Vibrational            136.042             43.192             44.555
 Vibration     1          0.593              1.985              6.520
 Vibration     2          0.594              1.982              5.492
 Vibration     3          0.595              1.980              5.066
 Vibration     4          0.601              1.958              3.714
 Vibration     5          0.606              1.943              3.308
 Vibration     6          0.622              1.891              2.549
 Vibration     7          0.638              1.839              2.127
 Vibration     8          0.649              1.805              1.931
 Vibration     9          0.653              1.791              1.860
 Vibration    10          0.679              1.713              1.543
 Vibration    11          0.692              1.676              1.425
 Vibration    12          0.734              1.557              1.127
 Vibration    13          0.795              1.395              0.845
 Vibration    14          0.817              1.340              0.768
 Vibration    15          0.874              1.209              0.613
 Vibration    16          0.878              1.200              0.604
 Vibration    17          0.931              1.086              0.495
 Vibration    18          0.935              1.078              0.488
 Vibration    19          0.954              1.041              0.457

 Optimization completed.
    -- Stationary point found.
 Normal termination of Gaussian 16 at Thu Dec 10 15:48:15 2020.

 ----------------------------------------------------------------------
 # B3LYP/6-311++G(d,p) empiricaldispersion=gd3bj scf=xqc pop=npa geom=c
 heck
 ----------------------------------------------------------------------

 ---------------------------------------
 CID_152231206_JID_5349_Energie_neutraal
 ---------------------------------------
 Structure from the checkpoint file:  "JID_5349.chk"
 Charge =  0 Multiplicity = 1

 SCF Done:  E(RB3LYP) =  -665.432358540     A.U. after   16 cycles
 Normal termination of Gaussian 16 at Thu Dec 10 15:51:52 2020.

 ----------------------------------------------------------------------
 # B3LYP/6-311++G(d,p) empiricaldispersion=gd3bj scf=xqc pop=npa geom=c
 heck
 ----------------------------------------------------------------------

 -------------------------------------
 CID_152231206_JID_5349_Energie_kation
 -------------------------------------
 Structure from the checkpoint file:  "JID_5349.chk"
 Charge =  1 Multiplicity = 2

 SCF Done:  E(UB3LYP) =  -665.140268402     A.U. after   27 cycles
 Normal termination of Gaussian 16 at Thu Dec 10 15:59:10 2020.
 Gaussian 16:  ES64L-G16RevA.03 25-Dec-2016

 ----------------------------------------------------------------------
 # B3LYP/6-311++G(d,p) empiricaldispersion=gd3bj scf=xqc pop=npa geom=c
 heck
 ----------------------------------------------------------------------

 ------------------------------------
 CID_152231206_JID_5349_Energie_anion
 ------------------------------------
 Structure from the checkpoint file:  "JID_5349.chk"
 Charge = -1 Multiplicity = 2

                         Standard orientation:
 ---------------------------------------------------------------------
 Center     Atomic      Atomic             Coordinates (Angstroms)
 Number     Number       Type             X           Y           Z
 ---------------------------------------------------------------------
      1          6           0       -2.908556   -1.798708   -0.978516
      2          6           0       -2.204409   -1.931858    0.385125
      3          6           0       -0.884208   -1.244620    0.404319
      4          6           0       -0.509604    0.017986    0.762378
      5          6           0        0.900122    0.130502    0.449567
      6          6           0        1.873329    1.132572    0.559491
      7          6           0        3.170228    0.843028    0.143723
      8          6           0        3.507803   -0.420266   -0.374186
      9          6           0        2.554835   -1.432341   -0.493230
     10          6           0        1.268793   -1.120590   -0.076689
     11          8           0        0.180227   -1.956615   -0.105866
     12          6           0       -1.404454    1.094936    1.282189
     13          7           0       -2.097005    1.876059    0.209259
     14          7           0       -1.342025    2.411710   -0.609429
     15          7           0       -0.747035    2.947200   -1.424326
     16          1           0       -3.091583   -0.744516   -1.208979
     17          1           0       -3.868403   -2.325775   -0.970075
     18          1           0       -2.289487   -2.222233   -1.775676
     19          1           0       -2.837586   -1.500396    1.168623
     20          1           0       -2.058467   -2.989532    0.633288
     21          1           0        1.623872    2.114786    0.950580
     22          1           0        3.937526    1.607954    0.216920
     23          1           0        4.528685   -0.612047   -0.690223
     24          1           0        2.797351   -2.411112   -0.892719
     25          1           0       -2.220555    0.681420    1.876696
     26          1           0       -0.843977    1.785737    1.924944
 ---------------------------------------------------------------------

 SCF Done:  E(UB3LYP) =  -665.425173028     A.U. after   33 cycles
 SCF Done:  E(UB3LYP) =  -665.425173028     a.u. after    1 cycles

 The electronic state is 2-A.
 Alpha  occ. eigenvalues --  -19.06997 -14.33424 -14.23731 -14.22670 -10.11870
 Alpha  occ. eigenvalues --  -10.11131 -10.10376 -10.07051 -10.06961 -10.06893
 Alpha  occ. eigenvalues --  -10.06843 -10.06722 -10.06577 -10.05931 -10.04802
 Alpha  occ. eigenvalues --   -1.00270  -0.99532  -0.84552  -0.75091  -0.70972
 Alpha  occ. eigenvalues --   -0.67214  -0.64256  -0.62794  -0.59628  -0.53831
 Alpha  occ. eigenvalues --   -0.50328  -0.48544  -0.46440  -0.42196  -0.40244
 Alpha  occ. eigenvalues --   -0.39636  -0.37933  -0.36783  -0.36014  -0.34892
 Alpha  occ. eigenvalues --   -0.33967  -0.32572  -0.32291  -0.31349  -0.31265
 Alpha  occ. eigenvalues --   -0.28925  -0.28106  -0.27010  -0.26299  -0.24674
 Alpha  occ. eigenvalues --   -0.24489  -0.23848  -0.22937  -0.19139  -0.17440
 Alpha  occ. eigenvalues --   -0.13645  -0.13003  -0.10818   0.04848
 Alpha virt. eigenvalues --    0.07185   0.07419   0.07907   0.08761   0.09294
 Alpha virt. eigenvalues --    0.09943   0.10169   0.10454   0.11641   0.11957
 Alpha virt. eigenvalues --    0.12591   0.12816   0.13703   0.14203   0.14935

  Beta  occ. eigenvalues --  -19.06954 -14.33202 -14.23398 -14.22729 -10.11892
  Beta  occ. eigenvalues --  -10.10945 -10.10278 -10.06983 -10.06947 -10.06903
  Beta  occ. eigenvalues --  -10.06798 -10.06716 -10.06472 -10.05927 -10.04742
  Beta  occ. eigenvalues --   -0.99825  -0.99428  -0.84327  -0.74995  -0.70796
  Beta  occ. eigenvalues --   -0.67086  -0.64103  -0.62670  -0.59427  -0.53674
  Beta  occ. eigenvalues --   -0.50281  -0.48422  -0.46310  -0.42059  -0.40096
  Beta  occ. eigenvalues --   -0.39290  -0.37404  -0.36593  -0.35828  -0.34600
  Beta  occ. eigenvalues --   -0.33825  -0.32515  -0.31921  -0.31226  -0.30923
  Beta  occ. eigenvalues --   -0.28640  -0.27979  -0.26877  -0.26216  -0.24580
  Beta  occ. eigenvalues --   -0.24247  -0.23752  -0.22856  -0.18698  -0.17000
  Beta  occ. eigenvalues --   -0.13392  -0.12871  -0.10239
  Beta virt. eigenvalues --    0.07299   0.07933   0.08148   0.08765   0.09590
  Beta virt. eigenvalues --    0.10048   0.10190   0.10542   0.10971   0.11937
  Beta virt. eigenvalues --    0.12253   0.12754   0.13034   0.13923   0.14296

 Mulliken charges and spin densities:
               1          2
     1  C    1.125111  -1.665799
     2  C   -1.761586   1.672326
     3  C    0.114264  -0.214553
     4  C    0.575072   0.328243
     5  C    1.355548  -0.430675
     6  C   -0.116752  -0.093251
     7  C   -0.277587  -0.090913
     8  C   -0.239475   0.030325
     9  C   -0.517718  -0.061370
    10  C   -0.607581   0.068246
    11  O   -0.039254   0.031421
    12  C    0.730589  -1.612594
    13  N   -0.640891   0.325360
    14  N    0.455023   0.029505
    15  N   -0.126356   0.045388
    16  H   -0.035162   0.175753
    17  H   -0.693364   0.851832
    18  H    0.000253   0.136825
    19  H   -0.220111   0.382008
    20  H   -0.323508   0.491896
    21  H    0.084539   0.010057
    22  H    0.136558   0.001178
    23  H    0.120795  -0.000387
    24  H    0.105023   0.041500
    25  H   -0.346875   0.535391
    26  H    0.143450   0.012287
 Sum of Mulliken charges =  -1.00000   1.00000

 Dipole moment (field-independent basis, Debye):
    X=              7.2508    Y=              1.3417    Z=              1.2077  Tot=              7.4722
 Quadrupole moment (field-independent basis, Debye-Ang):
   XX=           -141.9031   YY=           -128.0146   ZZ=           -110.7683
   XY=            -10.4434   XZ=             -0.6409   YZ=              6.0109

 Summary of Natural Population Analysis:

                                       Natural Population
                Natural  -----------------------------------------------
    Atom  No    Charge         Core      Valence    Rydberg      Total
 -----------------------------------------------------------------------
      C    1   -0.27861      0.99966     2.27351    0.00545     3.27861
      C    2   -0.21692      0.99960     2.20787    0.00945     3.21692
      C    3    0.21730      0.99938     1.76856    0.01476     2.78270
      C    4   -0.08200      0.99940     2.07220    0.01040     3.08200
      C    5   -0.04441      0.99946     2.03534    0.00961     3.04441
      C    6   -0.07981      0.99954     2.07209    0.00818     3.07981
      C    7   -0.11806      0.99958     2.10990    0.00857     3.11806
      C    8   -0.10201      0.99959     2.09345    0.00897     3.10201
      C    9   -0.11343      0.99952     2.10530    0.00861     3.11343
      C   10    0.14903      0.99935     1.83683    0.01479     2.85097
      O   11   -0.24114      0.99985     3.23428    0.00700     4.24114
      C   12   -0.09247      0.99955     2.08034    0.01258     3.09247
      N   13   -0.20645      0.99972     2.69247    0.01426     3.70645
      N   14    0.12949      0.99970     2.35539    0.01542     3.37051
      N   15   -0.01880      0.99982     2.50551    0.01346     3.51880
      H   16    0.10285      0.00000     0.39567    0.00148     0.39715
      H   17    0.09994      0.00000     0.39707    0.00299     0.40006
      H   18    0.09587      0.00000     0.40304    0.00109     0.40413
      H   19    0.10799      0.00000     0.38978    0.00223     0.39201
      H   20    0.10642      0.00000     0.39168    0.00190     0.39358
      H   21    0.09766      0.00000     0.40073    0.00160     0.40234
      H   22    0.09525      0.00000     0.40388    0.00087     0.40475
      H   23    0.09394      0.00000     0.40519    0.00088     0.40606
      H   24    0.10272      0.00000     0.39632    0.00096     0.39728
      H   25    0.10459      0.00000     0.39373    0.00168     0.39541
      H   26    0.09105      0.00000     0.40771    0.00124     0.40895
 =======================================================================
   * Total *   -0.00000     14.99371    37.82786    0.17843    53.00000

 Normal termination of Gaussian 16 at Thu Dec 10 16:07:23 2020.
