 Gaussian 16, Revision A.03,

 -----------------------------------------------------------
 # opt freq B3LYP/6-31G(d) empiricaldispersion=gd3bj scf=xqc
 -----------------------------------------------------------

 -------------------------------
 CID_129939879_JID_1982_neutraal
 -------------------------------
 Symbolic Z-matrix:
 Charge =  0 Multiplicity = 1

 SCF Done:  E(RB3LYP) =  -568.679730447     A.U. after   15 cycles
 SCF Done:  E(RB3LYP) =  -568.685294647     A.U. after   13 cycles
 SCF Done:  E(RB3LYP) =  -568.684764406     A.U. after   14 cycles
 SCF Done:  E(RB3LYP) =  -568.686247571     A.U. after   13 cycles
 SCF Done:  E(RB3LYP) =  -568.686563978     A.U. after   13 cycles
 SCF Done:  E(RB3LYP) =  -568.686742079     A.U. after   12 cycles
 SCF Done:  E(RB3LYP) =  -568.686785218     A.U. after   12 cycles
 SCF Done:  E(RB3LYP) =  -568.686793119     A.U. after   10 cycles
 SCF Done:  E(RB3LYP) =  -568.686797582     A.U. after    9 cycles
 SCF Done:  E(RB3LYP) =  -568.686799764     A.U. after   10 cycles
 SCF Done:  E(RB3LYP) =  -568.686813103     A.U. after   12 cycles
 SCF Done:  E(RB3LYP) =  -568.686813125     A.U. after   12 cycles
 SCF Done:  E(RB3LYP) =  -568.686813329     A.U. after    9 cycles
 SCF Done:  E(RB3LYP) =  -568.686813638     A.U. after   11 cycles
 SCF Done:  E(RB3LYP) =  -568.686813628     A.U. after    8 cycles
 Optimization completed.
    -- Stationary point found.
 Normal termination of Gaussian 16 at Tue Dec  8 21:50:58 2020.

 --------------------------------------------------------------------
 #N Geom=AllCheck Guess=TCheck SCRF=Check GenChk RB3LYP/6-31G(d) Freq
 --------------------------------------------------------------------

 Structure from the checkpoint file:  "JID_1982.chk"
 -------------------------------
 CID_129939879_JID_1982_neutraal
 -------------------------------
 Charge =  0 Multiplicity = 1

 SCF Done:  E(RB3LYP) =  -568.686813628     A.U. after    1 cycles

  Exact polarizability:  97.388   2.024  78.505   8.666  -2.928  59.041
 Approx polarizability: 142.542   3.953 121.001  20.799  -0.942  89.929

                      1                      2                      3
                      A                      A                      A
 Frequencies --     25.8939                49.7284                94.4586
 Red. masses --      4.6951                 4.5625                 4.6498
 Frc consts  --      0.0019                 0.0066                 0.0244
 IR Inten    --      8.4122                 1.6417                 3.7598

                      4                      5                      6
                      A                      A                      A
 Frequencies --    126.1648               162.2419               217.2986
 Red. masses --      8.6451                 3.8766                 5.5138
 Frc consts  --      0.0811                 0.0601                 0.1534
 IR Inten    --      1.7880                 1.2201                 6.0097

                      7                      8                      9
                      A                      A                      A
 Frequencies --    287.0240               348.2411               380.2027
 Red. masses --      2.4212                 2.9878                 8.7728
 Frc consts  --      0.1175                 0.2135                 0.7472
 IR Inten    --      2.8297                 3.5653                18.7410

                     10                     11                     12
                      A                      A                      A
 Frequencies --    478.0158               489.6295               529.7113
 Red. masses --      3.0234                 3.7204                 3.9293
 Frc consts  --      0.4070                 0.5255                 0.6496
 IR Inten    --     11.5265                11.9041                30.3223

                     13                     14                     15
                      A                      A                      A
 Frequencies --    560.0912               580.4449               678.8900
 Red. masses --      2.5083                 2.2136                 1.2665
 Frc consts  --      0.4636                 0.4394                 0.3439
 IR Inten    --     53.5048                21.1395                69.3090

                     16                     17                     18
                      A                      A                      A
 Frequencies --    719.8743               747.6869               759.4460
 Red. masses --      3.0696                 3.5917                 8.7983
 Frc consts  --      0.9372                 1.1830                 2.9898
 IR Inten    --     39.0240                 8.0881                63.3501

                     19                     20                     21
                      A                      A                      A
 Frequencies --    807.0027               876.7077               925.5119
 Red. masses --      2.2823                 2.3617                 2.3290
 Frc consts  --      0.8757                 1.0695                 1.1754
 IR Inten    --      5.9728                 3.6939                 0.5694

                     22                     23                     24
                      A                      A                      A
 Frequencies --    959.0343              1001.9267              1046.1949
 Red. masses --      2.8762                 2.1898                 2.2980
 Frc consts  --      1.5586                 1.2952                 1.4819
 IR Inten    --      0.9064                 2.8870                33.4495

                     25                     26                     27
                      A                      A                      A
 Frequencies --   1087.9494              1119.5672              1142.8158
 Red. masses --      2.5577                 2.4394                 1.8417
 Frc consts  --      1.7837                 1.8015                 1.4172
 IR Inten    --     16.8494                 2.1347                47.0446

                     28                     29                     30
                      A                      A                      A
 Frequencies --   1213.0915              1246.4120              1279.5353
 Red. masses --      1.4451                 2.1377                 1.1880
 Frc consts  --      1.2530                 1.9567                 1.1460
 IR Inten    --     57.9071                54.1918                 1.0152

                     31                     32                     33
                      A                      A                      A
 Frequencies --   1308.1604              1346.4545              1363.6361
 Red. masses --      1.5920                 1.5380                 1.3860
 Frc consts  --      1.6051                 1.6428                 1.5185
 IR Inten    --     66.7282                36.0055                 1.7317

                     34                     35                     36
                      A                      A                      A
 Frequencies --   1399.5430              1421.7662              1437.6451
 Red. masses --      1.9607                 2.1322                 1.7388
 Frc consts  --      2.2627                 2.5394                 2.1174
 IR Inten    --     92.8800                54.5620                64.1335

                     37                     38                     39
                      A                      A                      A
 Frequencies --   1452.0229              1483.4647              1494.8680
 Red. masses --      1.2642                 1.9581                 1.1115
 Frc consts  --      1.5704                 2.5389                 1.4633
 IR Inten    --     16.0240                72.3031                12.8187

                     40                     41                     42
                      A                      A                      A
 Frequencies --   1541.9682              1813.9961              1829.7879
 Red. masses --      1.1192                 9.5581                 9.2983
 Frc consts  --      1.5678                18.5308                18.3424
 IR Inten    --     22.4934               347.4746               245.4518

                     43                     44                     45
                      A                      A                      A
 Frequencies --   1846.9423              2976.8987              3017.7658
 Red. masses --      8.3235                 1.0862                 1.0718
 Frc consts  --     16.7288                 5.6713                 5.7507
 IR Inten    --    444.5301                51.6148                48.4409

                     46                     47                     48
                      A                      A                      A
 Frequencies --   3047.6539              3100.8509              3114.2561
 Red. masses --      1.0631                 1.0859                 1.0983
 Frc consts  --      5.8178                 6.1516                 6.2760
 IR Inten    --      3.9964                 7.3823                 2.3721

                     49                     50                     51
                      A                      A                      A
 Frequencies --   3118.3778              3600.6314              3625.7834
 Red. masses --      1.0949                 1.0773                 1.0772
 Frc consts  --      6.2732                 8.2288                 8.3432
 IR Inten    --     26.9328                60.4084                44.8177

 - Thermochemistry -
 -------------------
 Temperature   298.150 Kelvin.  Pressure   1.00000 Atm.
 Atom     1 has atomic number  6 and mass  12.00000

 Molecular mass:   156.05349 amu.
 Principal axes and moments of inertia in atomic units:
                           1         2         3
     Eigenvalues --   898.271202539.900412892.76587
           X            0.99998   0.00318  -0.00515
           Y           -0.00346   0.99840  -0.05645
           Z            0.00497   0.05647   0.99839
 This molecule is an asymmetric top.
 Rotational symmetry number  1.
 Warning -- assumption of classical behavior for rotation
           may cause significant error
 Rotational temperatures (Kelvin)      0.09642     0.03410     0.02994
 Rotational constants (GHZ):           2.00913     0.71056     0.62388
 Zero-point vibrational energy     390480.6 (Joules/Mol)
                                   93.32711 (Kcal/Mol)
 Warning -- explicit consideration of  14 degrees of freedom as
           vibrations may cause significant error
 Vibrational temperatures:     37.26    71.55   135.90   181.52   233.43
          (Kelvin)            312.64   412.96   501.04   547.03   687.76
                              704.47   762.14   805.85   835.13   976.77
                             1035.74  1075.75  1092.67  1161.10  1261.39
                             1331.61  1379.84  1441.55  1505.24  1565.32
                             1610.81  1644.26  1745.37  1793.31  1840.97
                             1882.15  1937.25  1961.97  2013.63  2045.60
                             2068.45  2089.14  2134.37  2150.78  2218.55
                             2609.94  2632.66  2657.34  4283.09  4341.89
                             4384.89  4461.43  4480.72  4486.65  5180.51
                             5216.69

 Zero-point correction=                           0.148726 (Hartree/Particle)
 Thermal correction to Energy=                    0.158920
 Thermal correction to Enthalpy=                  0.159864
 Thermal correction to Gibbs Free Energy=         0.111226
 Sum of electronic and zero-point Energies=           -568.538087
 Sum of electronic and thermal Energies=              -568.527894
 Sum of electronic and thermal Enthalpies=            -568.526949
 Sum of electronic and thermal Free Energies=         -568.575587

                     E (Thermal)             CV                S
                      KCal/Mol        Cal/Mol-Kelvin    Cal/Mol-Kelvin
 Total                   99.724             36.529            102.367
 Electronic               0.000              0.000              0.000
 Translational            0.889              2.981             41.045
 Rotational               0.889              2.981             30.269
 Vibrational             97.946             30.568             31.054
 Vibration     1          0.593              1.985              6.121
 Vibration     2          0.595              1.978              4.828
 Vibration     3          0.603              1.953              3.566
 Vibration     4          0.611              1.927              3.004
 Vibration     5          0.622              1.889              2.523
 Vibration     6          0.646              1.815              1.981
 Vibration     7          0.684              1.698              1.491
 Vibration     8          0.726              1.579              1.174
 Vibration     9          0.750              1.512              1.038
 Vibration    10          0.835              1.299              0.715
 Vibration    11          0.845              1.273              0.685
 Vibration    12          0.885              1.184              0.588
 Vibration    13          0.916              1.118              0.524
 Vibration    14          0.937              1.074              0.485

 Optimization completed.
    -- Stationary point found.
 Normal termination of Gaussian 16 at Tue Dec  8 21:54:44 2020.

 ----------------------------------------------------------------------
 # B3LYP/6-311++G(d,p) empiricaldispersion=gd3bj scf=xqc pop=npa geom=c
 heck
 ----------------------------------------------------------------------

 ---------------------------------------
 CID_129939879_JID_1982_Energie_neutraal
 ---------------------------------------
 Structure from the checkpoint file:  "JID_1982.chk"
 Charge =  0 Multiplicity = 1

 SCF Done:  E(RB3LYP) =  -568.864249784     A.U. after   14 cycles
 Normal termination of Gaussian 16 at Tue Dec  8 21:55:50 2020.

 ----------------------------------------------------------------------
 # B3LYP/6-311++G(d,p) empiricaldispersion=gd3bj scf=xqc pop=npa geom=c
 heck
 ----------------------------------------------------------------------

 -------------------------------------
 CID_129939879_JID_1982_Energie_kation
 -------------------------------------
 Structure from the checkpoint file:  "JID_1982.chk"
 Charge =  1 Multiplicity = 2

 SCF Done:  E(UB3LYP) =  -568.515954192     A.U. after   28 cycles
 Normal termination of Gaussian 16 at Tue Dec  8 21:59:44 2020.
 Gaussian 16:  ES64L-G16RevA.03 25-Dec-2016

 ----------------------------------------------------------------------
 # B3LYP/6-311++G(d,p) empiricaldispersion=gd3bj scf=xqc pop=npa geom=c
 heck
 ----------------------------------------------------------------------

 ------------------------------------
 CID_129939879_JID_1982_Energie_anion
 ------------------------------------
 Structure from the checkpoint file:  "JID_1982.chk"
 Charge = -1 Multiplicity = 2

                         Standard orientation:
 ---------------------------------------------------------------------
 Center     Atomic      Atomic             Coordinates (Angstroms)
 Number     Number       Type             X           Y           Z
 ---------------------------------------------------------------------
      1          6           0       -0.624714   -1.241224    1.161085
      2          6           0        0.507114   -0.265850    0.821872
      3          6           0       -0.069566    1.097857    0.453682
      4          8           0        0.527317    2.148277    0.603243
      5          7           0       -1.327522    1.053351   -0.126335
      6          6           0       -2.110517   -0.080304   -0.423330
      7          8           0       -3.128308    0.009740   -1.084186
      8          7           0       -1.597428   -1.250386    0.074727
      9          6           0        1.394716   -0.796053   -0.331853
     10          6           0        2.637633    0.039751   -0.576763
     11          8           0        3.751518   -0.434711   -0.619662
     12          1           0       -0.227993   -2.252803    1.279567
     13          1           0       -1.091806   -0.948714    2.113615
     14          1           0        1.125401   -0.112576    1.711367
     15          1           0       -1.703247    1.930937   -0.468004
     16          1           0       -2.232569   -2.032541   -0.009679
     17          1           0        1.719800   -1.818015   -0.112468
     18          1           0        0.802176   -0.824018   -1.256819
     19          1           0        2.470679    1.125472   -0.719635
 ---------------------------------------------------------------------

 SCF Done:  E(UB3LYP) =  -568.861546239     A.U. after   33 cycles
 SCF Done:  E(UB3LYP) =  -568.861546239     a.u. after    1 cycles

 The electronic state is 2-A.
 Alpha  occ. eigenvalues --  -19.00579 -18.99610 -18.99013 -14.25935 -14.23546
 Alpha  occ. eigenvalues --  -10.20871 -10.18599 -10.12318 -10.11260 -10.09698
 Alpha  occ. eigenvalues --  -10.07494  -0.97012  -0.95009  -0.92289  -0.85378
 Alpha  occ. eigenvalues --   -0.81024  -0.71039  -0.61760  -0.56720  -0.55025
 Alpha  occ. eigenvalues --   -0.48311  -0.46517  -0.42890  -0.39937  -0.38538
 Alpha  occ. eigenvalues --   -0.37002  -0.35519  -0.34096  -0.33620  -0.33011
 Alpha  occ. eigenvalues --   -0.30947  -0.29996  -0.28505  -0.27603  -0.27044
 Alpha  occ. eigenvalues --   -0.24268  -0.19318  -0.18821  -0.16852  -0.16137
 Alpha  occ. eigenvalues --   -0.13419   0.04605
 Alpha virt. eigenvalues --    0.06638   0.07782   0.08641   0.09057   0.10019
 Alpha virt. eigenvalues --    0.11292   0.11891   0.12574   0.13277   0.14022
 Alpha virt. eigenvalues --    0.14907   0.16236   0.16867   0.17054   0.17770

  Beta  occ. eigenvalues --  -19.00512 -18.99602 -18.98763 -14.25919 -14.23481
  Beta  occ. eigenvalues --  -10.20861 -10.18521 -10.12099 -10.11208 -10.09674
  Beta  occ. eigenvalues --  -10.07505  -0.96949  -0.94917  -0.91817  -0.85318
  Beta  occ. eigenvalues --   -0.80942  -0.70930  -0.61564  -0.56567  -0.54919
  Beta  occ. eigenvalues --   -0.48144  -0.46132  -0.42767  -0.39811  -0.38421
  Beta  occ. eigenvalues --   -0.36838  -0.35352  -0.33967  -0.33387  -0.32852
  Beta  occ. eigenvalues --   -0.30675  -0.29896  -0.28283  -0.27266  -0.26700
  Beta  occ. eigenvalues --   -0.23490  -0.19232  -0.18699  -0.16764  -0.16043
  Beta  occ. eigenvalues --   -0.13219
  Beta virt. eigenvalues --    0.07680   0.08109   0.09160   0.09663   0.09722
  Beta virt. eigenvalues --    0.10600   0.11592   0.12368   0.12952   0.13335
  Beta virt. eigenvalues --    0.14394   0.14820   0.16294   0.17025   0.17265

 Mulliken charges and spin densities:
               1          2
     1  C    2.533388  -3.034627
     2  C   -1.104971   1.584960
     3  C    0.158415  -0.279563
     4  O   -0.327918   0.020133
     5  N   -0.312107  -0.015178
     6  C    0.385332  -0.142205
     7  O   -0.399195   0.021335
     8  N   -0.509823   0.270603
     9  C    0.238450  -0.575642
    10  C   -0.352791   0.310763
    11  O   -0.318556   0.072038
    12  H   -1.075315   1.281354
    13  H   -0.400880   0.579314
    14  H    0.191840   0.064009
    15  H    0.303395   0.027042
    16  H   -0.386243   0.742547
    17  H    0.162591   0.013594
    18  H    0.108058   0.061995
    19  H    0.106328  -0.002473
 Sum of Mulliken charges =  -1.00000   1.00000

 Dipole moment (field-independent basis, Debye):
    X=              0.3753    Y=              5.0000    Z=             -1.4526  Tot=              5.2202
 Quadrupole moment (field-independent basis, Debye-Ang):
   XX=           -124.5925   YY=           -104.5029   ZZ=            -86.5511
   XY=            -10.0358   XZ=              1.3878   YZ=              4.5155

 Summary of Natural Population Analysis:

                                       Natural Population
                Natural  -----------------------------------------------
    Atom  No    Charge         Core      Valence    Rydberg      Total
 -----------------------------------------------------------------------
      C    1   -0.08444      0.99960     2.07177    0.01307     3.08444
      C    2   -0.15033      0.99955     2.13955    0.01123     3.15033
      C    3    0.36275      0.99965     1.61190    0.02570     2.63725
      O    4   -0.30248      0.99987     3.29663    0.00597     4.30248
      N    5   -0.33415      0.99964     2.82629    0.00822     3.83415
      C    6    0.41052      0.99969     1.56659    0.02320     2.58948
      O    7   -0.32525      0.99987     3.31952    0.00586     4.32525
      N    8   -0.32452      0.99968     2.81340    0.01144     3.82452
      C    9   -0.23669      0.99960     2.22730    0.00979     3.23669
      C   10    0.24695      0.99974     1.73280    0.02051     2.75305
      O   11   -0.26303      0.99988     3.25641    0.00674     4.26303
      H   12    0.11130      0.00000     0.38005    0.00864     0.38870
      H   13    0.09325      0.00000     0.40470    0.00205     0.40675
      H   14    0.11548      0.00000     0.38328    0.00124     0.38452
      H   15    0.20266      0.00000     0.29505    0.00228     0.29734
      H   16    0.20792      0.00000     0.28122    0.01086     0.29208
      H   17    0.10985      0.00000     0.38890    0.00125     0.39015
      H   18    0.11054      0.00000     0.38809    0.00138     0.38946
      H   19    0.04966      0.00000     0.44857    0.00178     0.45034
 =======================================================================
   * Total *   -0.00000     10.99677    29.83201    0.17122    41.00000

 Normal termination of Gaussian 16 at Tue Dec  8 22:04:27 2020.
