 Gaussian 16, Revision A.03,

 -----------------------------------------------------------
 # opt freq B3LYP/6-31G(d) empiricaldispersion=gd3bj scf=xqc
 -----------------------------------------------------------

 -------------------------------
 CID_119873495_JID_6850_neutraal
 -------------------------------
 Symbolic Z-matrix:
 Charge =  0 Multiplicity = 1

 SCF Done:  E(RB3LYP) =  -1067.13263901     A.U. after   15 cycles
 SCF Done:  E(RB3LYP) =  -1067.13170472     A.U. after   15 cycles
 SCF Done:  E(RB3LYP) =  -1067.13686443     A.U. after   12 cycles
 SCF Done:  E(RB3LYP) =  -1067.13808241     A.U. after   13 cycles
 SCF Done:  E(RB3LYP) =  -1067.13734488     A.U. after   13 cycles
 SCF Done:  E(RB3LYP) =  -1067.13815905     A.U. after   12 cycles
 SCF Done:  E(RB3LYP) =  -1067.13914387     A.U. after   12 cycles
 SCF Done:  E(RB3LYP) =  -1067.13935132     A.U. after   12 cycles
 SCF Done:  E(RB3LYP) =  -1067.13941055     A.U. after   12 cycles
 SCF Done:  E(RB3LYP) =  -1067.13942725     A.U. after   11 cycles
 SCF Done:  E(RB3LYP) =  -1067.13943401     A.U. after    9 cycles
 SCF Done:  E(RB3LYP) =  -1067.13943553     A.U. after    8 cycles
 SCF Done:  E(RB3LYP) =  -1067.13943603     A.U. after    8 cycles
 SCF Done:  E(RB3LYP) =  -1067.13943626     A.U. after    7 cycles
 SCF Done:  E(RB3LYP) =  -1067.13943638     A.U. after    7 cycles
 Optimization completed.
    -- Stationary point found.
 Normal termination of Gaussian 16 at Fri Dec 11 00:55:49 2020.

 --------------------------------------------------------------------
 #N Geom=AllCheck Guess=TCheck SCRF=Check GenChk RB3LYP/6-31G(d) Freq
 --------------------------------------------------------------------

 Structure from the checkpoint file:  "JID_6850.chk"
 -------------------------------
 CID_119873495_JID_6850_neutraal
 -------------------------------
 Charge =  0 Multiplicity = 1

 SCF Done:  E(RB3LYP) =  -1067.13943638     A.U. after    1 cycles

  Exact polarizability: 171.163   6.864 134.686  -0.958   4.254 129.200
 Approx polarizability: 245.590   2.040 204.686  -1.949  20.031 225.352

                      1                      2                      3
                      A                      A                      A
 Frequencies --     54.8239                71.7816                75.0827
 Red. masses --      5.9826                 4.7454                 6.8080
 Frc consts  --      0.0106                 0.0144                 0.0226
 IR Inten    --      1.9623                 1.4506                 0.7448

                      4                      5                      6
                      A                      A                      A
 Frequencies --     85.1073                99.3604               111.7950
 Red. masses --      4.2882                 4.4658                 4.2787
 Frc consts  --      0.0183                 0.0260                 0.0315
 IR Inten    --      0.3790                 1.2286                 1.6108

                      7                      8                      9
                      A                      A                      A
 Frequencies --    135.9548               191.3828               234.4458
 Red. masses --      3.0996                 3.0563                 2.6334
 Frc consts  --      0.0338                 0.0660                 0.0853
 IR Inten    --      0.7109                 2.1375                 1.1075

                     10                     11                     12
                      A                      A                      A
 Frequencies --    260.5115               277.5575               288.9851
 Red. masses --      4.8688                 3.2019                 3.0954
 Frc consts  --      0.1947                 0.1453                 0.1523
 IR Inten    --      0.3213                 2.0576                 6.7116

                     13                     14                     15
                      A                      A                      A
 Frequencies --    334.5556               386.8450               401.6553
 Red. masses --      3.5586                 2.9356                 1.1232
 Frc consts  --      0.2347                 0.2588                 0.1068
 IR Inten    --      5.4263                 3.4749                36.5427

                     16                     17                     18
                      A                      A                      A
 Frequencies --    428.1674               440.4281               465.8976
 Red. masses --      2.9011                 2.6244                 2.5150
 Frc consts  --      0.3134                 0.2999                 0.3216
 IR Inten    --      2.6442                 5.6745                 3.1944

                     19                     20                     21
                      A                      A                      A
 Frequencies --    496.5708               518.6752               546.5229
 Red. masses --      3.4579                 4.5043                 2.0301
 Frc consts  --      0.5024                 0.7139                 0.3573
 IR Inten    --      7.6973                 2.1594                 7.4653

                     22                     23                     24
                      A                      A                      A
 Frequencies --    611.3361               614.7813               646.1489
 Red. masses --      5.0632                 4.4256                 4.6774
 Frc consts  --      1.1149                 0.9855                 1.1506
 IR Inten    --      6.9347                13.1201                 3.1594

                     25                     26                     27
                      A                      A                      A
 Frequencies --    694.4384               740.8939               752.3640
 Red. masses --      3.0426                 1.3837                 2.4991
 Frc consts  --      0.8645                 0.4475                 0.8335
 IR Inten    --      6.8358                25.6330                 6.0774

                     28                     29                     30
                      A                      A                      A
 Frequencies --    755.8735               813.7110               834.4403
 Red. masses --      5.9074                 3.1202                 2.2041
 Frc consts  --      1.9886                 1.2172                 0.9042
 IR Inten    --      3.7288                11.2520                 1.3301

                     31                     32                     33
                      A                      A                      A
 Frequencies --    852.9962               867.8176               878.8042
 Red. masses --      1.5992                 1.8701                 2.7486
 Frc consts  --      0.6855                 0.8298                 1.2507
 IR Inten    --     46.9824                62.1077                51.6557

                     34                     35                     36
                      A                      A                      A
 Frequencies --    891.1833               898.0493               917.8506
 Red. masses --      4.0673                 1.3170                 2.2682
 Frc consts  --      1.9032                 0.6258                 1.1258
 IR Inten    --      1.0519                 2.0500                 2.7068

                     37                     38                     39
                      A                      A                      A
 Frequencies --    942.2539               947.3168               978.9734
 Red. masses --      2.1522                 1.8930                 1.6955
 Frc consts  --      1.1258                 1.0009                 0.9574
 IR Inten    --     75.7688                 5.8417                18.1375

                     40                     41                     42
                      A                      A                      A
 Frequencies --   1000.0693              1024.3841              1072.6991
 Red. masses --      2.0939                 2.3779                 2.5709
 Frc consts  --      1.2338                 1.4702                 1.7430
 IR Inten    --     21.6565                62.6210                 8.7390

                     43                     44                     45
                      A                      A                      A
 Frequencies --   1083.8059              1090.2976              1105.2354
 Red. masses --      1.7174                 1.8779                 1.6862
 Frc consts  --      1.1886                 1.3153                 1.2136
 IR Inten    --      1.9094                19.5227                 2.9613

                     46                     47                     48
                      A                      A                      A
 Frequencies --   1113.4264              1131.9377              1168.5002
 Red. masses --      1.9354                 2.7967                 1.5789
 Frc consts  --      1.4137                 2.1113                 1.2702
 IR Inten    --     21.3454                13.6625                24.2074

                     49                     50                     51
                      A                      A                      A
 Frequencies --   1174.3490              1203.0780              1232.5303
 Red. masses --      2.3219                 1.4069                 2.2337
 Frc consts  --      1.8867                 1.1998                 1.9993
 IR Inten    --      9.8068                 2.2676                13.1938

                     52                     53                     54
                      A                      A                      A
 Frequencies --   1249.6243              1258.0819              1277.4077
 Red. masses --      1.7803                 1.5339                 1.4450
 Frc consts  --      1.6379                 1.4304                 1.3893
 IR Inten    --    113.7126                28.4048                32.9811

                     55                     56                     57
                      A                      A                      A
 Frequencies --   1306.1915              1341.9308              1349.2014
 Red. masses --      1.2786                 1.4043                 1.4276
 Frc consts  --      1.2853                 1.4900                 1.5312
 IR Inten    --     20.4773                25.7640                 2.2293

                     58                     59                     60
                      A                      A                      A
 Frequencies --   1360.3576              1372.1131              1385.2683
 Red. masses --      1.7199                 1.4128                 1.4068
 Frc consts  --      1.8752                 1.5671                 1.5906
 IR Inten    --      2.6333                14.7154                 3.5563

                     61                     62                     63
                      A                      A                      A
 Frequencies --   1393.7975              1405.1404              1408.8831
 Red. masses --      1.3555                 1.2994                 1.4360
 Frc consts  --      1.5515                 1.5116                 1.6794
 IR Inten    --      3.9366                 7.0818                21.8692

                     64                     65                     66
                      A                      A                      A
 Frequencies --   1413.2564              1418.5438              1466.5216
 Red. masses --      1.4360                 1.1833                 1.6547
 Frc consts  --      1.6898                 1.4029                 2.0968
 IR Inten    --      5.2833                 1.8047                56.8036

                     67                     68                     69
                      A                      A                      A
 Frequencies --   1494.8721              1506.4271              1508.0696
 Red. masses --      4.4189                 1.0927                 1.1580
 Frc consts  --      5.8179                 1.4610                 1.5516
 IR Inten    --      4.6768                 2.4021                 8.0236

                     70                     71                     72
                      A                      A                      A
 Frequencies --   1511.4981              1516.1130              1522.0782
 Red. masses --      1.1555                 1.0842                 1.1237
 Frc consts  --      1.5554                 1.4684                 1.5339
 IR Inten    --     16.0231                 7.7454                16.4874

                     73                     74                     75
                      A                      A                      A
 Frequencies --   1529.7529              1573.4045              1712.7611
 Red. masses --      1.1094                 6.3586                 1.1134
 Frc consts  --      1.5297                 9.2745                 1.9245
 IR Inten    --      8.9175                27.2596                17.6330

                     76                     77                     78
                      A                      A                      A
 Frequencies --   1735.5782              3021.3610              3024.4764
 Red. masses --      8.0442                 1.0803                 1.0710
 Frc consts  --     14.2764                 5.8102                 5.7720
 IR Inten    --    239.2497                 2.2763                37.8243

                     79                     80                     81
                      A                      A                      A
 Frequencies --   3046.0680              3053.2064              3056.1737
 Red. masses --      1.0729                 1.0670                 1.0616
 Frc consts  --      5.8654                 5.8602                 5.8422
 IR Inten    --     42.8837                32.4817                25.3692

                     82                     83                     84
                      A                      A                      A
 Frequencies --   3066.0739              3076.8878              3086.3459
 Red. masses --      1.0740                 1.0724                 1.0831
 Frc consts  --      5.9485                 5.9815                 6.0787
 IR Inten    --     35.5767                20.2539                37.8320

                     85                     86                     87
                      A                      A                      A
 Frequencies --   3101.4909              3116.0826              3128.4889
 Red. masses --      1.1037                 1.0995                 1.1024
 Frc consts  --      6.2553                 6.2903                 6.3573
 IR Inten    --     42.6979                14.9078                24.4434

                     88                     89                     90
                      A                      A                      A
 Frequencies --   3179.3371              3217.5173              3241.6797
 Red. masses --      1.0927                 1.0859                 1.0916
 Frc consts  --      6.5077                 6.6232                 6.7587
 IR Inten    --      4.7219                14.9094                 6.2704

                     91                     92                     93
                      A                      A                      A
 Frequencies --   3284.0526              3464.1330              3554.7829
 Red. masses --      1.0983                 1.0492                 1.0930
 Frc consts  --      6.9792                 7.4182                 8.1375
 IR Inten    --      1.1178                10.5219                12.7526

 - Thermochemistry -
 -------------------
 Temperature   298.150 Kelvin.  Pressure   1.00000 Atm.
 Atom     1 has atomic number  6 and mass  12.00000

 Molecular mass:   239.10923 amu.
 Principal axes and moments of inertia in atomic units:
                           1         2         3
     Eigenvalues --  2748.590674404.118845269.07004
           X            0.99845   0.05537  -0.00491
           Y           -0.05542   0.99839  -0.01195
           Z            0.00424   0.01221   0.99992
 This molecule is an asymmetric top.
 Rotational symmetry number  1.
 Warning -- assumption of classical behavior for rotation
           may cause significant error
 Rotational temperatures (Kelvin)      0.03151     0.01967     0.01644
 Rotational constants (GHZ):           0.65661     0.40978     0.34252
 Zero-point vibrational energy     739774.8 (Joules/Mol)
                                  176.81041 (Kcal/Mol)
 Warning -- explicit consideration of  23 degrees of freedom as
           vibrations may cause significant error
 Vibrational temperatures:     78.88   103.28   108.03   122.45   142.96
          (Kelvin)            160.85   195.61   275.36   337.32   374.82
                              399.34   415.79   481.35   556.58   577.89
                              616.04   633.68   670.32   714.45   746.26
                              786.32   879.58   884.53   929.66   999.14
                             1065.98  1082.48  1087.53  1170.75  1200.57
                             1227.27  1248.60  1264.40  1282.21  1292.09
                             1320.58  1355.69  1362.98  1408.52  1438.88
                             1473.86  1543.37  1559.35  1568.70  1590.19
                             1601.97  1628.61  1681.21  1689.63  1730.96
                             1773.34  1797.93  1810.10  1837.90  1879.32
                             1930.74  1941.20  1957.25  1974.16  1993.09
                             2005.36  2021.68  2027.07  2033.36  2040.97
                             2110.00  2150.79  2167.41  2169.78  2174.71
                             2181.35  2189.93  2200.97  2263.78  2464.28
                             2497.11  4347.06  4351.55  4382.61  4392.88
                             4397.15  4411.40  4426.96  4440.56  4462.35
                             4483.35  4501.20  4574.36  4629.29  4664.05
                             4725.02  4984.11  5114.54

 Zero-point correction=                           0.281765 (Hartree/Particle)
 Thermal correction to Energy=                    0.296682
 Thermal correction to Enthalpy=                  0.297626
 Thermal correction to Gibbs Free Energy=         0.239560
 Sum of electronic and zero-point Energies=          -1066.857671
 Sum of electronic and thermal Energies=             -1066.842755
 Sum of electronic and thermal Enthalpies=           -1066.841811
 Sum of electronic and thermal Free Energies=        -1066.899876

                     E (Thermal)             CV                S
                      KCal/Mol        Cal/Mol-Kelvin    Cal/Mol-Kelvin
 Total                  186.170             58.099            122.209
 Electronic               0.000              0.000              0.000
 Translational            0.889              2.981             42.317
 Rotational               0.889              2.981             32.522
 Vibrational            184.393             52.137             47.370
 Vibration     1          0.596              1.976              4.635
 Vibration     2          0.598              1.967              4.104
 Vibration     3          0.599              1.966              4.015
 Vibration     4          0.601              1.960              3.770
 Vibration     5          0.604              1.950              3.467
 Vibration     6          0.607              1.940              3.238
 Vibration     7          0.614              1.917              2.860
 Vibration     8          0.634              1.852              2.214
 Vibration     9          0.654              1.788              1.845
 Vibration    10          0.669              1.745              1.658
 Vibration    11          0.679              1.715              1.549
 Vibration    12          0.686              1.694              1.480
 Vibration    13          0.716              1.606              1.238
 Vibration    14          0.755              1.498              1.012
 Vibration    15          0.767              1.467              0.957
 Vibration    16          0.790              1.409              0.865
 Vibration    17          0.800              1.382              0.825
 Vibration    18          0.823              1.326              0.749
 Vibration    19          0.852              1.258              0.667
 Vibration    20          0.874              1.209              0.613
 Vibration    21          0.902              1.147              0.551
 Vibration    22          0.970              1.008              0.431
 Vibration    23          0.974              1.001              0.425

 Optimization completed.
    -- Stationary point found.
 Normal termination of Gaussian 16 at Fri Dec 11 01:08:24 2020.

 ----------------------------------------------------------------------
 # B3LYP/6-311++G(d,p) empiricaldispersion=gd3bj scf=xqc pop=npa geom=c
 heck
 ----------------------------------------------------------------------

 ---------------------------------------
 CID_119873495_JID_6850_Energie_neutraal
 ---------------------------------------
 Structure from the checkpoint file:  "JID_6850.chk"
 Charge =  0 Multiplicity = 1

 SCF Done:  E(RB3LYP) =  -1067.35534250     A.U. after   15 cycles
 Normal termination of Gaussian 16 at Fri Dec 11 01:14:26 2020.

 ----------------------------------------------------------------------
 # B3LYP/6-311++G(d,p) empiricaldispersion=gd3bj scf=xqc pop=npa geom=c
 heck
 ----------------------------------------------------------------------

 -------------------------------------
 CID_119873495_JID_6850_Energie_kation
 -------------------------------------
 Structure from the checkpoint file:  "JID_6850.chk"
 Charge =  1 Multiplicity = 2

 SCF Done:  E(UB3LYP) =  -1067.05110597     A.U. after   31 cycles
 Normal termination of Gaussian 16 at Fri Dec 11 01:32:15 2020.
 Gaussian 16:  ES64L-G16RevA.03 25-Dec-2016

 ----------------------------------------------------------------------
 # B3LYP/6-311++G(d,p) empiricaldispersion=gd3bj scf=xqc pop=npa geom=c
 heck
 ----------------------------------------------------------------------

 ------------------------------------
 CID_119873495_JID_6850_Energie_anion
 ------------------------------------
 Structure from the checkpoint file:  "JID_6850.chk"
 Charge = -1 Multiplicity = 2

                         Standard orientation:
 ---------------------------------------------------------------------
 Center     Atomic      Atomic             Coordinates (Angstroms)
 Number     Number       Type             X           Y           Z
 ---------------------------------------------------------------------
      1          6           0       -2.347876   -1.830115    1.281224
      2          6           0       -3.166598   -1.078854    0.222835
      3          6           0       -2.384762   -0.972266   -1.089784
      4          7           0       -1.079959   -0.320475   -0.869233
      5          6           0       -0.256412   -1.151231    0.043942
      6          6           0       -0.933442   -1.251147    1.423443
      7          6           0        1.197786   -0.789398    0.148508
      8          7           0        1.752813   -0.218147    1.180798
      9          6           0        3.099826   -0.014585    0.980002
     10          6           0        3.589411   -0.439723   -0.221492
     11         16           0        2.315195   -1.144584   -1.161545
     12          6           0       -1.099796    1.068112   -0.969215
     13          8           0       -2.139049    1.647856   -1.276177
     14          6           0        0.160352    1.904163   -0.805961
     15          6           0        0.002984    2.941250    0.327476
     16          7           0       -0.211483    2.412870    1.673284
     17          1           0       -2.857889   -1.809019    2.251232
     18          1           0       -2.269803   -2.888567    0.991982
     19          1           0       -4.124185   -1.584058    0.048167
     20          1           0       -3.393542   -0.061743    0.563422
     21          1           0       -2.186849   -1.970090   -1.502481
     22          1           0       -2.929670   -0.387322   -1.827849
     23          1           0       -0.285552   -2.152046   -0.408287
     24          1           0       -0.965262   -0.250069    1.863421
     25          1           0       -0.321662   -1.872841    2.085201
     26          1           0        3.684017    0.458116    1.760291
     27          1           0        4.603354   -0.387534   -0.592228
     28          1           0        1.066819    1.325202   -0.661619
     29          1           0        0.268298    2.440189   -1.757404
     30          1           0        0.905330    3.564818    0.342206
     31          1           0       -0.838295    3.596569    0.083512
     32          1           0        0.456506    1.669417    1.875975
     33          1           0       -1.140784    2.002506    1.738796
 ---------------------------------------------------------------------

 SCF Done:  E(UB3LYP) =  -1067.35462036     A.U. after   32 cycles

 The electronic state is 2-A.
 Alpha  occ. eigenvalues --  -88.73595 -18.97567 -14.22498 -14.17717 -14.17079
 Alpha  occ. eigenvalues --  -10.15850 -10.10315 -10.08677 -10.08566 -10.07733
 Alpha  occ. eigenvalues --  -10.06770 -10.06273 -10.06140 -10.05739 -10.05666
 Alpha  occ. eigenvalues --  -10.05630  -7.82259  -5.78532  -5.78191  -5.77889
 Alpha  occ. eigenvalues --   -0.92845  -0.83231  -0.81540  -0.77049  -0.69089
 Alpha  occ. eigenvalues --   -0.66628  -0.65870  -0.63875  -0.60341  -0.56677
 Alpha  occ. eigenvalues --   -0.52533  -0.51179  -0.48352  -0.45507  -0.44211
 Alpha  occ. eigenvalues --   -0.40668  -0.38894  -0.37248  -0.37019  -0.35994
 Alpha  occ. eigenvalues --   -0.35109  -0.33860  -0.32641  -0.32509  -0.31176
 Alpha  occ. eigenvalues --   -0.30521  -0.29941  -0.28435  -0.27706  -0.27500
 Alpha  occ. eigenvalues --   -0.25712  -0.25367  -0.24366  -0.23340  -0.23177
 Alpha  occ. eigenvalues --   -0.22762  -0.22162  -0.21647  -0.15619  -0.15012
 Alpha  occ. eigenvalues --   -0.14684  -0.13200  -0.12791  -0.11757   0.04886
 Alpha virt. eigenvalues --    0.07047   0.08303   0.08623   0.09154   0.09428
 Alpha virt. eigenvalues --    0.10383   0.10538   0.11183   0.11793   0.12175
 Alpha virt. eigenvalues --    0.12517   0.12722   0.12925   0.13594   0.13940

  Beta  occ. eigenvalues --  -88.73544 -18.97556 -14.22439 -14.17714 -14.16980
  Beta  occ. eigenvalues --  -10.15844 -10.10335 -10.08658 -10.08565 -10.07247
  Beta  occ. eigenvalues --  -10.06798 -10.06269 -10.06116 -10.05737 -10.05665
  Beta  occ. eigenvalues --  -10.05313  -7.82214  -5.78517  -5.78177  -5.77707
  Beta  occ. eigenvalues --   -0.92819  -0.82944  -0.81335  -0.77042  -0.69050
  Beta  occ. eigenvalues --   -0.66396  -0.65495  -0.63850  -0.60010  -0.56597
  Beta  occ. eigenvalues --   -0.52453  -0.51144  -0.48245  -0.45046  -0.43954
  Beta  occ. eigenvalues --   -0.40608  -0.38703  -0.37086  -0.36820  -0.35909
  Beta  occ. eigenvalues --   -0.35064  -0.33827  -0.32605  -0.32466  -0.31135
  Beta  occ. eigenvalues --   -0.30390  -0.29720  -0.28265  -0.27422  -0.27042
  Beta  occ. eigenvalues --   -0.25641  -0.25309  -0.24286  -0.23165  -0.22868
  Beta  occ. eigenvalues --   -0.22611  -0.22088  -0.21552  -0.15040  -0.14554
  Beta  occ. eigenvalues --   -0.14379  -0.13072  -0.12683  -0.10207
  Beta virt. eigenvalues --    0.07439   0.08264   0.09014   0.09098   0.09566
  Beta virt. eigenvalues --    0.10361   0.10659   0.10803   0.11285   0.11973
  Beta virt. eigenvalues --    0.12270   0.12563   0.12747   0.13133   0.13633

 Mulliken charges and spin densities:
               1          2
     1  C    0.508932  -1.135317
     2  C   -0.394611   0.199018
     3  C    0.127774  -0.295127
     4  N    0.326689  -0.056926
     5  C    0.072763  -0.144791
     6  C   -0.240962   0.031260
     7  C   -0.255573   0.299778
     8  N   -0.047886   0.058663
     9  C   -0.095599   0.018180
    10  C   -0.463224   0.159229
    11  S   -0.167551   0.222025
    12  C   -0.425646  -0.150762
    13  O   -0.294007   0.007272
    14  C    0.202570   0.012459
    15  C   -0.538650  -0.022652
    16  N   -0.344007  -0.005174
    17  H   -0.092673   0.258442
    18  H   -0.113003   0.255612
    19  H   -0.105467   0.266730
    20  H    0.161758  -0.004608
    21  H   -0.186923   0.346132
    22  H    0.219851  -0.018234
    23  H   -0.445111   0.632299
    24  H    0.171025  -0.058445
    25  H    0.064946   0.131599
    26  H    0.116885   0.004843
    27  H    0.177512  -0.015952
    28  H    0.093975  -0.007314
    29  H    0.184333   0.004368
    30  H    0.151730   0.002760
    31  H    0.167252   0.002300
    32  H    0.247201   0.001041
    33  H    0.215697   0.001290
 Sum of Mulliken charges =  -1.00000   1.00000

 Dipole moment (field-independent basis, Debye):
    X=              0.8496    Y=              2.4798    Z=             -0.5393  Tot=              2.6762
 Quadrupole moment (field-independent basis, Debye-Ang):
   XX=           -140.6916   YY=           -147.4523   ZZ=           -129.1993
   XY=              1.4867   XZ=             -2.6533   YZ=             -2.8152

 Summary of Natural Population Analysis:

                                       Natural Population
                Natural  -----------------------------------------------
    Atom  No    Charge         Core      Valence    Rydberg      Total
 -----------------------------------------------------------------------
      C    1   -0.18999      0.99963     2.18190    0.00846     3.18999
      C    2   -0.19815      0.99962     2.19018    0.00834     3.19815
      C    3   -0.08774      0.99961     2.07635    0.01178     3.08774
      N    4   -0.25209      0.99965     2.74091    0.01153     3.75209
      C    5   -0.03057      0.99950     2.01510    0.01597     3.03057
      C    6   -0.18954      0.99961     2.18019    0.00975     3.18954
      C    7    0.10104      0.99957     1.87888    0.02050     2.89896
      N    8   -0.25564      0.99964     2.74405    0.01195     3.75564
      C    9   -0.03860      0.99954     2.02525    0.01382     3.03860
      C   10   -0.16325      0.99954     2.15450    0.00920     3.16325
      S   11    0.19195      4.99943     2.78771    0.02092     7.80805
      C   12    0.35165      0.99964     1.62601    0.02269     2.64835
      O   13   -0.33800      0.99988     3.33206    0.00606     4.33800
      C   14   -0.24100      0.99957     2.23369    0.00773     3.24100
      C   15   -0.08441      0.99965     2.07411    0.01065     3.08441
      N   16   -0.43075      0.99978     2.92131    0.00967     3.93075
      H   17    0.09677      0.00000     0.40239    0.00084     0.40323
      H   18    0.09539      0.00000     0.40302    0.00159     0.40461
      H   19    0.09736      0.00000     0.40175    0.00089     0.40264
      H   20    0.09902      0.00000     0.39981    0.00117     0.40098
      H   21    0.09384      0.00000     0.40501    0.00115     0.40616
      H   22    0.11040      0.00000     0.38844    0.00115     0.38960
      H   23    0.10788      0.00000     0.38974    0.00238     0.39212
      H   24    0.09686      0.00000     0.40101    0.00213     0.40314
      H   25    0.10780      0.00000     0.39110    0.00110     0.39220
      H   26    0.09140      0.00000     0.40759    0.00101     0.40860
      H   27    0.09988      0.00000     0.39932    0.00080     0.40012
      H   28    0.11598      0.00000     0.38235    0.00166     0.38402
      H   29    0.10630      0.00000     0.39244    0.00126     0.39370
      H   30    0.08533      0.00000     0.41351    0.00117     0.41467
      H   31    0.09167      0.00000     0.40707    0.00125     0.40833
      H   32    0.18953      0.00000     0.30867    0.00180     0.31047
      H   33    0.16967      0.00000     0.32878    0.00154     0.33033
 =======================================================================
   * Total *    0.00000     19.99385    43.78422    0.22193    64.00000

 Normal termination of Gaussian 16 at Fri Dec 11 01:50:02 2020.
