 Gaussian 16, Revision A.03,

 -----------------------------------------------------------
 # opt freq B3LYP/6-31G(d) empiricaldispersion=gd3bj scf=xqc
 -----------------------------------------------------------

 -------------------------------
 CID_116369088_JID_5620_neutraal
 -------------------------------
 Symbolic Z-matrix:
 Charge =  0 Multiplicity = 1

 SCF Done:  E(RB3LYP) =  -641.677384528     A.U. after   13 cycles
 SCF Done:  E(RB3LYP) =  -641.679803826     A.U. after   11 cycles
 SCF Done:  E(RB3LYP) =  -641.680070600     A.U. after   11 cycles
 SCF Done:  E(RB3LYP) =  -641.681353338     A.U. after   10 cycles
 SCF Done:  E(RB3LYP) =  -641.681595570     A.U. after   10 cycles
 SCF Done:  E(RB3LYP) =  -641.681900579     A.U. after   10 cycles
 SCF Done:  E(RB3LYP) =  -641.682250313     A.U. after   10 cycles
 SCF Done:  E(RB3LYP) =  -641.682323699     A.U. after   10 cycles
 SCF Done:  E(RB3LYP) =  -641.682377140     A.U. after    9 cycles
 SCF Done:  E(RB3LYP) =  -641.682406185     A.U. after    9 cycles
 SCF Done:  E(RB3LYP) =  -641.682410298     A.U. after    8 cycles
 SCF Done:  E(RB3LYP) =  -641.682412690     A.U. after    8 cycles
 SCF Done:  E(RB3LYP) =  -641.682412940     A.U. after    7 cycles
 SCF Done:  E(RB3LYP) =  -641.682412997     A.U. after    7 cycles
 SCF Done:  E(RB3LYP) =  -641.682413031     A.U. after    7 cycles
 SCF Done:  E(RB3LYP) =  -641.682413048     A.U. after    5 cycles
 Optimization completed.
    -- Stationary point found.
 Normal termination of Gaussian 16 at Thu Dec 10 16:45:08 2020.

 --------------------------------------------------------------------
 #N Geom=AllCheck Guess=TCheck SCRF=Check GenChk RB3LYP/6-31G(d) Freq
 --------------------------------------------------------------------

 Structure from the checkpoint file:  "JID_5620.chk"
 -------------------------------
 CID_116369088_JID_5620_neutraal
 -------------------------------
 Charge =  0 Multiplicity = 1

 SCF Done:  E(RB3LYP) =  -641.682413048     A.U. after    1 cycles

  Exact polarizability: 162.733   2.246 145.469   0.159  -0.209 129.097
 Approx polarizability: 204.559  -0.287 198.925   1.634  -1.212 192.408

                      1                      2                      3
                      A                      A                      A
 Frequencies --     29.2149                40.5780                56.3645
 Red. masses --      3.0152                 3.1059                 3.2345
 Frc consts  --      0.0015                 0.0030                 0.0061
 IR Inten    --      0.0247                 0.3225                 0.3254

                      4                      5                      6
                      A                      A                      A
 Frequencies --     77.1135               109.2012               146.5698
 Red. masses --      2.1428                 2.8357                 2.7532
 Frc consts  --      0.0075                 0.0199                 0.0348
 IR Inten    --      2.5924                 0.3756                 0.1875

                      7                      8                      9
                      A                      A                      A
 Frequencies --    157.6758               195.3303               198.6524
 Red. masses --      2.6368                 2.7342                 1.4016
 Frc consts  --      0.0386                 0.0615                 0.0326
 IR Inten    --      0.1026                 0.2050                 1.6452

                     10                     11                     12
                      A                      A                      A
 Frequencies --    225.6061               227.5731               253.8976
 Red. masses --      1.8745                 1.3601                 2.0282
 Frc consts  --      0.0562                 0.0415                 0.0770
 IR Inten    --      1.2267                 0.0685                 0.1725

                     13                     14                     15
                      A                      A                      A
 Frequencies --    267.2442               291.5134               315.8223
 Red. masses --      1.5802                 1.3999                 2.1442
 Frc consts  --      0.0665                 0.0701                 0.1260
 IR Inten    --      0.2330                 0.3868                 2.9382

                     16                     17                     18
                      A                      A                      A
 Frequencies --    329.0650               344.8877               357.2026
 Red. masses --      1.5299                 2.0186                 2.7877
 Frc consts  --      0.0976                 0.1415                 0.2096
 IR Inten    --      0.0551                 0.3657                 0.6117

                     19                     20                     21
                      A                      A                      A
 Frequencies --    360.1163               379.9396               408.9450
 Red. masses --      1.8172                 2.3075                 2.3746
 Frc consts  --      0.1388                 0.1963                 0.2340
 IR Inten    --      5.3841                 0.2867                 0.3188

                     22                     23                     24
                      A                      A                      A
 Frequencies --    413.1422               431.5376               452.0571
 Red. masses --      2.0104                 2.7138                 2.3174
 Frc consts  --      0.2022                 0.2978                 0.2790
 IR Inten    --      0.0188                 7.0722                 0.4473

                     25                     26                     27
                      A                      A                      A
 Frequencies --    507.2989               541.8619               563.3659
 Red. masses --      2.5981                 2.3280                 2.5545
 Frc consts  --      0.3939                 0.4027                 0.4777
 IR Inten    --      0.6627                 0.2692                11.5630

                     28                     29                     30
                      A                      A                      A
 Frequencies --    712.3316               734.7883               745.3877
 Red. masses --      2.7069                 2.2906                 2.4639
 Frc consts  --      0.8093                 0.7286                 0.8066
 IR Inten    --      5.3084                 5.7617                27.7751

                     31                     32                     33
                      A                      A                      A
 Frequencies --    781.8384               811.5051               864.7355
 Red. masses --      2.0307                 1.8196                 2.2307
 Frc consts  --      0.7314                 0.7060                 0.9828
 IR Inten    --     31.6585                13.8960                 1.6103

                     34                     35                     36
                      A                      A                      A
 Frequencies --    867.9942               894.1109               903.0340
 Red. masses --      1.7279                 2.0096                 2.0296
 Frc consts  --      0.7670                 0.9466                 0.9752
 IR Inten    --      5.8145                 2.4110                 5.3259

                     37                     38                     39
                      A                      A                      A
 Frequencies --    926.8940               945.7223               950.7812
 Red. masses --      1.7570                 1.7554                 1.6392
 Frc consts  --      0.8894                 0.9250                 0.8730
 IR Inten    --      2.8842                 0.2036                 0.8668

                     40                     41                     42
                      A                      A                      A
 Frequencies --    970.4173               973.7042              1000.0348
 Red. masses --      2.0144                 1.2053                 1.7266
 Frc consts  --      1.1177                 0.6733                 1.0173
 IR Inten    --     12.7848                 0.5831                 7.5228

                     43                     44                     45
                      A                      A                      A
 Frequencies --   1024.1339              1041.9349              1047.1895
 Red. masses --      1.8609                 1.9635                 2.7289
 Frc consts  --      1.1499                 1.2559                 1.7631
 IR Inten    --      4.9379                 7.1635                 4.3464

                     46                     47                     48
                      A                      A                      A
 Frequencies --   1056.6740              1072.6309              1091.3057
 Red. masses --      1.5581                 1.5983                 1.9390
 Frc consts  --      1.0250                 1.0834                 1.3606
 IR Inten    --      2.6640                 0.0664                 4.5474

                     49                     50                     51
                      A                      A                      A
 Frequencies --   1099.7060              1120.9603              1123.1552
 Red. masses --      1.7812                 2.2316                 1.3855
 Frc consts  --      1.2691                 1.6522                 1.0298
 IR Inten    --      2.0529                14.1485                 0.2989

                     52                     53                     54
                      A                      A                      A
 Frequencies --   1151.6113              1167.1043              1186.3964
 Red. masses --      4.2723                 1.5765                 1.8019
 Frc consts  --      3.3383                 1.2652                 1.4943
 IR Inten    --    139.2645                22.4421                11.6515

                     55                     56                     57
                      A                      A                      A
 Frequencies --   1194.0407              1211.3157              1229.9291
 Red. masses --      1.4084                 1.5456                 1.6207
 Frc consts  --      1.1831                 1.3361                 1.4445
 IR Inten    --      6.4088                 5.5672                30.9675

                     58                     59                     60
                      A                      A                      A
 Frequencies --   1241.8023              1256.5231              1273.9656
 Red. masses --      1.8396                 1.8266                 1.6086
 Frc consts  --      1.6714                 1.6992                 1.5382
 IR Inten    --     11.7699                17.3365                 7.5213

                     61                     62                     63
                      A                      A                      A
 Frequencies --   1290.3455              1301.0731              1313.4716
 Red. masses --      1.5333                 1.8030                 1.4939
 Frc consts  --      1.5041                 1.7982                 1.5185
 IR Inten    --      2.6109                 8.7368                 4.0901

                     64                     65                     66
                      A                      A                      A
 Frequencies --   1334.8904              1352.2813              1362.7772
 Red. masses --      1.4583                 1.3704                 1.2436
 Frc consts  --      1.5310                 1.4764                 1.3608
 IR Inten    --      1.4194                 4.5975                 5.3924

                     67                     68                     69
                      A                      A                      A
 Frequencies --   1380.9659              1390.6430              1391.1894
 Red. masses --      1.3924                 1.4128                 1.4716
 Frc consts  --      1.5645                 1.6098                 1.6781
 IR Inten    --      0.9550                 0.5492                 3.3624

                     70                     71                     72
                      A                      A                      A
 Frequencies --   1401.0678              1403.2887              1415.9607
 Red. masses --      1.3746                 1.3855                 1.3575
 Frc consts  --      1.5899                 1.6075                 1.6036
 IR Inten    --      5.8194                 1.2847                 1.8278

                     73                     74                     75
                      A                      A                      A
 Frequencies --   1422.4468              1427.6681              1431.9266
 Red. masses --      1.3794                 1.2380                 1.2506
 Frc consts  --      1.6445                 1.4867                 1.5108
 IR Inten    --      8.2794                 6.0716                 6.6645

                     76                     77                     78
                      A                      A                      A
 Frequencies --   1440.4511              1460.3248              1501.9322
 Red. masses --      1.2877                 1.2251                 1.1374
 Frc consts  --      1.5742                 1.5393                 1.5117
 IR Inten    --     24.6863                 3.9797                 0.8877

                     79                     80                     81
                      A                      A                      A
 Frequencies --   1505.1261              1509.6782              1514.9602
 Red. masses --      1.0824                 1.0864                 1.0519
 Frc consts  --      1.4447                 1.4588                 1.4225
 IR Inten    --      1.3455                 4.4560                 0.9376

                     82                     83                     84
                      A                      A                      A
 Frequencies --   1518.2610              1518.8116              1520.7259
 Red. masses --      1.0480                 1.0699                 1.0881
 Frc consts  --      1.4234                 1.4542                 1.4826
 IR Inten    --      0.2794                 5.4966                 3.5695

                     85                     86                     87
                      A                      A                      A
 Frequencies --   1521.7567              1523.8413              1534.5887
 Red. masses --      1.0842                 1.0660                 1.0817
 Frc consts  --      1.4793                 1.4584                 1.5009
 IR Inten    --      8.5627                 3.9894                 5.7016

                     88                     89                     90
                      A                      A                      A
 Frequencies --   1536.9354              1540.9441              1544.9975
 Red. masses --      1.0924                 1.0680                 1.0683
 Frc consts  --      1.5204                 1.4942                 1.5025
 IR Inten    --     10.6962                 4.8774                 5.1401

                     91                     92                     93
                      A                      A                      A
 Frequencies --   1546.9204              1557.4109              1563.3971
 Red. masses --      1.1448                 1.0767                 1.0873
 Frc consts  --      1.6141                 1.5387                 1.5658
 IR Inten    --     13.9873                19.8459                12.0286

                     94                     95                     96
                      A                      A                      A
 Frequencies --   2949.3945              2990.2420              3001.1072
 Red. masses --      1.0820                 1.0697                 1.0393
 Frc consts  --      5.5455                 5.6352                 5.5151
 IR Inten    --     41.9223                41.6100                71.0865

                     97                     98                     99
                      A                      A                      A
 Frequencies --   3019.8902              3021.4423              3028.7927
 Red. masses --      1.0812                 1.0676                 1.0587
 Frc consts  --      5.8096                 5.7424                 5.7223
 IR Inten    --     20.2072                29.5495                18.7697

                    100                    101                    102
                      A                      A                      A
 Frequencies --   3034.2104              3036.1201              3038.9763
 Red. masses --      1.0358                 1.0360                 1.0716
 Frc consts  --      5.6183                 5.6266                 5.8307
 IR Inten    --     28.8288                43.8263                59.0787

                    103                    104                    105
                      A                      A                      A
 Frequencies --   3045.0265              3047.7078              3053.2578
 Red. masses --      1.0393                 1.0798                 1.0670
 Frc consts  --      5.6778                 5.9096                 5.8603
 IR Inten    --     23.8628                26.2886                28.6529

                    106                    107                    108
                      A                      A                      A
 Frequencies --   3058.6918              3066.5277              3072.7187
 Red. masses --      1.0846                 1.0933                 1.0978
 Frc consts  --      5.9783                 6.0576                 6.1068
 IR Inten    --     56.0198                52.5835                39.2606

                    109                    110                    111
                      A                      A                      A
 Frequencies --   3076.0493              3086.0019              3093.7992
 Red. masses --      1.0934                 1.0962                 1.1018
 Frc consts  --      6.0957                 6.1506                 6.2133
 IR Inten    --     53.6903                29.3266                16.7805

                    112                    113                    114
                      A                      A                      A
 Frequencies --   3099.4554              3100.0547              3105.2338
 Red. masses --      1.0995                 1.1025                 1.1019
 Frc consts  --      6.2231                 6.2425                 6.2603
 IR Inten    --      7.9784                 0.1785                36.7665

                    115                    116                    117
                      A                      A                      A
 Frequencies --   3106.8689              3107.2312              3111.9292
 Red. masses --      1.0981                 1.1007                 1.1008
 Frc consts  --      6.2451                 6.2613                 6.2806
 IR Inten    --    116.3617                80.3314                34.3765

                    118                    119                    120
                      A                      A                      A
 Frequencies --   3125.4742              3134.1324              3556.5374
 Red. masses --      1.1003                 1.0980                 1.0725
 Frc consts  --      6.3329                 6.3543                 7.9926
 IR Inten    --     19.9078                31.3713                 6.5854

 - Thermochemistry -
 -------------------
 Temperature   298.150 Kelvin.  Pressure   1.00000 Atm.
 Atom     1 has atomic number  6 and mass  12.00000

 Molecular mass:   213.20926 amu.
 Principal axes and moments of inertia in atomic units:
                           1         2         3
     Eigenvalues --  2191.626714940.282305796.72827
           X            1.00000   0.00194  -0.00109
           Y           -0.00194   1.00000   0.00062
           Z            0.00109  -0.00062   1.00000
 This molecule is an asymmetric top.
 Rotational symmetry number  1.
 Warning -- assumption of classical behavior for rotation
           may cause significant error
 Rotational temperatures (Kelvin)      0.03952     0.01753     0.01494
 Rotational constants (GHZ):           0.82347     0.36531     0.31134
 Zero-point vibrational energy    1031799.3 (Joules/Mol)
                                  246.60595 (Kcal/Mol)
 Warning -- explicit consideration of  27 degrees of freedom as
           vibrations may cause significant error
 Vibrational temperatures:     42.03    58.38    81.10   110.95   157.12
          (Kelvin)            210.88   226.86   281.04   285.82   324.60
                              327.43   365.30   384.50   419.42   454.40
                              473.45   496.22   513.93   518.13   546.65
                              588.38   594.42   620.89   650.41   729.89
                              779.62   810.56  1024.89  1057.20  1072.45
                             1124.89  1167.57  1244.16  1248.85  1286.43
                             1299.26  1333.59  1360.68  1367.96  1396.21
                             1400.94  1438.83  1473.50  1499.11  1506.67
                             1520.32  1543.28  1570.15  1582.23  1612.81
                             1615.97  1656.91  1679.20  1706.96  1717.96
                             1742.81  1769.59  1786.68  1807.86  1832.95
                             1856.52  1871.95  1889.79  1920.61  1945.63
                             1960.73  1986.90  2000.83  2001.61  2015.82
                             2019.02  2037.25  2046.58  2054.10  2060.22
                             2072.49  2101.08  2160.95  2165.54  2172.09
                             2179.69  2184.44  2185.23  2187.99  2189.47
                             2192.47  2207.93  2211.31  2217.07  2222.91
                             2225.67  2240.77  2249.38  4243.52  4302.29
                             4317.92  4344.95  4347.18  4357.76  4365.55
                             4368.30  4372.41  4381.11  4384.97  4392.96
                             4400.78  4412.05  4420.96  4425.75  4440.07
                             4451.29  4459.43  4460.29  4467.74  4470.09
                             4470.61  4477.37  4496.86  4509.32  5117.06

 Zero-point correction=                           0.392992 (Hartree/Particle)
 Thermal correction to Energy=                    0.410175
 Thermal correction to Enthalpy=                  0.411119
 Thermal correction to Gibbs Free Energy=         0.348449
 Sum of electronic and zero-point Energies=           -641.289421
 Sum of electronic and thermal Energies=              -641.272238
 Sum of electronic and thermal Enthalpies=            -641.271294
 Sum of electronic and thermal Free Energies=         -641.333964

                     E (Thermal)             CV                S
                      KCal/Mol        Cal/Mol-Kelvin    Cal/Mol-Kelvin
 Total                  257.389             66.492            131.900
 Electronic               0.000              0.000              0.000
 Translational            0.889              2.981             41.975
 Rotational               0.889              2.981             32.506
 Vibrational            255.611             60.530             57.419
 Vibration     1          0.593              1.984              5.882
 Vibration     2          0.594              1.981              5.231
 Vibration     3          0.596              1.975              4.581
 Vibration     4          0.599              1.964              3.963
 Vibration     5          0.606              1.942              3.283
 Vibration     6          0.617              1.906              2.716
 Vibration     7          0.621              1.894              2.577
 Vibration     8          0.636              1.846              2.177
 Vibration     9          0.637              1.842              2.146
 Vibration    10          0.650              1.802              1.914
 Vibration    11          0.651              1.799              1.898
 Vibration    12          0.665              1.756              1.703
 Vibration    13          0.672              1.733              1.614
 Vibration    14          0.687              1.690              1.465
 Vibration    15          0.703              1.643              1.332
 Vibration    16          0.712              1.617              1.265
 Vibration    17          0.723              1.586              1.189
 Vibration    18          0.732              1.560              1.134
 Vibration    19          0.735              1.554              1.122
 Vibration    20          0.750              1.513              1.039
 Vibration    21          0.773              1.451              0.930
 Vibration    22          0.777              1.442              0.916
 Vibration    23          0.793              1.402              0.854
 Vibration    24          0.811              1.356              0.790
 Vibration    25          0.862              1.234              0.640
 Vibration    26          0.897              1.158              0.561
 Vibration    27          0.919              1.111              0.517

                           ! Non-Optimized Parameters !
 Normal termination of Gaussian 16 at Thu Dec 10 17:04:02 2020.

 ----------------------------------------------------------------------
 # B3LYP/6-311++G(d,p) empiricaldispersion=gd3bj scf=xqc pop=npa geom=c
 heck
 ----------------------------------------------------------------------

 ---------------------------------------
 CID_116369088_JID_5620_Energie_neutraal
 ---------------------------------------
 Structure from the checkpoint file:  "JID_5620.chk"
 Charge =  0 Multiplicity = 1

 SCF Done:  E(RB3LYP) =  -641.864599776     A.U. after   13 cycles
 Normal termination of Gaussian 16 at Thu Dec 10 17:15:23 2020.

 ----------------------------------------------------------------------
 # B3LYP/6-311++G(d,p) empiricaldispersion=gd3bj scf=xqc pop=npa geom=c
 heck
 ----------------------------------------------------------------------

 -------------------------------------
 CID_116369088_JID_5620_Energie_kation
 -------------------------------------
 Structure from the checkpoint file:  "JID_5620.chk"
 Charge =  1 Multiplicity = 2

 SCF Done:  E(UB3LYP) =  -641.579788521     A.U. after   19 cycles
 Normal termination of Gaussian 16 at Thu Dec 10 17:34:17 2020.
 Gaussian 16:  ES64L-G16RevA.03 25-Dec-2016

 ----------------------------------------------------------------------
 # B3LYP/6-311++G(d,p) empiricaldispersion=gd3bj scf=xqc pop=npa geom=c
 heck
 ----------------------------------------------------------------------

 ------------------------------------
 CID_116369088_JID_5620_Energie_anion
 ------------------------------------
 Structure from the checkpoint file:  "JID_5620.chk"
 Charge = -1 Multiplicity = 2

                         Standard orientation:
 ---------------------------------------------------------------------
 Center     Atomic      Atomic             Coordinates (Angstroms)
 Number     Number       Type             X           Y           Z
 ---------------------------------------------------------------------
      1          6           0        2.435366    1.308270   -0.270817
      2          6           0        2.948545   -0.066493    0.191867
      3          6           0        4.419313   -0.217231   -0.236014
      4          6           0        2.871367   -0.141621    1.727073
      5          6           0        2.153058   -1.233748   -0.448303
      6          6           0        0.631174   -1.262298   -0.236497
      7          7           0       -0.059638   -0.512186   -1.285598
      8          6           0       -1.508072   -0.300697   -1.214905
      9          6           0       -2.315978   -1.589594   -0.974714
     10          6           0       -2.480300   -1.995824    0.499450
     11          6           0       -2.999929   -0.829392    1.347662
     12          6           0       -2.091755    0.400357    1.215833
     13          6           0       -1.971731    0.823569   -0.251634
     14          8           0       -1.062447    1.906948   -0.441051
     15          6           0       -1.538014    3.165568   -0.013987
     16          1           0        3.065863    2.107184    0.138830
     17          1           0        1.408103    1.498365    0.056261
     18          1           0        2.467188    1.394033   -1.364426
     19          1           0        5.040327    0.570121    0.208076
     20          1           0        4.826909   -1.185120    0.080643
     21          1           0        4.520622   -0.151090   -1.325976
     22          1           0        1.846353   -0.007899    2.089918
     23          1           0        3.235298   -1.109216    2.094057
     24          1           0        3.486415    0.643289    2.183431
     25          1           0        2.334882   -1.247934   -1.531190
     26          1           0        2.574966   -2.166948   -0.051646
     27          1           0        0.296077   -2.303515   -0.297844
     28          1           0        0.400968   -0.927629    0.787743
     29          1           0        0.365268    0.404264   -1.384364
     30          1           0       -1.771792    0.062295   -2.217566
     31          1           0       -3.319701   -1.431612   -1.392660
     32          1           0       -1.860876   -2.398732   -1.557431
     33          1           0       -1.527508   -2.341174    0.914290
     34          1           0       -3.172307   -2.844888    0.563390
     35          1           0       -3.081976   -1.126748    2.399929
     36          1           0       -4.015525   -0.563578    1.018367
     37          1           0       -1.094281    0.181770    1.612490
     38          1           0       -2.495737    1.227861    1.811911
     39          1           0       -2.974137    1.143127   -0.590809
     40          1           0       -2.494099    3.418568   -0.498798
     41          1           0       -1.676698    3.216010    1.075198
     42          1           0       -0.785823    3.903724   -0.304315
 ---------------------------------------------------------------------

 SCF Done:  E(UB3LYP) =  -641.850597289     A.U. after   29 cycles

 The electronic state is 2-A.
 Alpha  occ. eigenvalues --  -19.02763 -14.18870 -10.11683 -10.11239 -10.09627
 Alpha  occ. eigenvalues --  -10.09044 -10.09031 -10.06838 -10.06835 -10.06812
 Alpha  occ. eigenvalues --  -10.06714 -10.06616 -10.06360 -10.06342 -10.05965
 Alpha  occ. eigenvalues --   -0.94005  -0.80383  -0.73360  -0.71750  -0.65347
 Alpha  occ. eigenvalues --   -0.64647  -0.61273  -0.59504  -0.59132  -0.57844
 Alpha  occ. eigenvalues --   -0.53354  -0.50285  -0.49426  -0.45214  -0.43935
 Alpha  occ. eigenvalues --   -0.40238  -0.39776  -0.38482  -0.36938  -0.36497
 Alpha  occ. eigenvalues --   -0.35853  -0.34494  -0.34102  -0.33625  -0.32901
 Alpha  occ. eigenvalues --   -0.31439  -0.30814  -0.30225  -0.29894  -0.28372
 Alpha  occ. eigenvalues --   -0.27733  -0.27534  -0.27204  -0.26572  -0.25932
 Alpha  occ. eigenvalues --   -0.25434  -0.23582  -0.23046  -0.22825  -0.22162
 Alpha  occ. eigenvalues --   -0.21474  -0.21138  -0.20888  -0.16296  -0.11821
 Alpha  occ. eigenvalues --    0.04220
 Alpha virt. eigenvalues --    0.05953   0.06605   0.07271   0.08115   0.08263
 Alpha virt. eigenvalues --    0.08582   0.09141   0.09461   0.10122   0.10203
 Alpha virt. eigenvalues --    0.10651   0.11173   0.11539   0.11831   0.12553

  Beta  occ. eigenvalues --  -19.02753 -14.18868 -10.11671 -10.11201 -10.09625
  Beta  occ. eigenvalues --  -10.09042 -10.09024 -10.06830 -10.06822 -10.06797
  Beta  occ. eigenvalues --  -10.06693 -10.06603 -10.06340 -10.06326 -10.05952
  Beta  occ. eigenvalues --   -0.93986  -0.80374  -0.73346  -0.71726  -0.65322
  Beta  occ. eigenvalues --   -0.64617  -0.61246  -0.59471  -0.59101  -0.57787
  Beta  occ. eigenvalues --   -0.53324  -0.50232  -0.49387  -0.45177  -0.43901
  Beta  occ. eigenvalues --   -0.40207  -0.39744  -0.38441  -0.36919  -0.36478
  Beta  occ. eigenvalues --   -0.35828  -0.34463  -0.34082  -0.33595  -0.32879
  Beta  occ. eigenvalues --   -0.31410  -0.30792  -0.30201  -0.29871  -0.28350
  Beta  occ. eigenvalues --   -0.27705  -0.27511  -0.27183  -0.26549  -0.25903
  Beta  occ. eigenvalues --   -0.25403  -0.23548  -0.23026  -0.22801  -0.22139
  Beta  occ. eigenvalues --   -0.21446  -0.21112  -0.20853  -0.16274  -0.11810
  Beta virt. eigenvalues --    0.06053   0.06744   0.07297   0.07757   0.08460
  Beta virt. eigenvalues --    0.08715   0.08890   0.09407   0.09848   0.10416
  Beta virt. eigenvalues --    0.10604   0.10926   0.11360   0.11800   0.12141

 Mulliken charges and spin densities:
               1          2
     1  C   -0.513731  -0.294801
     2  C   -0.411152   1.428616
     3  C    0.138759  -0.677509
     4  C   -0.029654  -0.605678
     5  C    1.112811  -2.291256
     6  C   -1.122372   1.044278
     7  N    0.004371   0.083042
     8  C    0.666131  -0.365383
     9  C   -0.309543  -0.316288
    10  C   -0.269247   0.225002
    11  C    1.104104  -1.924073
    12  C    0.215737  -0.015031
    13  C   -1.349477   0.552556
    14  O   -0.084432   0.011660
    15  C    0.882992  -1.124845
    16  H   -0.026110   0.173364
    17  H    0.389492  -0.168169
    18  H    0.021434   0.125491
    19  H   -0.006487   0.145433
    20  H   -0.012548   0.140233
    21  H    0.047190   0.082386
    22  H   -0.193075   0.315363
    23  H   -0.046675   0.187444
    24  H   -0.117356   0.263754
    25  H    0.177017  -0.005204
    26  H   -0.008332   0.170138
    27  H    0.075868   0.073149
    28  H    0.526572  -0.471393
    29  H    0.181170   0.114494
    30  H    0.101747   0.114618
    31  H   -0.349024   0.504993
    32  H    0.095188   0.076046
    33  H   -0.116785   0.222818
    34  H   -0.350329   0.547082
    35  H   -0.213781   0.386659
    36  H   -0.112410   0.244427
    37  H    0.080512   0.090691
    38  H   -0.219718   0.382955
    39  H   -0.167855   0.342455
    40  H   -0.382477   0.509004
    41  H   -0.273944   0.428331
    42  H   -0.134583   0.273146
 Sum of Mulliken charges =  -1.00000   1.00000

 Dipole moment (field-independent basis, Debye):
    X=              4.0357    Y=             -1.8568    Z=             -1.8396  Tot=              4.8082
 Quadrupole moment (field-independent basis, Debye-Ang):
   XX=           -178.1142   YY=           -150.1348   ZZ=           -139.2285
   XY=              1.3376   XZ=              0.5648   YZ=             -1.6194

 Summary of Natural Population Analysis:

                                       Natural Population
                Natural  -----------------------------------------------
    Atom  No    Charge         Core      Valence    Rydberg      Total
 -----------------------------------------------------------------------
      C    1   -0.29437      0.99962     2.28701    0.00774     3.29437
      C    2   -0.04847      0.99959     2.03885    0.01004     3.04847
      C    3   -0.28105      0.99963     2.27557    0.00585     3.28105
      C    4   -0.28563      0.99962     2.27868    0.00733     3.28563
      C    5   -0.19031      0.99958     2.18014    0.01058     3.19031
      C    6   -0.09095      0.99961     2.08158    0.00976     3.09095
      N    7   -0.34715      0.99973     2.83652    0.01090     3.84715
      C    8   -0.00967      0.99956     1.99504    0.01507     3.00967
      C    9   -0.19576      0.99961     2.18757    0.00857     3.19576
      C   10   -0.19169      0.99962     2.18407    0.00799     3.19169
      C   11   -0.18784      0.99962     2.17991    0.00831     3.18784
      C   12   -0.20501      0.99960     2.19608    0.00934     3.20501
      C   13    0.06507      0.99950     1.92026    0.01517     2.93493
      O   14   -0.30855      0.99988     3.29808    0.01060     4.30855
      C   15   -0.09522      0.99960     2.08649    0.00913     3.09522
      H   16    0.09898      0.00000     0.40018    0.00084     0.40102
      H   17    0.10993      0.00000     0.38836    0.00171     0.39007
      H   18    0.09768      0.00000     0.40153    0.00079     0.40232
      H   19    0.09799      0.00000     0.40114    0.00087     0.40201
      H   20    0.09773      0.00000     0.40139    0.00089     0.40227
      H   21    0.09789      0.00000     0.40122    0.00089     0.40211
      H   22    0.10110      0.00000     0.39768    0.00122     0.39890
      H   23    0.09768      0.00000     0.40146    0.00086     0.40232
      H   24    0.09891      0.00000     0.40024    0.00085     0.40109
      H   25    0.10139      0.00000     0.39731    0.00131     0.39861
      H   26    0.09812      0.00000     0.40102    0.00086     0.40188
      H   27    0.09044      0.00000     0.40783    0.00173     0.40956
      H   28    0.07977      0.00000     0.41788    0.00235     0.42023
      H   29    0.18331      0.00000     0.31287    0.00381     0.31669
      H   30    0.09548      0.00000     0.40277    0.00175     0.40452
      H   31    0.10007      0.00000     0.39877    0.00116     0.39993
      H   32    0.10311      0.00000     0.39585    0.00104     0.39689
      H   33    0.09411      0.00000     0.40415    0.00173     0.40589
      H   34    0.09872      0.00000     0.40018    0.00110     0.40128
      H   35    0.09978      0.00000     0.39911    0.00111     0.40022
      H   36    0.09433      0.00000     0.40402    0.00164     0.40567
      H   37    0.09628      0.00000     0.40152    0.00220     0.40372
      H   38    0.10170      0.00000     0.39675    0.00154     0.39830
      H   39    0.08177      0.00000     0.41615    0.00208     0.41823
      H   40    0.07961      0.00000     0.41878    0.00162     0.42039
      H   41    0.08108      0.00000     0.41733    0.00159     0.41892
      H   42    0.08965      0.00000     0.40916    0.00119     0.41035
 =======================================================================
   * Total *    0.00000     14.99437    44.82053    0.18510    60.00000

 Normal termination of Gaussian 16 at Thu Dec 10 18:01:22 2020.
