 Gaussian 16, Revision A.03,

 -----------------------------------------------------------
 # opt freq B3LYP/6-31G(d) empiricaldispersion=gd3bj scf=xqc
 -----------------------------------------------------------

 ------------------------------
 CID_23462967_JID_9070_neutraal
 ------------------------------
 Symbolic Z-matrix:
 Charge =  0 Multiplicity = 1

 SCF Done:  E(RB3LYP) =  -836.205615456     A.U. after   16 cycles
 SCF Done:  E(RB3LYP) =  -836.214924927     A.U. after   12 cycles
 SCF Done:  E(RB3LYP) =  -836.215964491     A.U. after   12 cycles
 SCF Done:  E(RB3LYP) =  -836.216384477     A.U. after   12 cycles
 SCF Done:  E(RB3LYP) =  -836.216592413     A.U. after   12 cycles
 SCF Done:  E(RB3LYP) =  -836.216733847     A.U. after   11 cycles
 SCF Done:  E(RB3LYP) =  -836.216941643     A.U. after   12 cycles
 SCF Done:  E(RB3LYP) =  -836.216995642     A.U. after   12 cycles
 SCF Done:  E(RB3LYP) =  -836.216998357     A.U. after   11 cycles
 SCF Done:  E(RB3LYP) =  -836.217080067     A.U. after   11 cycles
 SCF Done:  E(RB3LYP) =  -836.217227596     A.U. after   10 cycles
 SCF Done:  E(RB3LYP) =  -836.217259387     A.U. after   11 cycles
 SCF Done:  E(RB3LYP) =  -836.217248613     A.U. after   11 cycles
 SCF Done:  E(RB3LYP) =  -836.217263883     A.U. after   11 cycles
 SCF Done:  E(RB3LYP) =  -836.217264099     A.U. after    8 cycles
 SCF Done:  E(RB3LYP) =  -836.217264525     A.U. after    8 cycles
 Optimization completed.
    -- Stationary point found.
 Normal termination of Gaussian 16 at Sun Dec 13 20:21:34 2020.

 --------------------------------------------------------------------
 #N Geom=AllCheck Guess=TCheck SCRF=Check GenChk RB3LYP/6-31G(d) Freq
 --------------------------------------------------------------------

 Structure from the checkpoint file:  "JID_9070.chk"
 ------------------------------
 CID_23462967_JID_9070_neutraal
 ------------------------------
 Charge =  0 Multiplicity = 1

 SCF Done:  E(RB3LYP) =  -836.217264525     A.U. after    1 cycles

  Exact polarizability: 274.072  -2.418 169.326   0.478 -11.081  96.512
 Approx polarizability: 370.434  -0.636 301.206  -5.834 -24.256 161.988

                      1                      2                      3
                      A                      A                      A
 Frequencies --     36.6142                47.0493                69.5766
 Red. masses --      4.0349                 4.5938                 3.2200
 Frc consts  --      0.0032                 0.0060                 0.0092
 IR Inten    --      1.0055                 2.3442                 0.3792

                      4                      5                      6
                      A                      A                      A
 Frequencies --     80.5992               111.8996               115.6644
 Red. masses --      4.5286                 3.9030                 3.2123
 Frc consts  --      0.0173                 0.0288                 0.0253
 IR Inten    --      1.1001                 0.4071                 1.7894

                      7                      8                      9
                      A                      A                      A
 Frequencies --    149.6878               169.2297               202.6448
 Red. masses --      1.0620                 2.7037                 4.7812
 Frc consts  --      0.0140                 0.0456                 0.1157
 IR Inten    --      0.1123                 1.8457                 3.5738

                     10                     11                     12
                      A                      A                      A
 Frequencies --    228.1891               244.1504               251.9506
 Red. masses --      4.3125                 4.2956                 2.9281
 Frc consts  --      0.1323                 0.1509                 0.1095
 IR Inten    --      2.1613                 6.3720                 0.5150

                     13                     14                     15
                      A                      A                      A
 Frequencies --    273.7950               293.4219               364.8835
 Red. masses --      1.7348                 3.2777                 4.0136
 Frc consts  --      0.0766                 0.1663                 0.3148
 IR Inten    --      1.7148                 1.0626                 2.0098

                     16                     17                     18
                      A                      A                      A
 Frequencies --    381.3119               404.9780               418.7536
 Red. masses --      3.6215                 3.9119                 3.5772
 Frc consts  --      0.3102                 0.3780                 0.3696
 IR Inten    --      5.0210                18.6075                 5.6288

                     19                     20                     21
                      A                      A                      A
 Frequencies --    426.0357               470.9375               517.4184
 Red. masses --      3.8902                 4.8218                 5.0841
 Frc consts  --      0.4160                 0.6301                 0.8020
 IR Inten    --     11.1043                 1.2063                 0.4515

                     22                     23                     24
                      A                      A                      A
 Frequencies --    541.3448               560.7618               620.6628
 Red. masses --      2.3364                 3.9155                 4.8934
 Frc consts  --      0.4034                 0.7254                 1.1106
 IR Inten    --    125.1904                22.6893                 8.1572

                     25                     26                     27
                      A                      A                      A
 Frequencies --    627.5934               652.5916               656.2744
 Red. masses --      5.8680                 4.6620                 6.7413
 Frc consts  --      1.3617                 1.1698                 1.7107
 IR Inten    --      6.4582                 3.2426                21.0989

                     28                     29                     30
                      A                      A                      A
 Frequencies --    685.1520               718.1050               733.2450
 Red. masses --      3.2118                 4.3423                 2.0753
 Frc consts  --      0.8883                 1.3193                 0.6574
 IR Inten    --     67.2010                 4.6949                21.3563

                     31                     32                     33
                      A                      A                      A
 Frequencies --    739.9582               746.8260               801.9602
 Red. masses --      6.3364                 6.1046                 7.2592
 Frc consts  --      2.0441                 2.0061                 2.7507
 IR Inten    --     26.0992                 2.9756                17.1280

                     34                     35                     36
                      A                      A                      A
 Frequencies --    812.2555               825.0709               838.8146
 Red. masses --      1.6668                 1.5486                 2.4300
 Frc consts  --      0.6479                 0.6211                 1.0074
 IR Inten    --      1.4282                 5.1521                27.9308

                     37                     38                     39
                      A                      A                      A
 Frequencies --    931.4078               950.4633               955.2262
 Red. masses --      3.8458                 1.3167                 1.4097
 Frc consts  --      1.9657                 0.7008                 0.7579
 IR Inten    --      5.0295                 0.6556                 5.4938

                     40                     41                     42
                      A                      A                      A
 Frequencies --    974.7050               996.0245               998.9454
 Red. masses --      1.4483                 1.3617                 2.7029
 Frc consts  --      0.8107                 0.7959                 1.5892
 IR Inten    --      0.8102                 0.2653                 3.4315

                     43                     44                     45
                      A                      A                      A
 Frequencies --   1029.9329              1044.1004              1064.0370
 Red. masses --      1.8231                 3.6818                 3.5640
 Frc consts  --      1.1394                 2.3648                 2.3774
 IR Inten    --      5.7830                10.5864                10.8654

                     46                     47                     48
                      A                      A                      A
 Frequencies --   1068.6821              1083.7180              1102.2852
 Red. masses --      1.5887                 2.2514                 2.7369
 Frc consts  --      1.0690                 1.5579                 1.9593
 IR Inten    --      5.5057                 6.5364                 1.8510

                     49                     50                     51
                      A                      A                      A
 Frequencies --   1132.8292              1151.6660              1186.3307
 Red. masses --      2.0075                 1.4642                 2.5082
 Frc consts  --      1.5178                 1.1442                 2.0799
 IR Inten    --     38.4494                 3.7340                 6.9071

                     52                     53                     54
                      A                      A                      A
 Frequencies --   1197.9584              1217.9134              1238.9489
 Red. masses --      3.7333                 2.4016                 2.4309
 Frc consts  --      3.1567                 2.0989                 2.1985
 IR Inten    --     11.3742                13.3167                39.1794

                     55                     56                     57
                      A                      A                      A
 Frequencies --   1241.2342              1294.5317              1302.0178
 Red. masses --      2.0308                 2.3514                 6.3025
 Frc consts  --      1.8435                 2.3217                 6.2950
 IR Inten    --     37.4239                30.5486                11.0874

                     58                     59                     60
                      A                      A                      A
 Frequencies --   1318.6886              1335.3670              1373.3000
 Red. masses --      2.8642                 1.7539                 1.9279
 Frc consts  --      2.9345                 1.8427                 2.1423
 IR Inten    --     64.3240                89.7404                30.6298

                     61                     62                     63
                      A                      A                      A
 Frequencies --   1377.4768              1406.7007              1424.1168
 Red. masses --      1.4433                 1.4153                 1.8205
 Frc consts  --      1.6135                 1.6501                 2.1753
 IR Inten    --      3.2533                80.8542                 6.2723

                     64                     65                     66
                      A                      A                      A
 Frequencies --   1435.7613              1444.3829              1446.9902
 Red. masses --      1.6115                 1.8806                 1.5614
 Frc consts  --      1.9572                 2.3116                 1.9261
 IR Inten    --      2.4951                53.2409                16.3948

                     67                     68                     69
                      A                      A                      A
 Frequencies --   1468.9784              1498.5012              1514.0054
 Red. masses --      2.8452                 1.5159                 1.1461
 Frc consts  --      3.6174                 2.0056                 1.5478
 IR Inten    --    150.0583                24.5812                10.2947

                     70                     71                     72
                      A                      A                      A
 Frequencies --   1514.6703              1522.6291              1524.3847
 Red. masses --      1.0765                 1.7690                 1.0545
 Frc consts  --      1.4552                 2.4164                 1.4437
 IR Inten    --      2.0899                68.3349                 7.4529

                     73                     74                     75
                      A                      A                      A
 Frequencies --   1535.9435              1538.7852              1616.0728
 Red. masses --      2.1066                 1.1876                 6.2245
 Frc consts  --      2.9281                 1.6568                 9.5781
 IR Inten    --     11.9252                 9.1808                29.0917

                     76                     77                     78
                      A                      A                      A
 Frequencies --   1626.4905              1649.2936              1671.1521
 Red. masses --      6.6102                 5.7433                 7.8540
 Frc consts  --     10.3031                 9.2047                12.9233
 IR Inten    --     22.6615                 1.8733               303.7177

                     79                     80                     81
                      A                      A                      A
 Frequencies --   1822.6783              3031.9541              3057.1949
 Red. masses --     11.3808                 1.0707                 1.0361
 Frc consts  --     22.2763                 5.7993                 5.7056
 IR Inten    --    495.8458                41.1052                24.2314

                     82                     83                     84
                      A                      A                      A
 Frequencies --   3058.7263              3118.4219              3124.5450
 Red. masses --      1.0437                 1.0995                 1.0912
 Frc consts  --      5.7532                 6.2997                 6.2766
 IR Inten    --      8.1654                13.6012                 9.7849

                     85                     86                     87
                      A                      A                      A
 Frequencies --   3135.8743              3144.6294              3163.6541
 Red. masses --      1.1013                 1.0978                 1.1041
 Frc consts  --      6.3810                 6.3960                 6.5109
 IR Inten    --     22.6698                15.8976                11.5309

                     88                     89                     90
                      A                      A                      A
 Frequencies --   3177.1356              3181.0217              3194.2911
 Red. masses --      1.0876                 1.0913                 1.0896
 Frc consts  --      6.4681                 6.5062                 6.5506
 IR Inten    --     27.6683                11.6382                15.2271

                     91                     92                     93
                      A                      A                      A
 Frequencies --   3210.1170              3214.9736              3586.5204
 Red. masses --      1.0917                 1.0967                 1.0779
 Frc consts  --      6.6282                 6.6786                 8.1688
 IR Inten    --      2.1225                20.5489                35.8660

 - Thermochemistry -
 -------------------
 Temperature   298.150 Kelvin.  Pressure   1.00000 Atm.
 Atom     1 has atomic number  6 and mass  12.00000

 Molecular mass:   254.11676 amu.
 Principal axes and moments of inertia in atomic units:
                           1         2         3
     Eigenvalues --  2023.969719043.72155**********
           X            0.99989  -0.01448   0.00309
           Y            0.01451   0.99986  -0.00852
           Z           -0.00297   0.00857   0.99996
 This molecule is an asymmetric top.
 Rotational symmetry number  1.
 Warning -- assumption of classical behavior for rotation
           may cause significant error
 Rotational temperatures (Kelvin)      0.04279     0.00958     0.00813
 Rotational constants (GHZ):           0.89168     0.19956     0.16941
 Zero-point vibrational energy     696512.5 (Joules/Mol)
                                  166.47048 (Kcal/Mol)
 Warning -- explicit consideration of  24 degrees of freedom as
           vibrations may cause significant error
 Vibrational temperatures:     52.68    67.69   100.11   115.96   161.00
          (Kelvin)            166.42   215.37   243.48   291.56   328.31
                              351.28   362.50   393.93   422.17   524.99
                              548.62   582.67   602.49   612.97   677.57
                              744.45   778.87   806.81   893.00   902.97
                              938.93   944.23   985.78  1033.19  1054.98
                             1064.63  1074.52  1153.84  1168.65  1187.09
                             1206.87  1340.09  1367.50  1374.36  1402.38
                             1433.06  1437.26  1481.84  1502.23  1530.91
                             1537.60  1559.23  1585.94  1629.89  1656.99
                             1706.87  1723.59  1752.31  1782.57  1785.86
                             1862.54  1873.31  1897.30  1921.30  1975.87
                             1981.88  2023.93  2048.99  2065.74  2078.14
                             2081.90  2113.53  2156.01  2178.32  2179.27
                             2190.72  2193.25  2209.88  2213.97  2325.17
                             2340.16  2372.97  2404.42  2622.43  4362.31
                             4398.62  4400.82  4486.71  4495.52  4511.82
                             4524.42  4551.79  4571.19  4576.78  4595.87
                             4618.64  4625.63  5160.20

 Zero-point correction=                           0.265288 (Hartree/Particle)
 Thermal correction to Energy=                    0.281442
 Thermal correction to Enthalpy=                  0.282387
 Thermal correction to Gibbs Free Energy=         0.220951
 Sum of electronic and zero-point Energies=           -835.951977
 Sum of electronic and thermal Energies=              -835.935822
 Sum of electronic and thermal Enthalpies=            -835.934878
 Sum of electronic and thermal Free Energies=         -835.996313

                     E (Thermal)             CV                S
                      KCal/Mol        Cal/Mol-Kelvin    Cal/Mol-Kelvin
 Total                  176.608             62.313            129.301
 Electronic               0.000              0.000              0.000
 Translational            0.889              2.981             42.498
 Rotational               0.889              2.981             33.633
 Vibrational            174.830             56.351             53.170
 Vibration     1          0.594              1.982              5.434
 Vibration     2          0.595              1.979              4.938
 Vibration     3          0.598              1.969              4.165
 Vibration     4          0.600              1.962              3.876
 Vibration     5          0.607              1.940              3.236
 Vibration     6          0.608              1.936              3.172
 Vibration     7          0.618              1.903              2.676
 Vibration     8          0.625              1.880              2.444
 Vibration     9          0.639              1.836              2.109
 Vibration    10          0.651              1.798              1.893
 Vibration    11          0.659              1.772              1.772
 Vibration    12          0.664              1.759              1.717
 Vibration    13          0.676              1.722              1.572
 Vibration    14          0.688              1.686              1.454
 Vibration    15          0.738              1.545              1.101
 Vibration    16          0.751              1.510              1.034
 Vibration    17          0.770              1.459              0.945
 Vibration    18          0.782              1.429              0.896
 Vibration    19          0.788              1.414              0.872
 Vibration    20          0.828              1.315              0.735
 Vibration    21          0.872              1.211              0.616
 Vibration    22          0.896              1.159              0.562
 Vibration    23          0.916              1.116              0.522
 Vibration    24          0.981              0.988              0.415

 Optimization completed.
    -- Stationary point found.
 Normal termination of Gaussian 16 at Sun Dec 13 20:37:50 2020.

 ----------------------------------------------------------------------
 # B3LYP/6-311++G(d,p) empiricaldispersion=gd3bj scf=xqc pop=npa geom=c
 heck
 ----------------------------------------------------------------------

 --------------------------------------
 CID_23462967_JID_9070_Energie_neutraal
 --------------------------------------
 Structure from the checkpoint file:  "JID_9070.chk"
 Charge =  0 Multiplicity = 1

 SCF Done:  E(RB3LYP) =  -836.437121830     A.U. after   17 cycles
 Normal termination of Gaussian 16 at Sun Dec 13 20:45:38 2020.

 ----------------------------------------------------------------------
 # B3LYP/6-311++G(d,p) empiricaldispersion=gd3bj scf=xqc pop=npa geom=c
 heck
 ----------------------------------------------------------------------

 ------------------------------------
 CID_23462967_JID_9070_Energie_kation
 ------------------------------------
 Structure from the checkpoint file:  "JID_9070.chk"
 Charge =  1 Multiplicity = 2

 SCF Done:  E(UB3LYP) =  -836.150352693     A.U. after   25 cycles
 Normal termination of Gaussian 16 at Sun Dec 13 21:02:08 2020.
 Gaussian 16:  ES64L-G16RevA.03 25-Dec-2016

 ----------------------------------------------------------------------
 # B3LYP/6-311++G(d,p) empiricaldispersion=gd3bj scf=xqc pop=npa geom=c
 heck
 ----------------------------------------------------------------------

 -----------------------------------
 CID_23462967_JID_9070_Energie_anion
 -----------------------------------
 Structure from the checkpoint file:  "JID_9070.chk"
 Charge = -1 Multiplicity = 2

                         Standard orientation:
 ---------------------------------------------------------------------
 Center     Atomic      Atomic             Coordinates (Angstroms)
 Number     Number       Type             X           Y           Z
 ---------------------------------------------------------------------
      1          6           0        5.298494   -1.247378   -0.128895
      2          6           0        3.864268   -1.263490    0.384965
      3          7           0        3.054647   -0.205660   -0.232207
      4          6           0        1.670537   -0.281249   -0.165018
      5          7           0        0.982406   -1.413460   -0.289203
      6          6           0       -0.355417   -1.305795   -0.240494
      7          6           0       -1.031360   -0.064357   -0.050662
      8          6           0       -0.265060    1.099066    0.091741
      9          6           0        1.116075    0.986602    0.050816
     10          6           0        2.221750    1.941880    0.181391
     11          8           0        2.234055    3.158102    0.263590
     12          7           0        3.375336    1.124796    0.170189
     13          6           0       -2.509815    0.041002   -0.006770
     14          6           0       -3.289456   -0.736009    0.865114
     15          7           0       -4.618987   -0.658738    0.961806
     16          6           0       -5.243847    0.228021    0.176885
     17          6           0       -4.575227    1.065506   -0.715813
     18          6           0       -3.189831    0.968224   -0.807531
     19          6           0       -1.100543   -2.603135   -0.428548
     20          1           0        5.321499   -1.344374   -1.219055
     21          1           0        5.861038   -2.079742    0.306125
     22          1           0        5.814538   -0.321894    0.150458
     23          1           0        3.363395   -2.197742    0.121340
     24          1           0        3.838371   -1.154870    1.478618
     25          1           0       -0.739675    2.061290    0.260027
     26          1           0        4.192649    1.508961   -0.291251
     27          1           0       -2.805551   -1.447016    1.531323
     28          1           0       -6.327236    0.270787    0.270407
     29          1           0       -5.128403    1.771188   -1.327882
     30          1           0       -2.633019    1.592896   -1.500686
     31          1           0       -0.470368   -3.296171   -0.989775
     32          1           0       -1.328181   -3.071419    0.536884
     33          1           0       -2.048720   -2.458600   -0.952428
 ---------------------------------------------------------------------

 SCF Done:  E(UB3LYP) =  -836.452410389     A.U. after   31 cycles

 The electronic state is 2-A.
 Alpha  occ. eigenvalues --  -18.94658 -14.24537 -14.23009 -14.19923 -14.15581
 Alpha  occ. eigenvalues --  -10.12253 -10.10325 -10.10259 -10.09921 -10.09101
 Alpha  occ. eigenvalues --  -10.07861 -10.07712 -10.07608 -10.07503 -10.06320
 Alpha  occ. eigenvalues --  -10.04757 -10.03966 -10.03198 -10.02488  -0.92181
 Alpha  occ. eigenvalues --   -0.87756  -0.83453  -0.80321  -0.72414  -0.70687
 Alpha  occ. eigenvalues --   -0.67430  -0.67147  -0.64653  -0.61884  -0.58902
 Alpha  occ. eigenvalues --   -0.53809  -0.52177  -0.51738  -0.49434  -0.47416
 Alpha  occ. eigenvalues --   -0.44161  -0.41665  -0.40147  -0.38728  -0.37732
 Alpha  occ. eigenvalues --   -0.36897  -0.35919  -0.34948  -0.33513  -0.32493
 Alpha  occ. eigenvalues --   -0.31452  -0.30041  -0.29613  -0.29192  -0.29084
 Alpha  occ. eigenvalues --   -0.28399  -0.28032  -0.27470  -0.26665  -0.25914
 Alpha  occ. eigenvalues --   -0.24679  -0.24271  -0.24064  -0.21006  -0.18391
 Alpha  occ. eigenvalues --   -0.16862  -0.15288  -0.14600  -0.14036  -0.12995
 Alpha  occ. eigenvalues --   -0.11290  -0.08602   0.03894
 Alpha virt. eigenvalues --    0.06880   0.07093   0.07524   0.08132   0.09176
 Alpha virt. eigenvalues --    0.09624   0.09780   0.10131   0.11113   0.11413
 Alpha virt. eigenvalues --    0.11906   0.12345   0.12758   0.13126   0.13636

  Beta  occ. eigenvalues --  -18.94471 -14.24536 -14.22948 -14.19827 -14.15339
  Beta  occ. eigenvalues --  -10.12079 -10.10359 -10.10258 -10.09943 -10.09079
  Beta  occ. eigenvalues --  -10.07861 -10.07711 -10.07575 -10.07454 -10.05887
  Beta  occ. eigenvalues --  -10.04899 -10.04003 -10.02774 -10.02402  -0.92007
  Beta  occ. eigenvalues --   -0.87491  -0.83330  -0.79839  -0.72279  -0.70574
  Beta  occ. eigenvalues --   -0.67282  -0.66793  -0.64437  -0.61626  -0.58656
  Beta  occ. eigenvalues --   -0.53717  -0.52047  -0.51586  -0.48970  -0.47332
  Beta  occ. eigenvalues --   -0.43796  -0.41594  -0.40004  -0.38538  -0.37636
  Beta  occ. eigenvalues --   -0.36770  -0.35805  -0.34835  -0.33376  -0.32217
  Beta  occ. eigenvalues --   -0.31237  -0.29688  -0.29421  -0.29093  -0.28842
  Beta  occ. eigenvalues --   -0.28182  -0.27807  -0.27315  -0.26344  -0.25830
  Beta  occ. eigenvalues --   -0.24509  -0.24036  -0.23275  -0.20389  -0.17982
  Beta  occ. eigenvalues --   -0.16460  -0.15170  -0.13844  -0.13047  -0.11995
  Beta  occ. eigenvalues --   -0.10976  -0.07887
  Beta virt. eigenvalues --    0.06874   0.07439   0.07605   0.08337   0.09010
  Beta virt. eigenvalues --    0.09538   0.09741   0.10018   0.10410   0.11093
  Beta virt. eigenvalues --    0.11417   0.11940   0.12444   0.12797   0.13219

 Mulliken charges and spin densities:
               1          2
     1  C   -0.513944   0.000813
     2  C   -0.100456  -0.005717
     3  N    0.363320  -0.009841
     4  C   -0.519278   0.004740
     5  N   -0.082379   0.118247
     6  C   -0.769691   0.238579
     7  C    1.025817  -0.142722
     8  C   -0.686323   0.405452
     9  C    0.420405   0.039861
    10  C   -0.018279   0.107049
    11  O   -0.444916   0.069140
    12  N   -0.325533   0.026336
    13  C    0.362173  -0.014041
    14  C   -0.789694   0.093633
    15  N   -0.029285   0.039647
    16  C   -0.263031  -0.027195
    17  C   -0.382515   0.059775
    18  C    0.155938  -0.056753
    19  C   -0.520540  -0.031282
    20  H    0.143675  -0.000359
    21  H    0.116255  -0.000233
    22  H    0.131226  -0.000750
    23  H    0.172779   0.003159
    24  H    0.112489   0.013138
    25  H    0.166045  -0.022294
    26  H    0.252017   0.018907
    27  H    0.172864   0.011130
    28  H    0.144249   0.000825
    29  H    0.142193  -0.001608
    30  H    0.199132  -0.002384
    31  H    0.141856   0.005147
    32  H    0.104858   0.056146
    33  H    0.118571   0.003453
 Sum of Mulliken charges =  -1.00000   1.00000

 Dipole moment (field-independent basis, Debye):
    X=              1.0197    Y=             -2.8949    Z=             -1.8218  Tot=              3.5692
 Quadrupole moment (field-independent basis, Debye-Ang):
   XX=           -151.0525   YY=           -145.6917   ZZ=           -121.8451
   XY=            -18.6124   XZ=              5.9694   YZ=             -4.5719

 Summary of Natural Population Analysis:

                                       Natural Population
                Natural  -----------------------------------------------
    Atom  No    Charge         Core      Valence    Rydberg      Total
 -----------------------------------------------------------------------
      C    1   -0.28998      0.99967     2.28637    0.00394     3.28998
      C    2   -0.08774      0.99963     2.07690    0.01121     3.08774
      N    3   -0.16533      0.99963     2.65194    0.01377     3.66533
      C    4    0.21160      0.99947     1.77271    0.01621     2.78840
      N    5   -0.24422      0.99963     2.73320    0.01138     3.74422
      C    6    0.20147      0.99954     1.78643    0.01256     2.79853
      C    7   -0.09737      0.99947     2.08758    0.01033     3.09737
      C    8    0.03021      0.99950     1.96283    0.00746     2.96979
      C    9   -0.10260      0.99940     2.09202    0.01118     3.10260
      C   10    0.35039      0.99964     1.62861    0.02136     2.64961
      O   11   -0.31125      0.99987     3.30538    0.00600     4.31125
      N   12   -0.23609      0.99969     2.72273    0.01367     3.73609
      C   13   -0.02536      0.99949     2.01632    0.00955     3.02536
      C   14    0.03228      0.99954     1.95271    0.01548     2.96772
      N   15   -0.22329      0.99971     2.71253    0.01105     3.72329
      C   16    0.00557      0.99960     1.98044    0.01438     2.99443
      C   17   -0.12082      0.99956     2.11296    0.00830     3.12082
      C   18   -0.07521      0.99953     2.06756    0.00812     3.07521
      C   19   -0.30277      0.99964     2.29875    0.00438     3.30277
      H   20    0.09898      0.00000     0.39985    0.00117     0.40102
      H   21    0.09570      0.00000     0.40351    0.00079     0.40430
      H   22    0.09557      0.00000     0.40354    0.00089     0.40443
      H   23    0.10992      0.00000     0.38811    0.00197     0.39008
      H   24    0.08373      0.00000     0.41315    0.00312     0.41627
      H   25    0.09655      0.00000     0.40210    0.00135     0.40345
      H   26    0.18676      0.00000     0.31160    0.00164     0.31324
      H   27    0.09033      0.00000     0.40758    0.00210     0.40967
      H   28    0.08369      0.00000     0.41507    0.00124     0.41631
      H   29    0.09707      0.00000     0.40185    0.00108     0.40293
      H   30    0.10391      0.00000     0.39487    0.00122     0.39609
      H   31    0.10507      0.00000     0.39399    0.00095     0.39493
      H   32    0.10218      0.00000     0.39636    0.00146     0.39782
      H   33    0.10103      0.00000     0.39823    0.00074     0.39897
 =======================================================================
   * Total *    0.00000     18.99223    47.77774    0.23003    67.00000

 Normal termination of Gaussian 16 at Sun Dec 13 21:22:53 2020.
