 Gaussian 16, Revision A.03,

 -----------------------------------------------------------
 # opt freq B3LYP/6-31G(d) empiricaldispersion=gd3bj scf=xqc
 -----------------------------------------------------------

 ------------------------------
 CID_90165320_JID_8456_neutraal
 ------------------------------
 Symbolic Z-matrix:
 Charge =  0 Multiplicity = 1

 SCF Done:  E(RB3LYP) =  -733.951368474     A.U. after   14 cycles
 SCF Done:  E(RB3LYP) =  -733.955063719     A.U. after   12 cycles
 SCF Done:  E(RB3LYP) =  -733.955746158     A.U. after   12 cycles
 SCF Done:  E(RB3LYP) =  -733.956013441     A.U. after   12 cycles
 SCF Done:  E(RB3LYP) =  -733.956144427     A.U. after   11 cycles
 SCF Done:  E(RB3LYP) =  -733.956202393     A.U. after   11 cycles
 SCF Done:  E(RB3LYP) =  -733.956221408     A.U. after   10 cycles
 SCF Done:  E(RB3LYP) =  -733.956243769     A.U. after   11 cycles
 SCF Done:  E(RB3LYP) =  -733.956255250     A.U. after    9 cycles
 SCF Done:  E(RB3LYP) =  -733.956306494     A.U. after   11 cycles
 SCF Done:  E(RB3LYP) =  -733.956610874     A.U. after    6 cycles
 SCF Done:  E(RB3LYP) =  -733.956611388     A.U. after    9 cycles
 SCF Done:  E(RB3LYP) =  -733.956611607     A.U. after    7 cycles
 SCF Done:  E(RB3LYP) =  -733.956611603     A.U. after    7 cycles
 SCF Done:  E(RB3LYP) =  -733.956611602     A.U. after    7 cycles
 Optimization completed.
    -- Stationary point found.
 Normal termination of Gaussian 16 at Fri Dec 11 21:18:25 2020.

 --------------------------------------------------------------------
 #N Geom=AllCheck Guess=TCheck SCRF=Check GenChk RB3LYP/6-31G(d) Freq
 --------------------------------------------------------------------

 Structure from the checkpoint file:  "JID_8456.chk"
 ------------------------------
 CID_90165320_JID_8456_neutraal
 ------------------------------
 Charge =  0 Multiplicity = 1

 SCF Done:  E(RB3LYP) =  -733.956611602     A.U. after    1 cycles

  Exact polarizability: 257.742 -12.432 168.399   9.450   9.154 111.007
 Approx polarizability: 340.917 -22.014 293.091  19.304  17.946 173.825

                      1                      2                      3
                      A                      A                      A
 Frequencies --     17.1153                23.7725                48.4530
 Red. masses --      1.8625                 2.4832                 3.6224
 Frc consts  --      0.0003                 0.0008                 0.0050
 IR Inten    --      0.0163                 0.0342                 0.1226

                      4                      5                      6
                      A                      A                      A
 Frequencies --     68.7021                74.3072               109.3998
 Red. masses --      4.4375                 4.8167                 3.7505
 Frc consts  --      0.0123                 0.0157                 0.0264
 IR Inten    --      0.2443                 0.5404                 0.2213

                      7                      8                      9
                      A                      A                      A
 Frequencies --    126.3471               200.8673               228.4611
 Red. masses --      3.4511                 4.8129                 3.8647
 Frc consts  --      0.0325                 0.1144                 0.1188
 IR Inten    --      0.2122                 0.0405                 0.2878

                     10                     11                     12
                      A                      A                      A
 Frequencies --    256.5454               290.4150               314.2327
 Red. masses --      3.6368                 3.9364                 4.3790
 Frc consts  --      0.1410                 0.1956                 0.2548
 IR Inten    --      0.4480                 0.6233                 2.4394

                     13                     14                     15
                      A                      A                      A
 Frequencies --    323.5495               395.3336               411.2484
 Red. masses --      4.8794                 5.4115                 2.5101
 Frc consts  --      0.3010                 0.4983                 0.2501
 IR Inten    --      0.4142                 1.0605                 9.0578

                     16                     17                     18
                      A                      A                      A
 Frequencies --    472.5234               487.5441               501.0514
 Red. masses --      1.8580                 1.6364                 2.8733
 Frc consts  --      0.2444                 0.2292                 0.4250
 IR Inten    --     30.8092                37.0002                22.0759

                     19                     20                     21
                      A                      A                      A
 Frequencies --    557.7816               576.0033               593.9209
 Red. masses --      3.8213                 4.2917                 4.6007
 Frc consts  --      0.7005                 0.8389                 0.9562
 IR Inten    --      1.3131                 5.9944                 1.3459

                     22                     23                     24
                      A                      A                      A
 Frequencies --    606.3152               629.6980               636.8886
 Red. masses --      4.2045                 2.9067                 6.2192
 Frc consts  --      0.9107                 0.6791                 1.4863
 IR Inten    --      0.8117                 0.7674                 8.9912

                     25                     26                     27
                      A                      A                      A
 Frequencies --    640.9161               721.1681               743.2271
 Red. masses --      5.5468                 1.9094                 3.1382
 Frc consts  --      1.3424                 0.5851                 1.0214
 IR Inten    --      6.3535                18.3630                 0.5384

                     28                     29                     30
                      A                      A                      A
 Frequencies --    752.7687               773.6334               779.2070
 Red. masses --      2.7905                 1.6218                 1.5248
 Frc consts  --      0.9317                 0.5719                 0.5455
 IR Inten    --      8.2852                40.7873                 9.3465

                     31                     32                     33
                      A                      A                      A
 Frequencies --    805.0012               831.0675               846.9753
 Red. masses --      2.0263                 1.6475                 5.7555
 Frc consts  --      0.7737                 0.6704                 2.4326
 IR Inten    --      6.6983                 0.7017                 9.6916

                     34                     35                     36
                      A                      A                      A
 Frequencies --    867.0029               868.6733               898.5190
 Red. masses --      1.3020                 3.2508                 2.6364
 Frc consts  --      0.5766                 1.4453                 1.2541
 IR Inten    --      0.4019                 1.4786                 2.6210

                     37                     38                     39
                      A                      A                      A
 Frequencies --    918.5281               934.8029               950.0491
 Red. masses --      1.3586                 1.4130                 2.4838
 Frc consts  --      0.6753                 0.7275                 1.3209
 IR Inten    --      0.2141                 1.3487                 3.8706

                     40                     41                     42
                      A                      A                      A
 Frequencies --    956.4181               969.8893               972.4942
 Red. masses --      1.2865                 2.1012                 1.3354
 Frc consts  --      0.6934                 1.1645                 0.7441
 IR Inten    --      1.4368                 0.9803                 0.5895

                     43                     44                     45
                      A                      A                      A
 Frequencies --    985.7944               994.6816               997.6997
 Red. masses --      1.5999                 1.3769                 1.2444
 Frc consts  --      0.9160                 0.8026                 0.7298
 IR Inten    --      0.4463                 0.3221                 0.1119

                     46                     47                     48
                      A                      A                      A
 Frequencies --   1020.4382              1056.6240              1065.1649
 Red. masses --      6.1279                 2.7113                 2.1050
 Frc consts  --      3.7596                 1.7835                 1.4071
 IR Inten    --      0.7651                 2.6796                 1.9833

                     49                     50                     51
                      A                      A                      A
 Frequencies --   1097.5536              1103.4460              1109.6326
 Red. masses --      3.5202                 2.1565                 1.8770
 Frc consts  --      2.4984                 1.5470                 1.3617
 IR Inten    --      0.3350                 3.7945                12.2817

                     52                     53                     54
                      A                      A                      A
 Frequencies --   1119.3317              1195.0440              1197.8707
 Red. masses --      1.7963                 1.0957                 1.3406
 Frc consts  --      1.3260                 0.9220                 1.1333
 IR Inten    --      1.6337                 0.1587                10.4657

                     55                     56                     57
                      A                      A                      A
 Frequencies --   1204.8912              1216.7156              1217.6262
 Red. masses --      1.1673                 1.1403                 1.4706
 Frc consts  --      0.9985                 0.9946                 1.2846
 IR Inten    --      0.9228                 1.5779                 0.4785

                     58                     59                     60
                      A                      A                      A
 Frequencies --   1237.7228              1254.9867              1271.0050
 Red. masses --      1.5743                 1.7476                 1.7853
 Frc consts  --      1.4210                 1.6217                 1.6992
 IR Inten    --     40.8689                 3.8484                39.5482

                     61                     62                     63
                      A                      A                      A
 Frequencies --   1274.4327              1299.2792              1313.1499
 Red. masses --      1.6760                 2.0765                 1.2728
 Frc consts  --      1.6039                 2.0654                 1.2931
 IR Inten    --     30.3658                11.4146                 0.4448

                     64                     65                     66
                      A                      A                      A
 Frequencies --   1332.1775              1336.3220              1340.2263
 Red. masses --      2.6089                 2.6636                 1.4562
 Frc consts  --      2.7279                 2.8024                 1.5411
 IR Inten    --      6.7624                 4.0970                 9.1808

                     67                     68                     69
                      A                      A                      A
 Frequencies --   1354.6883              1357.2337              1369.0414
 Red. masses --      1.4202                 1.4762                 1.2182
 Frc consts  --      1.5356                 1.6021                 1.3453
 IR Inten    --      1.2041                 1.0921                 0.7233

                     70                     71                     72
                      A                      A                      A
 Frequencies --   1369.2814              1388.8376              1418.1700
 Red. masses --      1.7767                 2.2246                 1.6141
 Frc consts  --      1.9627                 2.5281                 1.9127
 IR Inten    --      1.3538                43.9090                13.4628

                     73                     74                     75
                      A                      A                      A
 Frequencies --   1481.2415              1506.5071              1515.0234
 Red. masses --      2.4051                 2.7270                 1.0783
 Frc consts  --      3.1092                 3.6465                 1.4583
 IR Inten    --     35.6053                40.7690                 0.0607

                     76                     77                     78
                      A                      A                      A
 Frequencies --   1524.2881              1525.3289              1529.8914
 Red. masses --      1.2508                 1.1464                 1.7724
 Frc consts  --      1.7122                 1.5716                 2.4442
 IR Inten    --      4.5233                 1.5299                 3.1378

                     79                     80                     81
                      A                      A                      A
 Frequencies --   1548.9641              1549.9287              1633.0498
 Red. masses --      2.3057                 1.1432                 5.1085
 Frc consts  --      3.2594                 1.6181                 8.0268
 IR Inten    --     13.0193                 1.6077                 2.3697

                     82                     83                     84
                      A                      A                      A
 Frequencies --   1649.9027              1663.5082              1665.9395
 Red. masses --      5.7243                 5.5570                 6.1311
 Frc consts  --      9.1810                 9.0603                10.0256
 IR Inten    --      8.6952                15.5800                 2.3286

                     85                     86                     87
                      A                      A                      A
 Frequencies --   3047.5325              3051.7449              3056.0163
 Red. masses --      1.0659                 1.0656                 1.0631
 Frc consts  --      5.8329                 5.8470                 5.8497
 IR Inten    --     20.7873                25.6725                25.8180

                     88                     89                     90
                      A                      A                      A
 Frequencies --   3069.1560              3087.0383              3089.1132
 Red. masses --      1.0646                 1.0950                 1.0880
 Frc consts  --      5.9083                 6.1479                 6.1171
 IR Inten    --     63.6884                19.2972                 7.4014

                     91                     92                     93
                      A                      A                      A
 Frequencies --   3104.4828              3105.6378              3119.4393
 Red. masses --      1.0988                 1.1024                 1.1037
 Frc consts  --      6.2394                 6.2646                 6.3280
 IR Inten    --     14.9145                26.8992                79.8439

                     94                     95                     96
                      A                      A                      A
 Frequencies --   3183.1672              3183.3864              3188.9959
 Red. masses --      1.0854                 1.0852                 1.0876
 Frc consts  --      6.4796                 6.4793                 6.5165
 IR Inten    --      1.7740                 6.5161                 2.2635

                     97                     98                     99
                      A                      A                      A
 Frequencies --   3192.8513              3198.5469              3205.3127
 Red. masses --      1.0898                 1.0912                 1.0940
 Frc consts  --      6.5456                 6.5774                 6.6223
 IR Inten    --     21.5791                 9.9888                23.7257

                    100                    101                    102
                      A                      A                      A
 Frequencies --   3209.9275              3213.9441              3696.3256
 Red. masses --      1.0965                 1.0980                 1.0652
 Frc consts  --      6.6563                 6.6826                 8.5745
 IR Inten    --     30.3100                20.2576               129.5087

 - Thermochemistry -
 -------------------
 Temperature   298.150 Kelvin.  Pressure   1.00000 Atm.
 Atom     1 has atomic number  6 and mass  12.00000

 Molecular mass:   238.13577 amu.
 Principal axes and moments of inertia in atomic units:
                           1         2         3
     Eigenvalues --  1676.265518854.655799719.00651
           X            0.99999   0.00319   0.00029
           Y           -0.00320   0.99989   0.01431
           Z           -0.00024  -0.01431   0.99990
 This molecule is an asymmetric top.
 Rotational symmetry number  1.
 Warning -- assumption of classical behavior for rotation
           may cause significant error
 Rotational temperatures (Kelvin)      0.05167     0.00978     0.00891
 Rotational constants (GHZ):           1.07664     0.20382     0.18569
 Zero-point vibrational energy     810326.9 (Joules/Mol)
                                  193.67278 (Kcal/Mol)
 Warning -- explicit consideration of  22 degrees of freedom as
           vibrations may cause significant error
 Vibrational temperatures:     24.63    34.20    69.71    98.85   106.91
          (Kelvin)            157.40   181.79   289.00   328.70   369.11
                              417.84   452.11   465.52   568.80   591.69
                              679.86   701.47   720.90   802.52   828.74
                              854.52   872.35   905.99   916.34   922.14
                             1037.60  1069.34  1083.07  1113.09  1121.11
                             1158.22  1195.72  1218.61  1247.42  1249.83
                             1292.77  1321.56  1344.97  1366.91  1376.07
                             1395.45  1399.20  1418.34  1431.12  1435.47
                             1468.18  1520.25  1532.53  1579.13  1587.61
                             1596.51  1610.47  1719.40  1723.47  1733.57
                             1750.58  1751.89  1780.81  1805.65  1828.69
                             1833.62  1869.37  1889.33  1916.71  1922.67
                             1928.29  1949.09  1952.76  1969.75  1970.09
                             1998.23  2040.43  2131.18  2167.53  2179.78
                             2193.11  2194.61  2201.17  2228.61  2230.00
                             2349.59  2373.84  2393.42  2396.92  4384.72
                             4390.78  4396.93  4415.83  4441.56  4444.54
                             4466.66  4468.32  4488.18  4579.87  4580.18
                             4588.25  4593.80  4602.00  4611.73  4618.37
                             4624.15  5318.19

 Zero-point correction=                           0.308637 (Hartree/Particle)
 Thermal correction to Energy=                    0.323991
 Thermal correction to Enthalpy=                  0.324936
 Thermal correction to Gibbs Free Energy=         0.263389
 Sum of electronic and zero-point Energies=           -733.647974
 Sum of electronic and thermal Energies=              -733.632620
 Sum of electronic and thermal Enthalpies=            -733.631676
 Sum of electronic and thermal Free Energies=         -733.693222

                     E (Thermal)             CV                S
                      KCal/Mol        Cal/Mol-Kelvin    Cal/Mol-Kelvin
 Total                  203.308             60.668            129.535
 Electronic               0.000              0.000              0.000
 Translational            0.889              2.981             42.304
 Rotational               0.889              2.981             33.333
 Vibrational            201.530             54.706             53.897
 Vibration     1          0.593              1.986              6.944
 Vibration     2          0.593              1.985              6.291
 Vibration     3          0.595              1.978              4.880
 Vibration     4          0.598              1.969              4.190
 Vibration     5          0.599              1.966              4.036
 Vibration     6          0.606              1.942              3.280
 Vibration     7          0.611              1.927              3.001
 Vibration     8          0.638              1.839              2.125
 Vibration     9          0.651              1.798              1.891
 Vibration    10          0.666              1.752              1.685
 Vibration    11          0.686              1.692              1.472
 Vibration    12          0.702              1.647              1.340
 Vibration    13          0.708              1.628              1.292
 Vibration    14          0.762              1.480              0.980
 Vibration    15          0.775              1.446              0.922
 Vibration    16          0.829              1.311              0.731
 Vibration    17          0.843              1.278              0.690
 Vibration    18          0.856              1.248              0.655
 Vibration    19          0.913              1.123              0.528
 Vibration    20          0.932              1.083              0.493
 Vibration    21          0.952              1.045              0.460
 Vibration    22          0.965              1.018              0.439

 Optimization completed.
    -- Stationary point found.
 Normal termination of Gaussian 16 at Fri Dec 11 21:35:38 2020.

 ----------------------------------------------------------------------
 # B3LYP/6-311++G(d,p) empiricaldispersion=gd3bj scf=xqc pop=npa geom=c
 heck
 ----------------------------------------------------------------------

 --------------------------------------
 CID_90165320_JID_8456_Energie_neutraal
 --------------------------------------
 Structure from the checkpoint file:  "JID_8456.chk"
 Charge =  0 Multiplicity = 1

 SCF Done:  E(RB3LYP) =  -734.151772969     A.U. after   15 cycles
 Normal termination of Gaussian 16 at Fri Dec 11 21:43:31 2020.

 ----------------------------------------------------------------------
 # B3LYP/6-311++G(d,p) empiricaldispersion=gd3bj scf=xqc pop=npa geom=c
 heck
 ----------------------------------------------------------------------

 ------------------------------------
 CID_90165320_JID_8456_Energie_kation
 ------------------------------------
 Structure from the checkpoint file:  "JID_8456.chk"
 Charge =  1 Multiplicity = 2

 SCF Done:  E(UB3LYP) =  -733.867718268     A.U. after   25 cycles
 Normal termination of Gaussian 16 at Fri Dec 11 22:02:12 2020.
 Gaussian 16:  ES64L-G16RevA.03 25-Dec-2016

 ----------------------------------------------------------------------
 # B3LYP/6-311++G(d,p) empiricaldispersion=gd3bj scf=xqc pop=npa geom=c
 heck
 ----------------------------------------------------------------------

 -----------------------------------
 CID_90165320_JID_8456_Energie_anion
 -----------------------------------
 Structure from the checkpoint file:  "JID_8456.chk"
 Charge = -1 Multiplicity = 2

                         Standard orientation:
 ---------------------------------------------------------------------
 Center     Atomic      Atomic             Coordinates (Angstroms)
 Number     Number       Type             X           Y           Z
 ---------------------------------------------------------------------
      1          6           0       -4.786114   -0.790653    0.972503
      2          6           0       -4.818476   -1.039247   -0.566020
      3          6           0       -3.490085   -0.467978   -1.115304
      4          6           0       -2.549608   -0.413442    0.108851
      5          6           0       -3.508410    0.029859    1.232954
      6          6           0       -1.322751    0.450704   -0.071223
      7          6           0       -1.431727    1.820326   -0.329350
      8          6           0       -0.308084    2.631099   -0.479510
      9          6           0        0.959620    2.066140   -0.382257
     10          6           0        1.119199    0.695462   -0.143502
     11          6           0       -0.033739   -0.100635    0.022179
     12          8           0        0.056549   -1.439996    0.299968
     13          6           0        2.478157    0.104580   -0.044952
     14          6           0        3.447545    0.686364    0.788224
     15          6           0        4.730643    0.150950    0.874427
     16          6           0        5.070746   -0.984932    0.136510
     17          6           0        4.119708   -1.574780   -0.695686
     18          6           0        2.836547   -1.034391   -0.789062
     19          1           0       -4.729454   -1.746331    1.505869
     20          1           0       -5.684918   -0.280324    1.333532
     21          1           0       -4.896167   -2.111035   -0.777480
     22          1           0       -5.682866   -0.562997   -1.040106
     23          1           0       -3.641981    0.548096   -1.500015
     24          1           0       -3.071231   -1.060982   -1.934706
     25          1           0       -2.223042   -1.433595    0.331257
     26          1           0       -3.716601    1.103071    1.135607
     27          1           0       -3.087436   -0.129151    2.231144
     28          1           0       -2.421920    2.260825   -0.409215
     29          1           0       -0.420575    3.692511   -0.678715
     30          1           0        1.847148    2.677876   -0.516593
     31          1           0        0.992041   -1.658351    0.449730
     32          1           0        3.178738    1.557782    1.378020
     33          1           0        5.465056    0.615745    1.526415
     34          1           0        6.069937   -1.404611    0.208533
     35          1           0        4.377979   -2.450253   -1.284902
     36          1           0        2.113879   -1.474875   -1.470800
 ---------------------------------------------------------------------

 SCF Done:  E(UB3LYP) =  -734.141162569     A.U. after   33 cycles
 SCF Done:  E(UB3LYP) =  -734.141162569     a.u. after    1 cycles

 The electronic state is 2-A.
 Alpha  occ. eigenvalues --  -19.03461 -10.11104 -10.06272 -10.06224 -10.06205
 Alpha  occ. eigenvalues --  -10.06163 -10.05880 -10.05858 -10.05746 -10.05598
 Alpha  occ. eigenvalues --  -10.05545 -10.05456 -10.05441 -10.05434 -10.04960
 Alpha  occ. eigenvalues --  -10.04902 -10.04861 -10.04579  -0.94571  -0.74866
 Alpha  occ. eigenvalues --   -0.73987  -0.72059  -0.66295  -0.63658  -0.63198
 Alpha  occ. eigenvalues --   -0.60485  -0.60404  -0.58397  -0.52015  -0.49685
 Alpha  occ. eigenvalues --   -0.48448  -0.47931  -0.46252  -0.44430  -0.42519
 Alpha  occ. eigenvalues --   -0.40022  -0.38656  -0.37497  -0.35854  -0.34604
 Alpha  occ. eigenvalues --   -0.33934  -0.33205  -0.31403  -0.31051  -0.30861
 Alpha  occ. eigenvalues --   -0.30402  -0.29258  -0.28013  -0.26399  -0.25829
 Alpha  occ. eigenvalues --   -0.25203  -0.24237  -0.23794  -0.23658  -0.23535
 Alpha  occ. eigenvalues --   -0.23009  -0.21797  -0.21531  -0.20902  -0.20658
 Alpha  occ. eigenvalues --   -0.15719  -0.14573  -0.11926  -0.10371   0.04992
 Alpha virt. eigenvalues --    0.06349   0.07267   0.07942   0.08487   0.08584
 Alpha virt. eigenvalues --    0.08785   0.09414   0.09878   0.09904   0.10818
 Alpha virt. eigenvalues --    0.11106   0.11222   0.11467   0.11778   0.12282

  Beta  occ. eigenvalues --  -19.03458 -10.11057 -10.06256 -10.06210 -10.06205
  Beta  occ. eigenvalues --  -10.06196 -10.05858 -10.05851 -10.05734 -10.05533
  Beta  occ. eigenvalues --  -10.05442 -10.05389 -10.05368 -10.05325 -10.04993
  Beta  occ. eigenvalues --  -10.04765 -10.04659 -10.04425  -0.94547  -0.74659
  Beta  occ. eigenvalues --   -0.73837  -0.71935  -0.65998  -0.63487  -0.63006
  Beta  occ. eigenvalues --   -0.60457  -0.60178  -0.58257  -0.51718  -0.49579
  Beta  occ. eigenvalues --   -0.48379  -0.47690  -0.46205  -0.44344  -0.42407
  Beta  occ. eigenvalues --   -0.39898  -0.38597  -0.37435  -0.35765  -0.34453
  Beta  occ. eigenvalues --   -0.33823  -0.33059  -0.31360  -0.30982  -0.30788
  Beta  occ. eigenvalues --   -0.30295  -0.29093  -0.27940  -0.26183  -0.25672
  Beta  occ. eigenvalues --   -0.24754  -0.24151  -0.23769  -0.23622  -0.23445
  Beta  occ. eigenvalues --   -0.22886  -0.21708  -0.21333  -0.20843  -0.20546
  Beta  occ. eigenvalues --   -0.14625  -0.14048  -0.11244  -0.09920
  Beta virt. eigenvalues --    0.06899   0.07206   0.08015   0.08566   0.08725
  Beta virt. eigenvalues --    0.08830   0.08976   0.09520   0.09868   0.10029
  Beta virt. eigenvalues --    0.11045   0.11271   0.11381   0.11412   0.11872

 Mulliken charges and spin densities:
               1          2
     1  C    0.075400  -0.528631
     2  C    0.225813  -0.676695
     3  C   -0.513185   0.112302
     4  C    0.319699  -0.056014
     5  C   -0.400285  -0.013139
     6  C    1.081153   0.120157
     7  C   -0.561080  -0.033751
     8  C    0.107007  -0.584908
     9  C   -0.631281   0.406627
    10  C    1.059511   0.281306
    11  C   -1.780895   0.120893
    12  O   -0.283522  -0.002813
    13  C    1.357373   0.002444
    14  C   -0.492253  -0.093787
    15  C   -0.388883   0.160938
    16  C   -0.184219  -0.094367
    17  C   -0.249492   0.095805
    18  C   -0.794048   0.044629
    19  H    0.062805   0.060255
    20  H   -0.281479   0.428725
    21  H   -0.001597   0.127566
    22  H   -0.185597   0.318891
    23  H    0.117800   0.030848
    24  H    0.069286   0.085410
    25  H    0.267824  -0.021421
    26  H    0.021073   0.120920
    27  H    0.084854   0.071137
    28  H   -0.054241   0.168923
    29  H    0.017294   0.119720
    30  H    0.069612   0.065166
    31  H    0.311843   0.017897
    32  H    0.158330  -0.007598
    33  H    0.086231   0.043034
    34  H    0.090292   0.008606
    35  H    0.058501   0.083615
    36  H    0.160355   0.017307
 Sum of Mulliken charges =  -1.00000   1.00000

 Dipole moment (field-independent basis, Debye):
    X=              2.5823    Y=             -0.7836    Z=              0.3065  Tot=              2.7159
 Quadrupole moment (field-independent basis, Debye-Ang):
   XX=           -202.8141   YY=           -130.4507   ZZ=           -127.3390
   XY=              1.6485   XZ=              3.7362   YZ=              1.5138

 Summary of Natural Population Analysis:

                                       Natural Population
                Natural  -----------------------------------------------
    Atom  No    Charge         Core      Valence    Rydberg      Total
 -----------------------------------------------------------------------
      C    1   -0.19380      0.99965     2.18613    0.00802     3.19380
      C    2   -0.19447      0.99965     2.18679    0.00803     3.19447
      C    3   -0.18387      0.99963     2.17603    0.00822     3.18387
      C    4   -0.12052      0.99957     2.10947    0.01149     3.12052
      C    5   -0.18347      0.99963     2.17528    0.00856     3.18347
      C    6   -0.03812      0.99946     2.02858    0.01008     3.03812
      C    7   -0.07076      0.99953     2.06215    0.00907     3.07076
      C    8   -0.12648      0.99957     2.11696    0.00994     3.12648
      C    9   -0.07446      0.99954     2.06671    0.00821     3.07446
      C   10   -0.04839      0.99946     2.03901    0.00992     3.04839
      C   11    0.17683      0.99930     1.81262    0.01125     2.82317
      O   12   -0.35226      0.99988     3.34662    0.00577     4.35226
      C   13    0.00065      0.99950     1.98836    0.01149     2.99935
      C   14   -0.09055      0.99953     2.08245    0.00857     3.09055
      C   15   -0.10325      0.99957     2.09311    0.01056     3.10325
      C   16   -0.07080      0.99957     2.06039    0.01084     3.07080
      C   17   -0.11215      0.99957     2.10193    0.01065     3.11215
      C   18   -0.09996      0.99953     2.09116    0.00928     3.09996
      H   19    0.09276      0.00000     0.40621    0.00102     0.40724
      H   20    0.09865      0.00000     0.39995    0.00140     0.40135
      H   21    0.09409      0.00000     0.40493    0.00098     0.40591
      H   22    0.09720      0.00000     0.40171    0.00109     0.40280
      H   23    0.09461      0.00000     0.40410    0.00129     0.40539
      H   24    0.09964      0.00000     0.39955    0.00081     0.40036
      H   25    0.10745      0.00000     0.39034    0.00221     0.39255
      H   26    0.09504      0.00000     0.40372    0.00124     0.40496
      H   27    0.09920      0.00000     0.39999    0.00082     0.40080
      H   28    0.09322      0.00000     0.40518    0.00160     0.40678
      H   29    0.09531      0.00000     0.40382    0.00087     0.40469
      H   30    0.09626      0.00000     0.40230    0.00144     0.40374
      H   31    0.24373      0.00000     0.25379    0.00248     0.25627
      H   32    0.09833      0.00000     0.40066    0.00102     0.40167
      H   33    0.09359      0.00000     0.40555    0.00086     0.40641
      H   34    0.09124      0.00000     0.40791    0.00084     0.40876
      H   35    0.09487      0.00000     0.40421    0.00093     0.40513
      H   36    0.10066      0.00000     0.39832    0.00102     0.39934
 =======================================================================
   * Total *   -0.00000     17.99212    45.81601    0.19187    64.00000

 Normal termination of Gaussian 16 at Fri Dec 11 22:28:26 2020.
