 Gaussian 16, Revision A.03,

 -----------------------------------------------------------
 # opt freq B3LYP/6-31G(d) empiricaldispersion=gd3bj scf=xqc
 -----------------------------------------------------------

 -------------------------------
 CID_140527084_JID_2209_neutraal
 -------------------------------
 Symbolic Z-matrix:
 Charge =  0 Multiplicity = 1

 SCF Done:  E(RB3LYP) =  -505.247890841     A.U. after   15 cycles
 SCF Done:  E(RB3LYP) =  -505.250495324     A.U. after   13 cycles
 SCF Done:  E(RB3LYP) =  -505.249447629     A.U. after   12 cycles
 SCF Done:  E(RB3LYP) =  -505.250831903     A.U. after   12 cycles
 SCF Done:  E(RB3LYP) =  -505.251387482     A.U. after   13 cycles
 SCF Done:  E(RB3LYP) =  -505.251401807     A.U. after   12 cycles
 SCF Done:  E(RB3LYP) =  -505.251628309     A.U. after   11 cycles
 SCF Done:  E(RB3LYP) =  -505.251717733     A.U. after    9 cycles
 SCF Done:  E(RB3LYP) =  -505.251834978     A.U. after   11 cycles
 SCF Done:  E(RB3LYP) =  -505.251882092     A.U. after   11 cycles
 SCF Done:  E(RB3LYP) =  -505.252728044     A.U. after   12 cycles
 SCF Done:  E(RB3LYP) =  -505.252881872     A.U. after   11 cycles
 SCF Done:  E(RB3LYP) =  -505.252887284     A.U. after    9 cycles
 SCF Done:  E(RB3LYP) =  -505.252888014     A.U. after    8 cycles
 SCF Done:  E(RB3LYP) =  -505.252888130     A.U. after    7 cycles
 Optimization completed.
    -- Stationary point found.
 Normal termination of Gaussian 16 at Wed Dec  9 17:02:01 2020.

 --------------------------------------------------------------------
 #N Geom=AllCheck Guess=TCheck SCRF=Check GenChk RB3LYP/6-31G(d) Freq
 --------------------------------------------------------------------

 Structure from the checkpoint file:  "JID_2209.chk"
 -------------------------------
 CID_140527084_JID_2209_neutraal
 -------------------------------
 Charge =  0 Multiplicity = 1

 SCF Done:  E(RB3LYP) =  -505.252888130     A.U. after    1 cycles

  Exact polarizability: 151.418  -0.918 118.514   3.098  -3.339  94.918
 Approx polarizability: 202.319  -8.540 168.048   8.028 -13.284 145.229

                      1                      2                      3
                      A                      A                      A
 Frequencies --     38.1573                51.8672                69.1647
 Red. masses --      3.9423                 2.3669                 2.7162
 Frc consts  --      0.0034                 0.0038                 0.0077
 IR Inten    --      3.6687                 0.2492                 0.6028

                      4                      5                      6
                      A                      A                      A
 Frequencies --    103.2459               121.9317               133.4834
 Red. masses --      2.3971                 1.1634                 1.4903
 Frc consts  --      0.0151                 0.0102                 0.0156
 IR Inten    --      0.5338                 0.1210                 1.2928

                      7                      8                      9
                      A                      A                      A
 Frequencies --    147.8232               167.0319               203.5095
 Red. masses --      1.4227                 1.8015                 2.5757
 Frc consts  --      0.0183                 0.0296                 0.0629
 IR Inten    --      0.2350                 2.1824                 0.0442

                     10                     11                     12
                      A                      A                      A
 Frequencies --    219.2702               230.9630               237.8507
 Red. masses --      1.8902                 1.6819                 1.6129
 Frc consts  --      0.0535                 0.0529                 0.0538
 IR Inten    --      0.5557                 0.9065                 0.6621

                     13                     14                     15
                      A                      A                      A
 Frequencies --    269.8975               279.1692               291.7909
 Red. masses --      2.6509                 1.1641                 2.5465
 Frc consts  --      0.1138                 0.0535                 0.1277
 IR Inten    --      0.3716                 0.2378                 0.3209

                     16                     17                     18
                      A                      A                      A
 Frequencies --    320.4968               357.3050               397.2875
 Red. masses --      3.1489                 2.5689                 2.7312
 Frc consts  --      0.1906                 0.1932                 0.2540
 IR Inten    --      4.7185                 0.5713                 0.1900

                     19                     20                     21
                      A                      A                      A
 Frequencies --    400.2879               486.8287               529.8209
 Red. masses --      3.4604                 3.0962                 3.4653
 Frc consts  --      0.3267                 0.4323                 0.5731
 IR Inten    --      4.6418                 0.9192                 5.6505

                     22                     23                     24
                      A                      A                      A
 Frequencies --    580.4276               625.3205               719.9292
 Red. masses --      3.1771                 3.4018                 2.4126
 Frc consts  --      0.6306                 0.7837                 0.7368
 IR Inten    --      1.7606                 6.0480                12.5493

                     25                     26                     27
                      A                      A                      A
 Frequencies --    754.4107               856.0939               859.0317
 Red. masses --      2.9178                 2.5064                 2.5125
 Frc consts  --      0.9784                 1.0823                 1.0924
 IR Inten    --      8.2364                 7.9495                 3.6692

                     28                     29                     30
                      A                      A                      A
 Frequencies --    909.6642               942.0432               947.3403
 Red. masses --      2.1431                 1.1704                 1.9837
 Frc consts  --      1.0448                 0.6120                 1.0489
 IR Inten    --      6.2658                 1.8546                38.8538

                     31                     32                     33
                      A                      A                      A
 Frequencies --    978.6976              1002.6707              1023.0308
 Red. masses --      1.4460                 1.8065                 1.0937
 Frc consts  --      0.8160                 1.0700                 0.6744
 IR Inten    --      0.8117                 3.5692                26.0548

                     34                     35                     36
                      A                      A                      A
 Frequencies --   1042.7491              1069.1841              1079.9857
 Red. masses --      1.4169                 1.7265                 1.6395
 Frc consts  --      0.9077                 1.1628                 1.1267
 IR Inten    --      5.5864                 9.5077                 2.4467

                     37                     38                     39
                      A                      A                      A
 Frequencies --   1088.6649              1089.7605              1127.4690
 Red. masses --      1.7791                 1.6453                 2.1869
 Frc consts  --      1.2423                 1.1512                 1.6379
 IR Inten    --     42.0824                22.1032                13.1914

                     40                     41                     42
                      A                      A                      A
 Frequencies --   1147.2397              1159.9530              1178.5940
 Red. masses --      2.2651                 2.5654                 2.1505
 Frc consts  --      1.7565                 2.0337                 1.7601
 IR Inten    --      6.9661                13.0741                 2.7001

                     43                     44                     45
                      A                      A                      A
 Frequencies --   1221.8794              1275.7818              1330.7805
 Red. masses --      2.2537                 2.2797                 1.4216
 Frc consts  --      1.9825                 2.1861                 1.4833
 IR Inten    --     24.3477                 6.5452                47.0526

                     46                     47                     48
                      A                      A                      A
 Frequencies --   1349.6154              1356.2857              1412.1541
 Red. masses --      1.7397                 1.3756                 1.3094
 Frc consts  --      1.8670                 1.4908                 1.5385
 IR Inten    --     38.8453                 4.0601                 2.3856

                     49                     50                     51
                      A                      A                      A
 Frequencies --   1426.3020              1428.4888              1437.7672
 Red. masses --      1.2785                 1.2549                 1.2536
 Frc consts  --      1.5324                 1.5088                 1.5269
 IR Inten    --      1.8906                 4.2175                 1.6367

                     52                     53                     54
                      A                      A                      A
 Frequencies --   1444.4732              1451.1156              1506.1481
 Red. masses --      1.2132                 1.2113                 1.0456
 Frc consts  --      1.4915                 1.5028                 1.3974
 IR Inten    --      4.9314                 0.7233                 6.4296

                     55                     56                     57
                      A                      A                      A
 Frequencies --   1507.6232              1512.4671              1513.8380
 Red. masses --      1.0532                 1.0710                 1.0483
 Frc consts  --      1.4104                 1.4435                 1.4155
 IR Inten    --      2.9873                33.1394                 7.8656

                     58                     59                     60
                      A                      A                      A
 Frequencies --   1515.8399              1518.7012              1531.1301
 Red. masses --      1.0450                 1.0477                 1.0546
 Frc consts  --      1.4148                 1.4237                 1.4566
 IR Inten    --      2.0632                 5.0631                 3.1888

                     61                     62                     63
                      A                      A                      A
 Frequencies --   1533.5950              1541.4742              1547.8174
 Red. masses --      1.0443                 1.0653                 1.0547
 Frc consts  --      1.4471                 1.4914                 1.4888
 IR Inten    --      5.1959                 4.2873                 2.4084

                     64                     65                     66
                      A                      A                      A
 Frequencies --   1694.1732              1728.5116              1764.8604
 Red. masses --      6.8392                 7.2204                 8.2843
 Frc consts  --     11.5656                12.7103                15.2029
 IR Inten    --    174.1548                 8.7742               104.0962

                     67                     68                     69
                      A                      A                      A
 Frequencies --   3006.2408              3034.9143              3035.4204
 Red. masses --      1.0827                 1.0448                 1.0378
 Frc consts  --      5.7653                 5.6697                 5.6339
 IR Inten    --     23.8013                48.7420                13.8447

                     70                     71                     72
                      A                      A                      A
 Frequencies --   3038.9981              3050.3229              3058.5244
 Red. masses --      1.0477                 1.0362                 1.0399
 Frc consts  --      5.7009                 5.6806                 5.7315
 IR Inten    --     25.5418                28.6083                28.6588

                     73                     74                     75
                      A                      A                      A
 Frequencies --   3082.5167              3082.9518              3098.7670
 Red. masses --      1.0990                 1.0961                 1.0919
 Frc consts  --      6.1528                 6.1379                 6.1776
 IR Inten    --     14.3936                22.1010                11.5933

                     76                     77                     78
                      A                      A                      A
 Frequencies --   3112.7599              3121.9824              3125.6908
 Red. masses --      1.1017                 1.0980                 1.1006
 Frc consts  --      6.2893                 6.3057                 6.3354
 IR Inten    --     32.0609                22.0923                15.0330

                     79                     80                     81
                      A                      A                      A
 Frequencies --   3130.5604              3148.9342              3149.8462
 Red. masses --      1.1010                 1.1010                 1.0981
 Frc consts  --      6.3575                 6.4322                 6.4192
 IR Inten    --     39.3029                19.5826                23.6558

                     82                     83                     84
                      A                      A                      A
 Frequencies --   3169.3497              3172.7649              3193.9048
 Red. masses --      1.0942                 1.0893                 1.0893
 Frc consts  --      6.4756                 6.4606                 6.5467
 IR Inten    --     30.4020                 4.5402                11.0139

 - Thermochemistry -
 -------------------
 Temperature   298.150 Kelvin.  Pressure   1.00000 Atm.
 Atom     1 has atomic number  6 and mass  12.00000

 Molecular mass:   166.13577 amu.
 Principal axes and moments of inertia in atomic units:
                           1         2         3
     Eigenvalues --  1590.847532805.796633522.10008
           X            0.99974   0.02238  -0.00327
           Y           -0.02228   0.99942   0.02566
           Z            0.00385  -0.02558   0.99967
 This molecule is an asymmetric top.
 Rotational symmetry number  1.
 Warning -- assumption of classical behavior for rotation
           may cause significant error
 Rotational temperatures (Kelvin)      0.05445     0.03087     0.02459
 Rotational constants (GHZ):           1.13445     0.64322     0.51240
 Zero-point vibrational energy     697451.1 (Joules/Mol)
                                  166.69481 (Kcal/Mol)
 Warning -- explicit consideration of  22 degrees of freedom as
           vibrations may cause significant error
 Vibrational temperatures:     54.90    74.63    99.51   148.55   175.43
          (Kelvin)            192.05   212.68   240.32   292.80   315.48
                              332.30   342.21   388.32   401.66   419.82
                              461.12   514.08   571.61   575.92   700.44
                              762.29   835.11   899.70  1035.82  1085.43
                             1231.73  1235.95  1308.80  1355.39  1363.01
                             1408.13  1442.62  1471.91  1500.28  1538.32
                             1553.86  1566.35  1567.92  1622.18  1650.62
                             1668.91  1695.73  1758.01  1835.57  1914.70
                             1941.80  1951.39  2031.77  2052.13  2055.28
                             2068.63  2078.27  2087.83  2167.01  2169.13
                             2176.10  2178.08  2180.96  2185.07  2202.95
                             2206.50  2217.84  2226.96  2437.54  2486.94
                             2539.24  4325.31  4366.56  4367.29  4372.44
                             4388.73  4400.53  4435.05  4435.68  4458.43
                             4478.57  4491.84  4497.17  4504.18  4530.61
                             4531.93  4559.99  4564.90  4595.32

 Zero-point correction=                           0.265645 (Hartree/Particle)
 Thermal correction to Energy=                    0.280826
 Thermal correction to Enthalpy=                  0.281770
 Thermal correction to Gibbs Free Energy=         0.223579
 Sum of electronic and zero-point Energies=           -504.987243
 Sum of electronic and thermal Energies=              -504.972062
 Sum of electronic and thermal Enthalpies=            -504.971118
 Sum of electronic and thermal Free Energies=         -505.029309

                     E (Thermal)             CV                S
                      KCal/Mol        Cal/Mol-Kelvin    Cal/Mol-Kelvin
 Total                  176.221             54.184            122.473
 Electronic               0.000              0.000              0.000
 Translational            0.889              2.981             41.231
 Rotational               0.889              2.981             31.131
 Vibrational            174.444             48.222             50.111
 Vibration     1          0.594              1.982              5.353
 Vibration     2          0.596              1.977              4.745
 Vibration     3          0.598              1.969              4.177
 Vibration     4          0.605              1.947              3.392
 Vibration     5          0.609              1.931              3.070
 Vibration     6          0.613              1.920              2.895
 Vibration     7          0.617              1.905              2.700
 Vibration     8          0.624              1.883              2.469
 Vibration     9          0.639              1.835              2.101
 Vibration    10          0.647              1.812              1.965
 Vibration    11          0.653              1.794              1.871
 Vibration    12          0.656              1.783              1.819
 Vibration    13          0.674              1.729              1.597
 Vibration    14          0.679              1.712              1.539
 Vibration    15          0.687              1.689              1.464
 Vibration    16          0.706              1.634              1.308
 Vibration    17          0.732              1.560              1.134
 Vibration    18          0.764              1.476              0.973
 Vibration    19          0.766              1.469              0.962
 Vibration    20          0.843              1.279              0.692
 Vibration    21          0.885              1.184              0.588
 Vibration    22          0.937              1.074              0.485

 Optimization completed.
    -- Stationary point found.
 Normal termination of Gaussian 16 at Wed Dec  9 17:09:38 2020.

 ----------------------------------------------------------------------
 # B3LYP/6-311++G(d,p) empiricaldispersion=gd3bj scf=xqc pop=npa geom=c
 heck
 ----------------------------------------------------------------------

 ---------------------------------------
 CID_140527084_JID_2209_Energie_neutraal
 ---------------------------------------
 Structure from the checkpoint file:  "JID_2209.chk"
 Charge =  0 Multiplicity = 1

 SCF Done:  E(RB3LYP) =  -505.395189325     A.U. after   15 cycles
 Normal termination of Gaussian 16 at Wed Dec  9 17:13:15 2020.

 ----------------------------------------------------------------------
 # B3LYP/6-311++G(d,p) empiricaldispersion=gd3bj scf=xqc pop=npa geom=c
 heck
 ----------------------------------------------------------------------

 -------------------------------------
 CID_140527084_JID_2209_Energie_kation
 -------------------------------------
 Structure from the checkpoint file:  "JID_2209.chk"
 Charge =  1 Multiplicity = 2

 SCF Done:  E(UB3LYP) =  -505.089537575     A.U. after   24 cycles
 Normal termination of Gaussian 16 at Wed Dec  9 17:21:30 2020.
 Gaussian 16:  ES64L-G16RevA.03 25-Dec-2016

 ----------------------------------------------------------------------
 # B3LYP/6-311++G(d,p) empiricaldispersion=gd3bj scf=xqc pop=npa geom=c
 heck
 ----------------------------------------------------------------------

 ------------------------------------
 CID_140527084_JID_2209_Energie_anion
 ------------------------------------
 Structure from the checkpoint file:  "JID_2209.chk"
 Charge = -1 Multiplicity = 2

                         Standard orientation:
 ---------------------------------------------------------------------
 Center     Atomic      Atomic             Coordinates (Angstroms)
 Number     Number       Type             X           Y           Z
 ---------------------------------------------------------------------
      1          6           0        3.912362    0.687290   -0.826585
      2          6           0        2.865040   -0.058849   -0.066076
      3          6           0        1.575017   -0.159937   -0.415775
      4          6           0        0.610278   -0.945010    0.401441
      5          8           0        0.962511   -1.569538    1.395299
      6          6           0       -0.802683   -1.062053   -0.118145
      7          6           0       -1.688516   -0.049117   -0.158153
      8          6           0       -3.082988   -0.216776   -0.723382
      9          6           0       -1.471853    1.364135    0.390428
     10          6           0       -0.574491    1.490099    1.630551
     11          6           0       -1.028981    2.344345   -0.713600
     12          6           0       -1.083947   -2.492238   -0.527772
     13          1           0        3.507850    1.155775   -1.729189
     14          1           0        4.731609    0.017175   -1.119777
     15          1           0        4.362586    1.469821   -0.201125
     16          1           0        3.170416   -0.563803    0.850123
     17          1           0        1.198711    0.309193   -1.321005
     18          1           0       -3.824265   -0.297164    0.084019
     19          1           0       -3.358960    0.668093   -1.310316
     20          1           0       -3.195044   -1.086837   -1.371864
     21          1           0       -2.472995    1.691582    0.707578
     22          1           0        0.486111    1.384596    1.389436
     23          1           0       -0.707415    2.482133    2.077835
     24          1           0       -0.825500    0.736644    2.383104
     25          1           0       -1.671464    2.276148   -1.598393
     26          1           0       -1.068428    3.377131   -0.348048
     27          1           0       -0.000400    2.141009   -1.026902
     28          1           0       -0.445460   -2.798938   -1.367697
     29          1           0       -0.840060   -3.152127    0.312355
     30          1           0       -2.122803   -2.665475   -0.810121
 ---------------------------------------------------------------------

 SCF Done:  E(UB3LYP) =  -505.399811457     A.U. after   33 cycles
 SCF Done:  E(UB3LYP) =  -505.399811457     a.u. after    1 cycles

 The electronic state is 2-A.
 Alpha  occ. eigenvalues --  -18.89744 -10.05012 -10.04290 -10.04187 -10.03902
 Alpha  occ. eigenvalues --  -10.03054 -10.02961 -10.02618 -10.02151 -10.02137
 Alpha  occ. eigenvalues --   -9.99071  -9.98664  -0.83815  -0.69353  -0.63777
 Alpha  occ. eigenvalues --   -0.63210  -0.59376  -0.55788  -0.54917  -0.52210
 Alpha  occ. eigenvalues --   -0.47086  -0.43569  -0.38143  -0.34742  -0.33408
 Alpha  occ. eigenvalues --   -0.33009  -0.30572  -0.29376  -0.28217  -0.27862
 Alpha  occ. eigenvalues --   -0.27364  -0.27060  -0.26800  -0.26566  -0.25306
 Alpha  occ. eigenvalues --   -0.25084  -0.23243  -0.22002  -0.21491  -0.20987
 Alpha  occ. eigenvalues --   -0.19291  -0.18859  -0.17755  -0.09843  -0.09440
 Alpha  occ. eigenvalues --   -0.06222   0.05540
 Alpha virt. eigenvalues --    0.07870   0.09004   0.09390   0.10407   0.10652
 Alpha virt. eigenvalues --    0.11887   0.12104   0.12465   0.12797   0.13370
 Alpha virt. eigenvalues --    0.13664   0.14530   0.14999   0.15375   0.15844

  Beta  occ. eigenvalues --  -18.89242 -10.05015 -10.04288 -10.03889 -10.03807
  Beta  occ. eigenvalues --  -10.03096 -10.02870 -10.02571 -10.02167 -10.02133
  Beta  occ. eigenvalues --   -9.98725  -9.98525  -0.82876  -0.69230  -0.63650
  Beta  occ. eigenvalues --   -0.62604  -0.59231  -0.55746  -0.54615  -0.52102
  Beta  occ. eigenvalues --   -0.46876  -0.42821  -0.37678  -0.34569  -0.33235
  Beta  occ. eigenvalues --   -0.32851  -0.30447  -0.29286  -0.27981  -0.27385
  Beta  occ. eigenvalues --   -0.27298  -0.26922  -0.26594  -0.26367  -0.25259
  Beta  occ. eigenvalues --   -0.24976  -0.22892  -0.21780  -0.21391  -0.20277
  Beta  occ. eigenvalues --   -0.18955  -0.18479  -0.16377  -0.09230  -0.07607
  Beta  occ. eigenvalues --   -0.05749
  Beta virt. eigenvalues --    0.07823   0.08874   0.09261   0.10279   0.10575
  Beta virt. eigenvalues --    0.11754   0.11947   0.12317   0.12584   0.12789
  Beta virt. eigenvalues --    0.13382   0.13808   0.14458   0.14938   0.15276

 Mulliken charges and spin densities:
               1          2
     1  C   -0.701594  -0.029655
     2  C    0.007968   0.424290
     3  C   -0.274059  -0.080989
     4  C   -0.306004   0.352712
     5  O   -0.397732   0.188160
     6  C    0.488406  -0.057547
     7  C    0.218331   0.112731
     8  C   -0.585229  -0.089616
     9  C    0.407585   0.015111
    10  C   -0.744173   0.036315
    11  C   -0.472899  -0.175648
    12  C   -0.573358  -0.082962
    13  H    0.111045   0.000468
    14  H    0.091575   0.028005
    15  H    0.112971   0.016649
    16  H    0.155701  -0.028923
    17  H    0.065041  -0.001737
    18  H    0.131884  -0.001588
    19  H    0.108600   0.011453
    20  H    0.077207   0.046924
    21  H    0.088964   0.064080
    22  H    0.217938  -0.004013
    23  H    0.079447   0.040507
    24  H    0.142404  -0.000807
    25  H    0.111707  -0.001446
    26  H    0.032116   0.076567
    27  H    0.129619   0.004558
    28  H    0.088269   0.052524
    29  H    0.192063   0.000680
    30  H   -0.003793   0.083197
 Sum of Mulliken charges =  -1.00000   1.00000

 Dipole moment (field-independent basis, Debye):
    X=             -3.3512    Y=              2.8672    Z=             -2.3768  Tot=              5.0100
 Quadrupole moment (field-independent basis, Debye-Ang):
   XX=           -105.3144   YY=            -98.8848   ZZ=            -92.0558
   XY=              2.6626   XZ=             -2.3876   YZ=              3.6002

 Summary of Natural Population Analysis:

                                       Natural Population
                Natural  -----------------------------------------------
    Atom  No    Charge         Core      Valence    Rydberg      Total
 -----------------------------------------------------------------------
      C    1   -0.30271      0.99966     2.29884    0.00421     3.30271
      C    2    0.04111      0.99954     1.95078    0.00856     2.95889
      C    3   -0.18261      0.99947     2.17368    0.00946     3.18261
      C    4    0.30151      0.99958     1.67608    0.02282     2.69849
      O    5   -0.26583      0.99988     3.25971    0.00624     4.26583
      C    6   -0.03217      0.99939     2.01952    0.01326     3.03217
      C    7   -0.00913      0.99943     1.99876    0.01094     3.00913
      C    8   -0.29507      0.99964     2.28941    0.00602     3.29507
      C    9   -0.11459      0.99958     2.10656    0.00845     3.11459
      C   10   -0.28684      0.99965     2.28128    0.00591     3.28684
      C   11   -0.28047      0.99965     2.27568    0.00515     3.28047
      C   12   -0.28863      0.99963     2.28392    0.00508     3.28863
      H   13    0.09105      0.00000     0.40788    0.00107     0.40895
      H   14    0.09646      0.00000     0.40237    0.00116     0.40354
      H   15    0.09645      0.00000     0.40246    0.00109     0.40355
      H   16    0.08883      0.00000     0.40920    0.00197     0.41117
      H   17    0.08420      0.00000     0.41457    0.00123     0.41580
      H   18    0.09445      0.00000     0.40456    0.00099     0.40555
      H   19    0.09393      0.00000     0.40510    0.00097     0.40607
      H   20    0.09796      0.00000     0.40094    0.00110     0.40204
      H   21    0.08496      0.00000     0.41321    0.00183     0.41504
      H   22    0.11414      0.00000     0.38501    0.00086     0.38586
      H   23    0.08697      0.00000     0.41224    0.00078     0.41303
      H   24    0.10465      0.00000     0.39466    0.00069     0.39535
      H   25    0.09178      0.00000     0.40750    0.00072     0.40822
      H   26    0.08931      0.00000     0.40923    0.00146     0.41069
      H   27    0.10377      0.00000     0.39527    0.00096     0.39623
      H   28    0.09784      0.00000     0.40074    0.00142     0.40216
      H   29    0.10953      0.00000     0.38895    0.00151     0.39047
      H   30    0.08914      0.00000     0.40943    0.00144     0.41086
 =======================================================================
   * Total *    0.00000     11.99510    33.87756    0.12735    46.00000

 Normal termination of Gaussian 16 at Wed Dec  9 17:32:13 2020.
