 Gaussian 16, Revision A.03,

 -----------------------------------------------------------
 # opt freq B3LYP/6-31G(d) empiricaldispersion=gd3bj scf=xqc
 -----------------------------------------------------------

 ------------------------------
 CID_60863038_JID_7187_neutraal
 ------------------------------
 Symbolic Z-matrix:
 Charge =  0 Multiplicity = 1

 SCF Done:  E(RB3LYP) =  -763.618236499     A.U. after   14 cycles
 SCF Done:  E(RB3LYP) =  -763.622206447     A.U. after   12 cycles
 SCF Done:  E(RB3LYP) =  -763.619896313     A.U. after   13 cycles
 SCF Done:  E(RB3LYP) =  -763.622436331     A.U. after   12 cycles
 SCF Done:  E(RB3LYP) =  -763.622520622     A.U. after   14 cycles
 SCF Done:  E(RB3LYP) =  -763.623399065     A.U. after   12 cycles
 SCF Done:  E(RB3LYP) =  -763.623558826     A.U. after   12 cycles
 SCF Done:  E(RB3LYP) =  -763.623645639     A.U. after   10 cycles
 SCF Done:  E(RB3LYP) =  -763.623660321     A.U. after   10 cycles
 SCF Done:  E(RB3LYP) =  -763.623662291     A.U. after    8 cycles
 SCF Done:  E(RB3LYP) =  -763.624084704     A.U. after    9 cycles
 SCF Done:  E(RB3LYP) =  -763.624085354     A.U. after    8 cycles
 SCF Done:  E(RB3LYP) =  -763.624085722     A.U. after    7 cycles
 SCF Done:  E(RB3LYP) =  -763.624085956     A.U. after    7 cycles
 SCF Done:  E(RB3LYP) =  -763.624086037     A.U. after    7 cycles
 SCF Done:  E(RB3LYP) =  -763.624086056     A.U. after    6 cycles
 Optimization completed.
    -- Stationary point found.
 Normal termination of Gaussian 16 at Mon Dec 14 19:13:50 2020.

 --------------------------------------------------------------------
 #N Geom=AllCheck Guess=TCheck SCRF=Check GenChk RB3LYP/6-31G(d) Freq
 --------------------------------------------------------------------

 Structure from the checkpoint file:  "JID_7187.chk"
 ------------------------------
 CID_60863038_JID_7187_neutraal
 ------------------------------
 Charge =  0 Multiplicity = 1

 SCF Done:  E(RB3LYP) =  -763.624086056     A.U. after    1 cycles

  Exact polarizability: 186.023   3.698 144.540  11.512   2.805 116.235
 Approx polarizability: 242.104   9.564 222.314  22.439  11.086 182.043

                      1                      2                      3
                      A                      A                      A
 Frequencies --     20.5415                38.8122                50.8339
 Red. masses --      4.6311                 4.0845                 1.1386
 Frc consts  --      0.0012                 0.0036                 0.0017
 IR Inten    --      1.1503                 0.4472                 0.3388

                      4                      5                      6
                      A                      A                      A
 Frequencies --     63.9851                73.2224                95.3713
 Red. masses --      6.4366                 3.8649                 4.2417
 Frc consts  --      0.0155                 0.0122                 0.0227
 IR Inten    --      1.6183                 0.8128                 3.1978

                      7                      8                      9
                      A                      A                      A
 Frequencies --    125.9561               142.8801               185.8345
 Red. masses --      3.1621                 3.3178                 2.6275
 Frc consts  --      0.0296                 0.0399                 0.0535
 IR Inten    --      3.1019                 4.6500                 2.8423

                     10                     11                     12
                      A                      A                      A
 Frequencies --    213.1754               233.5958               247.1382
 Red. masses --      2.8280                 3.8260                 2.9944
 Frc consts  --      0.0757                 0.1230                 0.1078
 IR Inten    --      0.7210                 6.2720                 1.8092

                     13                     14                     15
                      A                      A                      A
 Frequencies --    248.6978               287.4592               293.4900
 Red. masses --      2.9944                 2.0824                 2.8465
 Frc consts  --      0.1091                 0.1014                 0.1445
 IR Inten    --      1.2279                 1.7230                 3.0911

                     16                     17                     18
                      A                      A                      A
 Frequencies --    362.9682               411.5360               444.5007
 Red. masses --      2.5025                 3.6655                 2.6995
 Frc consts  --      0.1943                 0.3658                 0.3143
 IR Inten    --      0.4409                 3.2814                 0.0624

                     19                     20                     21
                      A                      A                      A
 Frequencies --    454.5379               504.4798               530.0607
 Red. masses --      2.2602                 3.3095                 2.5881
 Frc consts  --      0.2751                 0.4963                 0.4284
 IR Inten    --      6.6155                11.3639                13.8250

                     22                     23                     24
                      A                      A                      A
 Frequencies --    534.6478               549.4223               580.8570
 Red. masses --      2.0658                 2.8930                 1.9886
 Frc consts  --      0.3479                 0.5145                 0.3953
 IR Inten    --     75.4395                15.1877                85.9798

                     25                     26                     27
                      A                      A                      A
 Frequencies --    633.9917               660.7929               696.5579
 Red. masses --      3.7577                 3.8788                 2.2712
 Frc consts  --      0.8899                 0.9979                 0.6493
 IR Inten    --      4.1823                 2.4619                17.8879

                     28                     29                     30
                      A                      A                      A
 Frequencies --    711.2224               737.3160               759.4314
 Red. masses --      2.3871                 3.2979                 1.5671
 Frc consts  --      0.7114                 1.0563                 0.5325
 IR Inten    --     23.5476                23.4496                13.2312

                     31                     32                     33
                      A                      A                      A
 Frequencies --    769.3787               788.7416               833.4629
 Red. masses --      1.9042                 2.6368                 2.0975
 Frc consts  --      0.6641                 0.9665                 0.8585
 IR Inten    --      2.0270                 6.5052                58.0541

                     34                     35                     36
                      A                      A                      A
 Frequencies --    860.8925               864.5553               875.4997
 Red. masses --      2.0236                 1.3710                 2.3284
 Frc consts  --      0.8836                 0.6038                 1.0515
 IR Inten    --      4.9958                 7.8646                 1.1791

                     37                     38                     39
                      A                      A                      A
 Frequencies --    899.6054               911.6181               955.1878
 Red. masses --      1.7129                 2.4053                 2.9447
 Frc consts  --      0.8168                 1.1777                 1.5829
 IR Inten    --     35.5520                10.7165                18.5061

                     40                     41                     42
                      A                      A                      A
 Frequencies --    976.1720               991.3723              1019.0905
 Red. masses --      1.5600                 2.0848                 2.4353
 Frc consts  --      0.8758                 1.2072                 1.4901
 IR Inten    --      5.3369                15.6086                13.6905

                     43                     44                     45
                      A                      A                      A
 Frequencies --   1026.0967              1058.8356              1084.3787
 Red. masses --      2.0607                 1.9057                 2.2080
 Frc consts  --      1.2783                 1.2588                 1.5297
 IR Inten    --      8.2734                 7.4282                14.0958

                     46                     47                     48
                      A                      A                      A
 Frequencies --   1095.0153              1121.9475              1129.7621
 Red. masses --      2.2324                 2.0015                 2.3767
 Frc consts  --      1.5771                 1.4844                 1.7873
 IR Inten    --      7.1740                31.8212                 4.2298

                     49                     50                     51
                      A                      A                      A
 Frequencies --   1138.8423              1156.7777              1165.5417
 Red. masses --      2.2480                 1.3183                 1.7169
 Frc consts  --      1.7178                 1.0393                 1.3742
 IR Inten    --     22.9487                 2.3172                 2.9577

                     52                     53                     54
                      A                      A                      A
 Frequencies --   1183.6655              1193.6622              1220.1714
 Red. masses --      1.5368                 1.3527                 1.5017
 Frc consts  --      1.2686                 1.1356                 1.3172
 IR Inten    --      4.8627                 3.8848                 6.2952

                     55                     56                     57
                      A                      A                      A
 Frequencies --   1231.9289              1236.3934              1253.3348
 Red. masses --      1.4752                 1.8123                 1.4239
 Frc consts  --      1.3191                 1.6323                 1.3178
 IR Inten    --     11.4019                 0.4328                 4.3796

                     58                     59                     60
                      A                      A                      A
 Frequencies --   1292.4983              1315.5645              1321.2317
 Red. masses --      1.2902                 1.2272                 1.5621
 Frc consts  --      1.2699                 1.2514                 1.6066
 IR Inten    --      2.5107                17.8690                 4.8154

                     61                     62                     63
                      A                      A                      A
 Frequencies --   1331.7008              1339.0435              1358.7103
 Red. masses --      1.5907                 3.5404                 1.4173
 Frc consts  --      1.6621                 3.7401                 1.5416
 IR Inten    --     14.7833                12.9082                15.9089

                     64                     65                     66
                      A                      A                      A
 Frequencies --   1378.8838              1385.8597              1392.5140
 Red. masses --      1.5254                 1.4492                 1.5084
 Frc consts  --      1.7088                 1.6399                 1.7234
 IR Inten    --      7.7271                 8.1863                21.8861

                     67                     68                     69
                      A                      A                      A
 Frequencies --   1398.8750              1414.2179              1419.3755
 Red. masses --      1.5168                 1.6765                 3.7383
 Frc consts  --      1.7488                 1.9756                 4.4373
 IR Inten    --      4.1082                32.1887                 5.5636

                     70                     71                     72
                      A                      A                      A
 Frequencies --   1429.4737              1450.5047              1475.1528
 Red. masses --      1.3893                 2.7184                 1.5570
 Frc consts  --      1.6726                 3.3698                 1.9963
 IR Inten    --      5.2992                36.9343                 5.9667

                     73                     74                     75
                      A                      A                      A
 Frequencies --   1498.2889              1504.3520              1510.1765
 Red. masses --      1.1749                 1.1064                 1.0998
 Frc consts  --      1.5540                 1.4753                 1.4778
 IR Inten    --     36.5199                 6.9350                 3.9506

                     76                     77                     78
                      A                      A                      A
 Frequencies --   1514.0539              1514.8372              1522.6005
 Red. masses --      1.0931                 1.0826                 1.1288
 Frc consts  --      1.4764                 1.4637                 1.5418
 IR Inten    --     26.2540                 7.1733                 7.3249

                     79                     80                     81
                      A                      A                      A
 Frequencies --   1525.6295              1534.0422              1547.4843
 Red. masses --      1.4585                 1.1040                 2.1662
 Frc consts  --      2.0001                 1.5307                 3.0564
 IR Inten    --      0.4718                 3.3362                36.6815

                     82                     83                     84
                      A                      A                      A
 Frequencies --   1549.8587              1612.1438              1660.6214
 Red. masses --      1.0835                 6.0716                 1.2055
 Frc consts  --      1.5334                 9.2973                 1.9587
 IR Inten    --      8.0316                 9.9919                59.2896

                     85                     86                     87
                      A                      A                      A
 Frequencies --   1810.9281              3007.2879              3015.7602
 Red. masses --      8.7737                 1.0673                 1.0676
 Frc consts  --     16.9526                 5.6872                 5.7206
 IR Inten    --    358.2625                33.9804                27.5078

                     88                     89                     90
                      A                      A                      A
 Frequencies --   3038.0558              3041.0496              3045.5065
 Red. masses --      1.0673                 1.0719                 1.0731
 Frc consts  --      5.8041                 5.8407                 5.8643
 IR Inten    --     27.6690                11.1952                12.4770

                     91                     92                     93
                      A                      A                      A
 Frequencies --   3055.1542              3056.3615              3062.9393
 Red. masses --      1.0715                 1.0412                 1.0880
 Frc consts  --      5.8929                 5.7306                 6.0137
 IR Inten    --     38.4509                43.8519                44.3694

                     94                     95                     96
                      A                      A                      A
 Frequencies --   3069.2164              3075.9958              3094.1304
 Red. masses --      1.0911                 1.0666                 1.0943
 Frc consts  --      6.0557                 5.9459                 6.1726
 IR Inten    --     35.5555                 5.7092                38.6922

                     97                     98                     99
                      A                      A                      A
 Frequencies --   3096.1075              3101.9550              3116.2636
 Red. masses --      1.0980                 1.1016                 1.1035
 Frc consts  --      6.2015                 6.2454                 6.3140
 IR Inten    --     47.1503                41.9623                21.2337

                    100                    101                    102
                      A                      A                      A
 Frequencies --   3132.8451              3185.6863              3253.1682
 Red. masses --      1.1035                 1.1003                 1.0958
 Frc consts  --      6.3810                 6.5794                 6.8328
 IR Inten    --     26.2258                 2.3797                 7.5355

                    103                    104                    105
                      A                      A                      A
 Frequencies --   3442.5969              3469.4473              3646.6470
 Red. masses --      1.0576                 1.0730                 1.0929
 Frc consts  --      7.3847                 7.6097                 8.5628
 IR Inten    --    301.3545                 0.4329                65.2245

 - Thermochemistry -
 -------------------
 Temperature   298.150 Kelvin.  Pressure   1.00000 Atm.
 Atom     1 has atomic number  6 and mass  12.00000

 Molecular mass:   236.16371 amu.
 Principal axes and moments of inertia in atomic units:
                           1         2         3
     Eigenvalues --  1748.585248106.105679010.93286
           X            0.99996   0.00826   0.00211
           Y           -0.00824   0.99991  -0.01085
           Z           -0.00220   0.01084   0.99994
 This molecule is an asymmetric top.
 Rotational symmetry number  1.
 Warning -- assumption of classical behavior for rotation
           may cause significant error
 Rotational temperatures (Kelvin)      0.04953     0.01069     0.00961
 Rotational constants (GHZ):           1.03212     0.22264     0.20028
 Zero-point vibrational energy     855031.1 (Joules/Mol)
                                  204.35735 (Kcal/Mol)
 Warning -- explicit consideration of  24 degrees of freedom as
           vibrations may cause significant error
 Vibrational temperatures:     29.55    55.84    73.14    92.06   105.35
          (Kelvin)            137.22   181.22   205.57   267.37   306.71
                              336.09   355.58   357.82   413.59   422.27
                              522.23   592.11   639.54   653.98   725.83
                              762.64   769.24   790.50   835.72   912.17
                              950.73  1002.19  1023.29  1060.83  1092.65
                             1106.96  1134.82  1199.17  1238.63  1243.90
                             1259.65  1294.33  1311.62  1374.30  1404.49
                             1426.36  1466.24  1476.32  1523.43  1560.18
                             1575.48  1614.23  1625.48  1638.54  1664.35
                             1676.95  1703.03  1717.41  1755.55  1772.47
                             1778.89  1803.27  1859.62  1892.80  1900.96
                             1916.02  1926.58  1954.88  1983.91  1993.94
                             2003.52  2012.67  2034.74  2042.16  2056.69
                             2086.95  2122.42  2155.70  2164.43  2172.81
                             2178.39  2179.51  2190.68  2195.04  2207.14
                             2226.48  2229.90  2319.52  2389.26  2605.52
                             4326.82  4339.01  4371.08  4375.39  4381.80
                             4395.69  4397.42  4406.89  4415.92  4425.67
                             4451.76  4454.61  4463.02  4483.61  4507.47
                             4583.49  4680.58  4953.13  4991.76  5246.71

 Zero-point correction=                           0.325664 (Hartree/Particle)
 Thermal correction to Energy=                    0.342257
 Thermal correction to Enthalpy=                  0.343201
 Thermal correction to Gibbs Free Energy=         0.279641
 Sum of electronic and zero-point Energies=           -763.298422
 Sum of electronic and thermal Energies=              -763.281829
 Sum of electronic and thermal Enthalpies=            -763.280885
 Sum of electronic and thermal Free Energies=         -763.344445

                     E (Thermal)             CV                S
                      KCal/Mol        Cal/Mol-Kelvin    Cal/Mol-Kelvin
 Total                  214.769             62.872            133.772
 Electronic               0.000              0.000              0.000
 Translational            0.889              2.981             42.280
 Rotational               0.889              2.981             33.212
 Vibrational            212.992             56.911             58.280
 Vibration     1          0.593              1.986              6.581
 Vibration     2          0.594              1.981              5.319
 Vibration     3          0.595              1.977              4.785
 Vibration     4          0.597              1.971              4.330
 Vibration     5          0.599              1.967              4.065
 Vibration     6          0.603              1.952              3.547
 Vibration     7          0.611              1.927              3.007
 Vibration     8          0.616              1.910              2.765
 Vibration     9          0.632              1.859              2.269
 Vibration    10          0.644              1.821              2.016
 Vibration    11          0.654              1.789              1.851
 Vibration    12          0.661              1.768              1.751
 Vibration    13          0.662              1.765              1.740
 Vibration    14          0.685              1.697              1.489
 Vibration    15          0.688              1.686              1.454
 Vibration    16          0.737              1.549              1.109
 Vibration    17          0.776              1.445              0.921
 Vibration    18          0.804              1.373              0.813
 Vibration    19          0.813              1.351              0.782
 Vibration    20          0.860              1.240              0.647
 Vibration    21          0.885              1.183              0.587
 Vibration    22          0.890              1.173              0.577
 Vibration    23          0.905              1.141              0.545
 Vibration    24          0.938              1.073              0.484

 Optimization completed.
    -- Stationary point found.
 Normal termination of Gaussian 16 at Mon Dec 14 19:27:44 2020.

 ----------------------------------------------------------------------
 # B3LYP/6-311++G(d,p) empiricaldispersion=gd3bj scf=xqc pop=npa geom=c
 heck
 ----------------------------------------------------------------------

 --------------------------------------
 CID_60863038_JID_7187_Energie_neutraal
 --------------------------------------
 Structure from the checkpoint file:  "JID_7187.chk"
 Charge =  0 Multiplicity = 1

 SCF Done:  E(RB3LYP) =  -763.842845224     A.U. after   15 cycles
 Normal termination of Gaussian 16 at Mon Dec 14 19:34:43 2020.

 ----------------------------------------------------------------------
 # B3LYP/6-311++G(d,p) empiricaldispersion=gd3bj scf=xqc pop=npa geom=c
 heck
 ----------------------------------------------------------------------

 ------------------------------------
 CID_60863038_JID_7187_Energie_kation
 ------------------------------------
 Structure from the checkpoint file:  "JID_7187.chk"
 Charge =  1 Multiplicity = 2

 SCF Done:  E(UB3LYP) =  -763.546028126     A.U. after   30 cycles
 Normal termination of Gaussian 16 at Mon Dec 14 19:53:56 2020.
 Gaussian 16:  ES64L-G16RevA.03 25-Dec-2016

 ----------------------------------------------------------------------
 # B3LYP/6-311++G(d,p) empiricaldispersion=gd3bj scf=xqc pop=npa geom=c
 heck
 ----------------------------------------------------------------------

 -----------------------------------
 CID_60863038_JID_7187_Energie_anion
 -----------------------------------
 Structure from the checkpoint file:  "JID_7187.chk"
 Charge = -1 Multiplicity = 2

                         Standard orientation:
 ---------------------------------------------------------------------
 Center     Atomic      Atomic             Coordinates (Angstroms)
 Number     Number       Type             X           Y           Z
 ---------------------------------------------------------------------
      1          6           0        4.861304   -0.722154    0.589243
      2          7           0        3.511205   -0.767989    0.068144
      3          6           0        2.588718    0.231559    0.047814
      4          6           0        1.471586   -0.268052   -0.607395
      5          6           0        1.831266   -1.594084   -0.951539
      6          7           0        3.064235   -1.895801   -0.544362
      7          6           0        0.217684    0.544011   -0.800793
      8          6           0        0.569411    2.039669   -0.659643
      9          6           0        1.400826    2.332703    0.600766
     10          6           0        2.769196    1.622485    0.565766
     11          7           0       -0.877118    0.206780    0.138900
     12          6           0       -1.454161   -1.127366   -0.066189
     13          6           0       -2.500409   -1.465527    1.001928
     14          6           0       -3.549670   -0.365250    1.260492
     15          6           0       -4.268974    0.067629   -0.015111
     16          8           0       -5.319453   -0.437086   -0.387848
     17          7           0       -3.627210    1.070402   -0.693636
     18          1           0        5.243894   -1.742539    0.586502
     19          1           0        4.863976   -0.332683    1.612152
     20          1           0        5.505992   -0.091346   -0.033573
     21          1           0        1.252033   -2.336559   -1.484881
     22          1           0       -0.193563    0.373203   -1.803729
     23          1           0       -0.358119    2.621319   -0.640695
     24          1           0        1.138380    2.353288   -1.544603
     25          1           0        1.549921    3.412188    0.709541
     26          1           0        0.846029    2.007583    1.490719
     27          1           0        3.456978    2.177784   -0.089779
     28          1           0        3.227759    1.626072    1.563166
     29          1           0       -0.504390    0.250115    1.087762
     30          1           0       -1.923709   -1.125975   -1.057657
     31          1           0       -0.689898   -1.920080   -0.073408
     32          1           0       -3.009154   -2.387433    0.697478
     33          1           0       -1.992824   -1.687590    1.950612
     34          1           0       -4.308138   -0.745356    1.949629
     35          1           0       -3.067912    0.501511    1.724447
     36          1           0       -2.637194    1.208625   -0.488775
     37          1           0       -3.962881    1.267077   -1.627474
 ---------------------------------------------------------------------

 SCF Done:  E(UB3LYP) =  -763.837062153     A.U. after   32 cycles

 The electronic state is 2-A.
 Alpha  occ. eigenvalues --  -19.00452 -14.29249 -14.23809 -14.23242 -14.22009
 Alpha  occ. eigenvalues --  -10.18645 -10.12133 -10.11384 -10.11292 -10.11202
 Alpha  occ. eigenvalues --  -10.09659 -10.09503 -10.09177 -10.08511 -10.07888
 Alpha  occ. eigenvalues --  -10.07781 -10.07086  -0.95250  -0.95152  -0.83392
 Alpha  occ. eigenvalues --   -0.81412  -0.74999  -0.74152  -0.70406  -0.67066
 Alpha  occ. eigenvalues --   -0.64885  -0.60841  -0.60029  -0.54706  -0.52976
 Alpha  occ. eigenvalues --   -0.51637  -0.49019  -0.48174  -0.44863  -0.44247
 Alpha  occ. eigenvalues --   -0.42649  -0.40485  -0.39499  -0.38676  -0.37820
 Alpha  occ. eigenvalues --   -0.37140  -0.35752  -0.34500  -0.33718  -0.33255
 Alpha  occ. eigenvalues --   -0.32881  -0.31963  -0.31691  -0.31116  -0.30481
 Alpha  occ. eigenvalues --   -0.30088  -0.28912  -0.27100  -0.26775  -0.26451
 Alpha  occ. eigenvalues --   -0.24831  -0.24187  -0.23304  -0.20121  -0.19190
 Alpha  occ. eigenvalues --   -0.17081  -0.16518  -0.15604  -0.13913   0.03768
 Alpha virt. eigenvalues --    0.06069   0.06244   0.07025   0.07870   0.08332
 Alpha virt. eigenvalues --    0.08970   0.09203   0.09441   0.09597   0.10057
 Alpha virt. eigenvalues --    0.10402   0.11045   0.11251   0.11552   0.12034

  Beta  occ. eigenvalues --  -19.00446 -14.29248 -14.23800 -14.23236 -14.21989
  Beta  occ. eigenvalues --  -10.18640 -10.12131 -10.11334 -10.11289 -10.11201
  Beta  occ. eigenvalues --  -10.09649 -10.09503 -10.09168 -10.08466 -10.07873
  Beta  occ. eigenvalues --  -10.07748 -10.07083  -0.95240  -0.95140  -0.83369
  Beta  occ. eigenvalues --   -0.81395  -0.74978  -0.74124  -0.70382  -0.67033
  Beta  occ. eigenvalues --   -0.64845  -0.60804  -0.59978  -0.54650  -0.52943
  Beta  occ. eigenvalues --   -0.51599  -0.48979  -0.48149  -0.44815  -0.44232
  Beta  occ. eigenvalues --   -0.42602  -0.40465  -0.39468  -0.38648  -0.37793
  Beta  occ. eigenvalues --   -0.37109  -0.35726  -0.34472  -0.33688  -0.33228
  Beta  occ. eigenvalues --   -0.32841  -0.31930  -0.31658  -0.31081  -0.30440
  Beta  occ. eigenvalues --   -0.30056  -0.28881  -0.27075  -0.26752  -0.26426
  Beta  occ. eigenvalues --   -0.24778  -0.24142  -0.23268  -0.20105  -0.19174
  Beta  occ. eigenvalues --   -0.17067  -0.16500  -0.15586  -0.13897
  Beta virt. eigenvalues --    0.05981   0.06556   0.06925   0.07384   0.08273
  Beta virt. eigenvalues --    0.08911   0.09271   0.09520   0.09643   0.09816
  Beta virt. eigenvalues --    0.10260   0.10764   0.11210   0.11597   0.11842

 Mulliken charges and spin densities:
               1          2
     1  C    1.002470  -1.297050
     2  N    0.189257   0.084677
     3  C   -1.310436   1.084963
     4  C    0.701367  -0.644797
     5  C    0.364540  -0.507884
     6  N   -0.434845   0.213073
     7  C    0.145790  -0.510230
     8  C   -0.410303  -0.097689
     9  C   -0.704707   0.432944
    10  C    1.724596  -1.983396
    11  N   -0.004037   0.001347
    12  C   -0.142903  -0.166630
    13  C   -0.454264   0.070273
    14  C    0.198823  -0.483344
    15  C   -0.150194   0.152413
    16  O   -0.357152   0.004634
    17  N   -0.369600   0.023242
    18  H   -0.007993   0.172839
    19  H   -0.481857   0.656556
    20  H   -0.410196   0.585193
    21  H    0.136062  -0.000289
    22  H    0.184646   0.032821
    23  H   -0.164208   0.330143
    24  H   -0.192367   0.323380
    25  H   -0.583189   0.778471
    26  H   -0.375323   0.536026
    27  H   -0.118483   0.313183
    28  H   -0.403323   0.575451
    29  H    0.483761  -0.303679
    30  H    0.138385   0.034059
    31  H    0.080874   0.058666
    32  H    0.113804   0.034841
    33  H   -0.088927   0.262766
    34  H    0.142669   0.064466
    35  H   -0.171616   0.331659
    36  H    0.573011  -0.273314
    37  H    0.155865   0.110215
 Sum of Mulliken charges =  -1.00000   1.00000

 Dipole moment (field-independent basis, Debye):
    X=             -4.8554    Y=             -3.2959    Z=             -3.6551  Tot=              6.9135
 Quadrupole moment (field-independent basis, Debye-Ang):
   XX=           -223.1724   YY=           -150.0786   ZZ=           -137.2946
   XY=            -10.3495   XZ=             -9.5987   YZ=             -6.2126

 Summary of Natural Population Analysis:

                                       Natural Population
                Natural  -----------------------------------------------
    Atom  No    Charge         Core      Valence    Rydberg      Total
 -----------------------------------------------------------------------
      C    1   -0.17434      0.99964     2.16680    0.00791     3.17434
      N    2   -0.10733      0.99961     2.59432    0.01340     3.60733
      C    3    0.09832      0.99945     1.89014    0.01208     2.90168
      C    4   -0.08698      0.99944     2.07781    0.00974     3.08698
      C    5   -0.01178      0.99958     1.99878    0.01343     3.01178
      N    6   -0.15608      0.99974     2.64527    0.01107     3.65608
      C    7   -0.01256      0.99955     2.00040    0.01261     3.01256
      C    8   -0.18661      0.99962     2.17767    0.00932     3.18661
      C    9   -0.18592      0.99963     2.17729    0.00899     3.18592
      C   10   -0.20618      0.99960     2.19786    0.00872     3.20618
      N   11   -0.35389      0.99974     2.84276    0.01138     3.85389
      C   12   -0.09051      0.99962     2.08142    0.00947     3.09051
      C   13   -0.19035      0.99962     2.18160    0.00913     3.19035
      C   14   -0.23480      0.99958     2.22630    0.00891     3.23480
      C   15    0.33967      0.99971     1.63729    0.02334     2.66033
      O   16   -0.32576      0.99987     3.32001    0.00588     4.32576
      N   17   -0.41323      0.99970     2.90560    0.00793     3.91323
      H   18    0.10802      0.00000     0.39038    0.00160     0.39198
      H   19    0.10405      0.00000     0.39382    0.00213     0.39595
      H   20    0.09909      0.00000     0.39934    0.00157     0.40091
      H   21    0.09573      0.00000     0.40329    0.00098     0.40427
      H   22    0.09548      0.00000     0.40292    0.00160     0.40452
      H   23    0.10187      0.00000     0.39661    0.00152     0.39813
      H   24    0.09932      0.00000     0.39955    0.00113     0.40068
      H   25    0.10504      0.00000     0.39312    0.00184     0.39496
      H   26    0.09510      0.00000     0.40287    0.00203     0.40490
      H   27    0.10750      0.00000     0.39027    0.00223     0.39250
      H   28    0.11396      0.00000     0.38240    0.00363     0.38604
      H   29    0.17764      0.00000     0.31898    0.00339     0.32236
      H   30    0.08921      0.00000     0.40953    0.00126     0.41079
      H   31    0.09149      0.00000     0.40689    0.00161     0.40851
      H   32    0.10141      0.00000     0.39770    0.00089     0.39859
      H   33    0.10014      0.00000     0.39882    0.00104     0.39986
      H   34    0.10949      0.00000     0.38961    0.00091     0.39051
      H   35    0.10739      0.00000     0.39124    0.00137     0.39261
      H   36    0.20790      0.00000     0.28916    0.00294     0.29210
      H   37    0.18850      0.00000     0.30965    0.00185     0.31150
 =======================================================================
   * Total *   -0.00000     16.99371    46.78746    0.21883    64.00000

 Normal termination of Gaussian 16 at Mon Dec 14 20:14:10 2020.
