 Gaussian 16, Revision A.03,

 -----------------------------------------------------------
 # opt freq B3LYP/6-31G(d) empiricaldispersion=gd3bj scf=xqc
 -----------------------------------------------------------

 -------------------------------
 CID_113370500_JID_8501_neutraal
 -------------------------------
 Symbolic Z-matrix:
 Charge =  0 Multiplicity = 1

 SCF Done:  E(RB3LYP) =  -784.672121149     A.U. after   16 cycles
 SCF Done:  E(RB3LYP) =  -784.679646586     A.U. after   13 cycles
 SCF Done:  E(RB3LYP) =  -784.680481199     A.U. after   13 cycles
 SCF Done:  E(RB3LYP) =  -784.680812002     A.U. after   12 cycles
 SCF Done:  E(RB3LYP) =  -784.680886626     A.U. after   11 cycles
 SCF Done:  E(RB3LYP) =  -784.680933868     A.U. after   12 cycles
 SCF Done:  E(RB3LYP) =  -784.680992095     A.U. after   11 cycles
 SCF Done:  E(RB3LYP) =  -784.680993492     A.U. after    8 cycles
 SCF Done:  E(RB3LYP) =  -784.680994146     A.U. after    8 cycles
 SCF Done:  E(RB3LYP) =  -784.680994227     A.U. after    7 cycles
 Optimization completed.
    -- Stationary point found.
 Normal termination of Gaussian 16 at Sun Dec 13 12:27:55 2020.

 --------------------------------------------------------------------
 #N Geom=AllCheck Guess=TCheck SCRF=Check GenChk RB3LYP/6-31G(d) Freq
 --------------------------------------------------------------------

 Structure from the checkpoint file:  "JID_8501.chk"
 -------------------------------
 CID_113370500_JID_8501_neutraal
 -------------------------------
 Charge =  0 Multiplicity = 1

 SCF Done:  E(RB3LYP) =  -784.680994228     A.U. after    1 cycles

  Exact polarizability: 235.481 -10.729 179.629   8.915  -5.102  91.178
 Approx polarizability: 329.542 -35.046 345.456  17.888   2.939 156.203

                      1                      2                      3
                      A                      A                      A
 Frequencies --     28.1870                44.7816                69.2119
 Red. masses --      6.0996                 3.8287                 4.6043
 Frc consts  --      0.0029                 0.0045                 0.0130
 IR Inten    --      2.0415                 0.8058                 0.9604

                      4                      5                      6
                      A                      A                      A
 Frequencies --    102.5875               145.2289               174.7168
 Red. masses --      3.0893                 5.0100                 5.7559
 Frc consts  --      0.0192                 0.0623                 0.1035
 IR Inten    --      1.8330                 1.2737                 1.8002

                      7                      8                      9
                      A                      A                      A
 Frequencies --    183.9058               233.5345               255.6563
 Red. masses --      5.5907                 4.9162                 4.1468
 Frc consts  --      0.1114                 0.1580                 0.1597
 IR Inten    --      1.1675                 0.4557                11.0997

                     10                     11                     12
                      A                      A                      A
 Frequencies --    277.2778               295.0560               364.2064
 Red. masses --      2.5337                 2.9219                 7.5069
 Frc consts  --      0.1148                 0.1499                 0.5867
 IR Inten    --      1.9740                 1.1605                 6.1347

                     13                     14                     15
                      A                      A                      A
 Frequencies --    400.4846               414.0712               452.5998
 Red. masses --      4.9412                 3.9821                 2.1812
 Frc consts  --      0.4669                 0.4023                 0.2633
 IR Inten    --      0.9684                 1.6727                 6.3044

                     16                     17                     18
                      A                      A                      A
 Frequencies --    481.9479               484.1579               508.6145
 Red. masses --      3.9427                 4.4782                 4.2621
 Frc consts  --      0.5396                 0.6185                 0.6496
 IR Inten    --      3.9713                 2.1058                 7.4359

                     19                     20                     21
                      A                      A                      A
 Frequencies --    527.4772               539.5259               574.0939
 Red. masses --      3.8138                 6.5310                 4.3562
 Frc consts  --      0.6252                 1.1201                 0.8459
 IR Inten    --      3.3336                 2.4861                 8.8232

                     22                     23                     24
                      A                      A                      A
 Frequencies --    611.7193               665.6931               700.2627
 Red. masses --      4.9911                 5.6017                 5.8189
 Frc consts  --      1.1004                 1.4626                 1.6812
 IR Inten    --      0.9771                28.9024                14.2252

                     25                     26                     27
                      A                      A                      A
 Frequencies --    751.6608               767.8033               781.4315
 Red. masses --      2.7740                 1.5805                 3.4419
 Frc consts  --      0.9234                 0.5490                 1.2383
 IR Inten    --     13.7819                19.2332                29.8463

                     28                     29                     30
                      A                      A                      A
 Frequencies --    808.6701               814.8512               831.5867
 Red. masses --      3.7092                 5.3177                 3.5928
 Frc consts  --      1.4291                 2.0803                 1.4638
 IR Inten    --      5.5947                 4.5408                17.8684

                     31                     32                     33
                      A                      A                      A
 Frequencies --    853.2602               874.6165               893.9721
 Red. masses --      1.3160                 2.8926                 1.7294
 Frc consts  --      0.5645                 1.3037                 0.8143
 IR Inten    --     26.4828                 5.6137                 4.3417

                     34                     35                     36
                      A                      A                      A
 Frequencies --    896.6865               918.9618               940.2185
 Red. masses --      1.7407                 3.1901                 1.5314
 Frc consts  --      0.8246                 1.5872                 0.7976
 IR Inten    --      5.4677                35.3652                 2.9793

                     37                     38                     39
                      A                      A                      A
 Frequencies --    957.1193               969.1130               979.5251
 Red. masses --      3.0739                 1.3310                 1.3596
 Frc consts  --      1.6591                 0.7365                 0.7686
 IR Inten    --     33.6354                 0.8131                 0.2147

                     40                     41                     42
                      A                      A                      A
 Frequencies --   1002.2027              1018.1686              1053.2873
 Red. masses --      1.2882                 3.1151                 3.2536
 Frc consts  --      0.7624                 1.9027                 2.1267
 IR Inten    --      0.6139                27.4866                 5.7347

                     43                     44                     45
                      A                      A                      A
 Frequencies --   1061.2935              1079.7339              1111.5616
 Red. masses --      2.2244                 2.3721                 2.2292
 Frc consts  --      1.4761                 1.6294                 1.6228
 IR Inten    --      9.8887                20.9510                 1.4757

                     46                     47                     48
                      A                      A                      A
 Frequencies --   1120.0434              1179.6383              1196.4396
 Red. masses --      1.7345                 1.3415                 1.3599
 Frc consts  --      1.2820                 1.0999                 1.1469
 IR Inten    --      9.7825                 2.3467                53.0973

                     49                     50                     51
                      A                      A                      A
 Frequencies --   1216.7755              1225.0903              1232.1242
 Red. masses --      1.5520                 1.4390                 2.1582
 Frc consts  --      1.3538                 1.2724                 1.9304
 IR Inten    --    148.5731                51.0653                50.2190

                     52                     53                     54
                      A                      A                      A
 Frequencies --   1267.9510              1273.1547              1293.8850
 Red. masses --      2.2999                 1.8461                 1.6913
 Frc consts  --      2.1786                 1.7631                 1.6683
 IR Inten    --     36.0314                90.1841               128.1863

                     55                     56                     57
                      A                      A                      A
 Frequencies --   1308.8745              1329.6396              1365.0942
 Red. masses --      1.3641                 1.9822                 1.4017
 Frc consts  --      1.3769                 2.0648                 1.5390
 IR Inten    --     49.6589                59.9633                32.4585

                     58                     59                     60
                      A                      A                      A
 Frequencies --   1381.8071              1393.0763              1393.1321
 Red. masses --      3.0725                 1.8352                 2.4483
 Frc consts  --      3.4565                 2.0984                 2.7996
 IR Inten    --     28.9604                 0.2489                 3.1339

                     61                     62                     63
                      A                      A                      A
 Frequencies --   1417.5889              1428.8034              1435.9843
 Red. masses --      3.1150                 1.4981                 3.2226
 Frc consts  --      3.6881                 1.8019                 3.9152
 IR Inten    --      8.8049                 4.9672                17.9282

                     64                     65                     66
                      A                      A                      A
 Frequencies --   1468.8476              1504.5050              1506.2735
 Red. masses --      2.0693                 2.0588                 1.1015
 Frc consts  --      2.6304                 2.7457                 1.4725
 IR Inten    --      0.5633                10.0319                 2.9446

                     67                     68                     69
                      A                      A                      A
 Frequencies --   1515.2586              1535.9020              1554.8337
 Red. masses --      1.1032                 1.1001                 3.0154
 Frc consts  --      1.4924                 1.5291                 4.2951
 IR Inten    --      2.1971                 1.6573                10.5194

                     70                     71                     72
                      A                      A                      A
 Frequencies --   1612.6263              1640.5469              1674.6120
 Red. masses --      7.8534                 5.4324                 6.0270
 Frc consts  --     12.0330                 8.6142                 9.9581
 IR Inten    --     15.4932                23.7846               421.2126

                     73                     74                     75
                      A                      A                      A
 Frequencies --   1680.5121              1709.2907              3039.1169
 Red. masses --      5.7899                10.8465                 1.0720
 Frc consts  --      9.6339                18.6712                 5.8334
 IR Inten    --      7.3325                61.5265                14.2449

                     76                     77                     78
                      A                      A                      A
 Frequencies --   3046.6627              3060.1068              3102.2608
 Red. masses --      1.0702                 1.0600                 1.0968
 Frc consts  --      5.8530                 5.8482                 6.2189
 IR Inten    --     44.3263                27.2992                27.9914

                     79                     80                     81
                      A                      A                      A
 Frequencies --   3108.8330              3135.6263              3182.2526
 Red. masses --      1.0974                 1.0992                 1.0870
 Frc consts  --      6.2488                 6.3676                 6.4853
 IR Inten    --     25.9886                40.0287                11.0151

                     82                     83                     84
                      A                      A                      A
 Frequencies --   3184.9115              3196.8008              3202.7579
 Red. masses --      1.0863                 1.0910                 1.0961
 Frc consts  --      6.4924                 6.5693                 6.6243
 IR Inten    --      0.0347                12.4284                42.7905

                     85                     86                     87
                      A                      A                      A
 Frequencies --   3210.3237              3260.1858              3269.6972
 Red. masses --      1.0961                 1.0922                 1.0928
 Frc consts  --      6.6555                 6.8396                 6.8836
 IR Inten    --     28.9325                 3.1969                 0.5970

 - Thermochemistry -
 -------------------
 Temperature   298.150 Kelvin.  Pressure   1.00000 Atm.
 Atom     1 has atomic number  6 and mass  12.00000

 Molecular mass:   239.09463 amu.
 Principal axes and moments of inertia in atomic units:
                           1         2         3
     Eigenvalues --  1872.135567423.571368516.01306
           X            0.99997   0.00699   0.00255
           Y           -0.00696   0.99990  -0.01244
           Z           -0.00264   0.01242   0.99992
 This molecule is an asymmetric top.
 Rotational symmetry number  1.
 Warning -- assumption of classical behavior for rotation
           may cause significant error
 Rotational temperatures (Kelvin)      0.04626     0.01167     0.01017
 Rotational constants (GHZ):           0.96400     0.24311     0.21192
 Zero-point vibrational energy     656526.0 (Joules/Mol)
                                  156.91347 (Kcal/Mol)
 Warning -- explicit consideration of  22 degrees of freedom as
           vibrations may cause significant error
 Vibrational temperatures:     40.55    64.43    99.58   147.60   208.95
          (Kelvin)            251.38   264.60   336.00   367.83   398.94
                              424.52   524.01   576.21   595.76   651.19
                              693.42   696.60   731.78   758.92   776.26
                              825.99   880.13   957.78  1007.52  1081.47
                             1104.70  1124.31  1163.50  1172.39  1196.47
                             1227.65  1258.38  1286.23  1290.13  1322.18
                             1352.76  1377.08  1394.34  1409.32  1441.95
                             1464.92  1515.45  1526.96  1553.50  1599.29
                             1611.49  1697.24  1721.41  1750.67  1762.63
                             1772.75  1824.30  1831.79  1861.61  1883.18
                             1913.05  1964.07  1988.11  2004.33  2004.41
                             2039.59  2055.73  2066.06  2113.34  2164.65
                             2167.19  2180.12  2209.82  2237.06  2320.21
                             2360.38  2409.39  2417.88  2459.29  4372.61
                             4383.47  4402.81  4463.46  4472.92  4511.47
                             4578.55  4582.38  4599.48  4608.05  4618.94
                             4690.68  4704.36

 Zero-point correction=                           0.250058 (Hartree/Particle)
 Thermal correction to Energy=                    0.264094
 Thermal correction to Enthalpy=                  0.265038
 Thermal correction to Gibbs Free Energy=         0.208000
 Sum of electronic and zero-point Energies=           -784.430937
 Sum of electronic and thermal Energies=              -784.416900
 Sum of electronic and thermal Enthalpies=            -784.415956
 Sum of electronic and thermal Free Energies=         -784.472995

                     E (Thermal)             CV                S
                      KCal/Mol        Cal/Mol-Kelvin    Cal/Mol-Kelvin
 Total                  165.722             55.802            120.048
 Electronic               0.000              0.000              0.000
 Translational            0.889              2.981             42.316
 Rotational               0.889              2.981             33.137
 Vibrational            163.944             49.841             44.595
 Vibration     1          0.593              1.984              5.953
 Vibration     2          0.595              1.979              5.035
 Vibration     3          0.598              1.969              4.176
 Vibration     4          0.605              1.947              3.405
 Vibration     5          0.617              1.908              2.734
 Vibration     6          0.627              1.874              2.384
 Vibration     7          0.631              1.862              2.288
 Vibration     8          0.654              1.790              1.852
 Vibration     9          0.666              1.753              1.691
 Vibration    10          0.678              1.715              1.550
 Vibration    11          0.689              1.683              1.445
 Vibration    12          0.738              1.546              1.104
 Vibration    13          0.766              1.469              0.961
 Vibration    14          0.778              1.440              0.912
 Vibration    15          0.811              1.355              0.788
 Vibration    16          0.838              1.290              0.705
 Vibration    17          0.840              1.285              0.699
 Vibration    18          0.864              1.231              0.637
 Vibration    19          0.882              1.189              0.593
 Vibration    20          0.895              1.163              0.566
 Vibration    21          0.930              1.087              0.496
 Vibration    22          0.971              1.007              0.430

                           ! Non-Optimized Parameters !
 Normal termination of Gaussian 16 at Sun Dec 13 12:39:12 2020.

 ----------------------------------------------------------------------
 # B3LYP/6-311++G(d,p) empiricaldispersion=gd3bj scf=xqc pop=npa geom=c
 heck
 ----------------------------------------------------------------------

 ---------------------------------------
 CID_113370500_JID_8501_Energie_neutraal
 ---------------------------------------
 Structure from the checkpoint file:  "JID_8501.chk"
 Charge =  0 Multiplicity = 1

 SCF Done:  E(RB3LYP) =  -784.884694370     A.U. after   17 cycles
 Normal termination of Gaussian 16 at Sun Dec 13 12:45:16 2020.

 ----------------------------------------------------------------------
 # B3LYP/6-311++G(d,p) empiricaldispersion=gd3bj scf=xqc pop=npa geom=c
 heck
 ----------------------------------------------------------------------

 -------------------------------------
 CID_113370500_JID_8501_Energie_kation
 -------------------------------------
 Structure from the checkpoint file:  "JID_8501.chk"
 Charge =  1 Multiplicity = 2

 SCF Done:  E(UB3LYP) =  -784.592621950     A.U. after   27 cycles
 Normal termination of Gaussian 16 at Sun Dec 13 12:58:49 2020.
 Gaussian 16:  ES64L-G16RevA.03 25-Dec-2016

 ----------------------------------------------------------------------
 # B3LYP/6-311++G(d,p) empiricaldispersion=gd3bj scf=xqc pop=npa geom=c
 heck
 ----------------------------------------------------------------------

 ------------------------------------
 CID_113370500_JID_8501_Energie_anion
 ------------------------------------
 Structure from the checkpoint file:  "JID_8501.chk"
 Charge = -1 Multiplicity = 2

                         Standard orientation:
 ---------------------------------------------------------------------
 Center     Atomic      Atomic             Coordinates (Angstroms)
 Number     Number       Type             X           Y           Z
 ---------------------------------------------------------------------
      1          6           0       -4.467295   -0.573311   -0.299455
      2          6           0       -3.106217   -1.245772   -0.503032
      3          6           0       -1.996875   -0.271418   -0.177177
      4          6           0       -2.255472    0.847744    0.542400
      5          8           0       -3.440596    1.173299    1.085839
      6          6           0       -4.477865    0.171656    1.027135
      7          6           0       -0.657511   -0.624187   -0.654270
      8          8           0       -0.471622   -1.705885   -1.216540
      9          6           0        0.523113    0.305086   -0.454190
     10          7           0        0.308743    1.586675   -0.705584
     11          6           0        1.348126    2.455085   -0.617506
     12          6           0        2.618976    2.079788   -0.259266
     13          6           0        2.882002    0.720312    0.038979
     14          6           0        4.165316    0.266200    0.439277
     15          6           0        4.374271   -1.062067    0.725798
     16          6           0        3.309731   -1.989252    0.622681
     17          6           0        2.054905   -1.581802    0.230629
     18          6           0        1.805006   -0.215738   -0.071838
     19          1           0       -5.281085   -1.306981   -0.309842
     20          1           0       -4.658981    0.141855   -1.108569
     21          1           0       -3.022147   -2.146056    0.120904
     22          1           0       -2.987156   -1.589984   -1.534820
     23          1           0       -1.514005    1.612567    0.729768
     24          1           0       -5.407705    0.718257    1.197782
     25          1           0       -4.317502   -0.521651    1.863380
     26          1           0        1.113473    3.490929   -0.850345
     27          1           0        3.418950    2.812357   -0.197785
     28          1           0        4.974504    0.987352    0.517503
     29          1           0        5.358077   -1.405011    1.033480
     30          1           0        3.488275   -3.035892    0.851322
     31          1           0        1.250577   -2.297722    0.130925
 ---------------------------------------------------------------------

 SCF Done:  E(UB3LYP) =  -784.905961883     A.U. after   26 cycles

 The electronic state is 2-A.
 Alpha  occ. eigenvalues --  -19.04500 -18.93430 -14.14531 -10.13066 -10.09535
 Alpha  occ. eigenvalues --  -10.08430 -10.07768 -10.05923 -10.05456 -10.04764
 Alpha  occ. eigenvalues --  -10.04508 -10.04243 -10.04105 -10.03750 -10.03686
 Alpha  occ. eigenvalues --  -10.03499 -10.02652 -10.02142  -0.96277  -0.87303
 Alpha  occ. eigenvalues --   -0.78847  -0.71722  -0.70084  -0.66671  -0.64432
 Alpha  occ. eigenvalues --   -0.62364  -0.59507  -0.56087  -0.53453  -0.50947
 Alpha  occ. eigenvalues --   -0.48480  -0.47382  -0.44385  -0.42581  -0.39658
 Alpha  occ. eigenvalues --   -0.38230  -0.37722  -0.36469  -0.35295  -0.33125
 Alpha  occ. eigenvalues --   -0.32786  -0.31768  -0.31086  -0.29724  -0.28915
 Alpha  occ. eigenvalues --   -0.28222  -0.27815  -0.27128  -0.26541  -0.25368
 Alpha  occ. eigenvalues --   -0.23854  -0.23177  -0.22633  -0.22234  -0.21224
 Alpha  occ. eigenvalues --   -0.20524  -0.20245  -0.15467  -0.12681  -0.11988
 Alpha  occ. eigenvalues --   -0.10554  -0.09148  -0.08705   0.03426
 Alpha virt. eigenvalues --    0.06823   0.08635   0.08962   0.09379   0.09597
 Alpha virt. eigenvalues --    0.09731   0.10444   0.11081   0.11342   0.11958
 Alpha virt. eigenvalues --    0.12503   0.13140   0.13266   0.13890   0.14204

  Beta  occ. eigenvalues --  -19.04446 -18.93058 -14.14270 -10.13066 -10.09348
  Beta  occ. eigenvalues --  -10.08252 -10.07768 -10.05917 -10.05505 -10.04803
  Beta  occ. eigenvalues --  -10.04299 -10.04213 -10.04034 -10.03825 -10.03670
  Beta  occ. eigenvalues --  -10.03362 -10.02490 -10.01847  -0.96147  -0.86632
  Beta  occ. eigenvalues --   -0.78354  -0.71478  -0.70081  -0.66507  -0.64050
  Beta  occ. eigenvalues --   -0.62093  -0.59177  -0.55962  -0.53330  -0.50327
  Beta  occ. eigenvalues --   -0.48397  -0.47062  -0.44204  -0.42460  -0.39461
  Beta  occ. eigenvalues --   -0.38048  -0.37542  -0.36358  -0.35100  -0.32977
  Beta  occ. eigenvalues --   -0.32699  -0.31659  -0.30943  -0.29451  -0.28817
  Beta  occ. eigenvalues --   -0.28092  -0.27604  -0.26846  -0.25840  -0.25112
  Beta  occ. eigenvalues --   -0.23493  -0.22962  -0.22496  -0.21308  -0.20903
  Beta  occ. eigenvalues --   -0.20115  -0.19587  -0.14341  -0.12022  -0.11549
  Beta  occ. eigenvalues --   -0.09957  -0.08264  -0.07823
  Beta virt. eigenvalues --    0.06794   0.08609   0.08817   0.09294   0.09346
  Beta virt. eigenvalues --    0.09698   0.10422   0.10900   0.11255   0.11368
  Beta virt. eigenvalues --    0.11932   0.12566   0.13211   0.13266   0.14035

 Mulliken charges and spin densities:
               1          2
     1  C   -0.342014   0.004038
     2  C   -0.252552  -0.011279
     3  C    0.905012  -0.028361
     4  C   -0.942891   0.116595
     5  O   -0.067698   0.007567
     6  C   -0.335668  -0.002301
     7  C   -0.544784   0.090847
     8  O   -0.333322   0.130131
     9  C   -1.429197   0.174957
    10  N    0.091387   0.132488
    11  C   -0.005146  -0.032933
    12  C   -0.187066   0.243995
    13  C    1.188448  -0.044011
    14  C   -0.125244   0.099966
    15  C   -0.286148   0.061885
    16  C   -0.625106   0.015431
    17  C   -0.754477   0.091886
    18  C    1.221031  -0.030665
    19  H    0.124883   0.002351
    20  H    0.154866   0.000629
    21  H    0.161860   0.005320
    22  H    0.183551  -0.005105
    23  H    0.241082  -0.007299
    24  H    0.161353   0.004383
    25  H    0.122789   0.015131
    26  H    0.128372   0.002156
    27  H    0.099666  -0.017720
    28  H    0.080596  -0.008049
    29  H    0.109156  -0.004918
    30  H    0.126158  -0.001065
    31  H    0.131105  -0.006051
 Sum of Mulliken charges =  -1.00000   1.00000

 Dipole moment (field-independent basis, Debye):
    X=             -4.3344    Y=              0.1457    Z=              2.2252  Tot=              4.8744
 Quadrupole moment (field-independent basis, Debye-Ang):
   XX=           -130.1762   YY=           -123.7613   ZZ=           -119.5836
   XY=              5.2477   XZ=             -0.2681   YZ=             -4.1016

 Summary of Natural Population Analysis:

                                       Natural Population
                Natural  -----------------------------------------------
    Atom  No    Charge         Core      Valence    Rydberg      Total
 -----------------------------------------------------------------------
      C    1   -0.20423      0.99964     2.19852    0.00607     3.20423
      C    2   -0.19769      0.99961     2.18898    0.00910     3.19769
      C    3   -0.12430      0.99949     2.11584    0.00897     3.12430
      C    4    0.14571      0.99943     1.84222    0.01264     2.85429
      O    5   -0.27288      0.99987     3.26236    0.01065     4.27288
      C    6   -0.00870      0.99958     1.99902    0.01009     3.00870
      C    7    0.27431      0.99957     1.70566    0.02047     2.72569
      O    8   -0.27586      0.99989     3.26962    0.00636     4.27586
      C    9    0.14197      0.99943     1.84323    0.01537     2.85803
      N   10   -0.21359      0.99969     2.70304    0.01087     3.71359
      C   11   -0.00144      0.99958     1.98723    0.01463     3.00144
      C   12   -0.06558      0.99952     2.05750    0.00855     3.06558
      C   13   -0.02807      0.99950     2.02022    0.00836     3.02807
      C   14   -0.07963      0.99953     2.07112    0.00898     3.07963
      C   15   -0.09364      0.99957     2.08458    0.00948     3.09364
      C   16   -0.11352      0.99957     2.10444    0.00951     3.11352
      C   17   -0.05430      0.99954     2.04636    0.00840     3.05430
      C   18   -0.04490      0.99948     2.03682    0.00861     3.04490
      H   19    0.09533      0.00000     0.40350    0.00116     0.40467
      H   20    0.09715      0.00000     0.40162    0.00123     0.40285
      H   21    0.09706      0.00000     0.40148    0.00146     0.40294
      H   22    0.11092      0.00000     0.38775    0.00133     0.38908
      H   23    0.10441      0.00000     0.39430    0.00129     0.39559
      H   24    0.08588      0.00000     0.41299    0.00112     0.41412
      H   25    0.08038      0.00000     0.41816    0.00146     0.41962
      H   26    0.07922      0.00000     0.41950    0.00129     0.42078
      H   27    0.08755      0.00000     0.41063    0.00182     0.41245
      H   28    0.08874      0.00000     0.40959    0.00167     0.41126
      H   29    0.08898      0.00000     0.40996    0.00106     0.41102
      H   30    0.09049      0.00000     0.40847    0.00104     0.40951
      H   31    0.11022      0.00000     0.38833    0.00145     0.38978
 =======================================================================
   * Total *    0.00000     17.99249    44.80304    0.20447    63.00000

 Normal termination of Gaussian 16 at Sun Dec 13 13:11:31 2020.
