 Gaussian 16, Revision A.03,

 -----------------------------------------------------------
 # opt freq B3LYP/6-31G(d) empiricaldispersion=gd3bj scf=xqc
 -----------------------------------------------------------

 -------------------------------
 CID_137408232_JID_1725_neutraal
 -------------------------------
 Symbolic Z-matrix:
 Charge =  0 Multiplicity = 1

 SCF Done:  E(RB3LYP) =  -517.886465948     A.U. after   14 cycles
 SCF Done:  E(RB3LYP) =  -517.890609032     A.U. after   12 cycles
 SCF Done:  E(RB3LYP) =  -517.891250035     A.U. after   11 cycles
 SCF Done:  E(RB3LYP) =  -517.891470518     A.U. after   11 cycles
 SCF Done:  E(RB3LYP) =  -517.891519861     A.U. after   10 cycles
 SCF Done:  E(RB3LYP) =  -517.891557973     A.U. after   10 cycles
 SCF Done:  E(RB3LYP) =  -517.891583949     A.U. after   10 cycles
 SCF Done:  E(RB3LYP) =  -517.891589815     A.U. after    9 cycles
 SCF Done:  E(RB3LYP) =  -517.891591804     A.U. after    8 cycles
 SCF Done:  E(RB3LYP) =  -517.891592619     A.U. after    7 cycles
 SCF Done:  E(RB3LYP) =  -517.891592830     A.U. after    7 cycles
 SCF Done:  E(RB3LYP) =  -517.891592879     A.U. after    7 cycles
 Optimization completed.
    -- Stationary point found.
 Normal termination of Gaussian 16 at Tue Dec  8 20:55:21 2020.

 --------------------------------------------------------------------
 #N Geom=AllCheck Guess=TCheck SCRF=Check GenChk RB3LYP/6-31G(d) Freq
 --------------------------------------------------------------------

 Structure from the checkpoint file:  "JID_1725.chk"
 -------------------------------
 CID_137408232_JID_1725_neutraal
 -------------------------------
 Charge =  0 Multiplicity = 1

 SCF Done:  E(RB3LYP) =  -517.891592879     A.U. after    1 cycles

  Exact polarizability: 104.143  -3.504  82.519   6.333   0.473  83.087
 Approx polarizability: 133.320  -4.971 122.160  16.853   1.977 126.466

                      1                      2                      3
                      A                      A                      A
 Frequencies --     52.3044                66.3546                82.1200
 Red. masses --      4.6469                 3.2936                 3.6384
 Frc consts  --      0.0075                 0.0085                 0.0145
 IR Inten    --      0.4368                 0.7356                 0.1287

                      4                      5                      6
                      A                      A                      A
 Frequencies --    141.7807               190.8597               258.0744
 Red. masses --      3.4426                 3.7117                 3.8074
 Frc consts  --      0.0408                 0.0797                 0.1494
 IR Inten    --      3.8505                 1.7343                17.9508

                      7                      8                      9
                      A                      A                      A
 Frequencies --    271.4170               310.4978               377.0701
 Red. masses --      3.5358                 3.2764                 2.0052
 Frc consts  --      0.1535                 0.1861                 0.1680
 IR Inten    --     10.7131                 2.1122                 4.9940

                     10                     11                     12
                      A                      A                      A
 Frequencies --    401.0878               429.1578               500.9964
 Red. masses --      1.9068                 1.2216                 2.3958
 Frc consts  --      0.1807                 0.1326                 0.3543
 IR Inten    --     10.6437                74.6579                 5.4479

                     13                     14                     15
                      A                      A                      A
 Frequencies --    528.5592               580.6846               613.4855
 Red. masses --      1.6664                 3.4216                 3.5303
 Frc consts  --      0.2743                 0.6798                 0.7828
 IR Inten    --    134.5269                 9.4618                 7.5754

                     16                     17                     18
                      A                      A                      A
 Frequencies --    647.8626               730.0366               781.1525
 Red. masses --      4.1741                 4.5931                 1.3621
 Frc consts  --      1.0322                 1.4423                 0.4897
 IR Inten    --     12.6852                 8.4835                 1.5709

                     19                     20                     21
                      A                      A                      A
 Frequencies --    806.5391               828.8259               844.8085
 Red. masses --      1.3722                 3.2380                 1.5414
 Frc consts  --      0.5259                 1.3106                 0.6482
 IR Inten    --      2.3773                 8.8425                10.5171

                     22                     23                     24
                      A                      A                      A
 Frequencies --    886.0363               905.1193               951.6901
 Red. masses --      2.3492                 1.8352                 2.8852
 Frc consts  --      1.0866                 0.8858                 1.5397
 IR Inten    --      6.1904                 0.9976                 5.3398

                     25                     26                     27
                      A                      A                      A
 Frequencies --    979.8515              1009.7780              1044.4676
 Red. masses --      2.1483                 2.0224                 1.7515
 Frc consts  --      1.2152                 1.2150                 1.1258
 IR Inten    --     17.3605                 1.7762                 3.0576

                     28                     29                     30
                      A                      A                      A
 Frequencies --   1065.1715              1082.6226              1088.0829
 Red. masses --      1.3927                 2.2395                 1.4879
 Frc consts  --      0.9310                 1.5465                 1.0379
 IR Inten    --      8.4907                11.8525                 0.0308

                     31                     32                     33
                      A                      A                      A
 Frequencies --   1096.1319              1147.2023              1161.4798
 Red. masses --      2.3432                 1.1694                 2.8101
 Frc consts  --      1.6588                 0.9068                 2.2335
 IR Inten    --     28.3114                17.2098                72.8874

                     34                     35                     36
                      A                      A                      A
 Frequencies --   1191.9661              1196.4761              1212.1419
 Red. masses --      1.8396                 1.5339                 1.3986
 Frc consts  --      1.5399                 1.2937                 1.2107
 IR Inten    --      1.4576                 1.6173                 0.4681

                     37                     38                     39
                      A                      A                      A
 Frequencies --   1239.1746              1271.1388              1286.2762
 Red. masses --      1.7863                 1.3781                 1.1694
 Frc consts  --      1.6161                 1.3119                 1.1400
 IR Inten    --      0.2133                27.6677                32.3403

                     40                     41                     42
                      A                      A                      A
 Frequencies --   1291.5596              1305.9035              1346.0193
 Red. masses --      1.5495                 1.4259                 1.4703
 Frc consts  --      1.5229                 1.4327                 1.5695
 IR Inten    --     64.2924                71.4537                 4.8249

                     43                     44                     45
                      A                      A                      A
 Frequencies --   1369.8981              1392.4406              1413.5231
 Red. masses --      1.4615                 1.3278                 1.6896
 Frc consts  --      1.6159                 1.5169                 1.9890
 IR Inten    --     11.2808                21.8691                13.3544

                     46                     47                     48
                      A                      A                      A
 Frequencies --   1445.0235              1452.4042              1457.7404
 Red. masses --      1.5555                 1.7876                 1.9483
 Frc consts  --      1.9137                 2.2218                 2.4393
 IR Inten    --     25.5726                 4.5743                55.4792

                     49                     50                     51
                      A                      A                      A
 Frequencies --   1495.8662              1513.1361              1525.7912
 Red. masses --      1.0907                 1.1118                 1.1140
 Frc consts  --      1.4379                 1.4998                 1.5280
 IR Inten    --      1.1418                 1.9110                 2.0731

                     52                     53                     54
                      A                      A                      A
 Frequencies --   1538.3542              1830.6806              2963.5006
 Red. masses --      1.3681                10.3386                 1.0816
 Frc consts  --      1.9076                20.4145                 5.5968
 IR Inten    --      0.9974               435.2843                50.6809

                     55                     56                     57
                      A                      A                      A
 Frequencies --   3000.7727              3022.9636              3063.6999
 Red. masses --      1.0812                 1.0689                 1.0971
 Frc consts  --      5.7361                 5.7550                 6.0673
 IR Inten    --     35.2679                66.7779                20.2973

                     58                     59                     60
                      A                      A                      A
 Frequencies --   3097.5979              3142.7205              3147.2188
 Red. masses --      1.0592                 1.0512                 1.0586
 Frc consts  --      5.9879                 6.1169                 6.1780
 IR Inten    --     13.6476                22.7506                11.2925

                     61                     62                     63
                      A                      A                      A
 Frequencies --   3149.7323              3159.6587              3217.5699
 Red. masses --      1.1068                 1.0891                 1.1191
 Frc consts  --      6.4692                 6.4059                 6.8260
 IR Inten    --     16.0103                10.1361                 0.3547

                     64                     65                     66
                      A                      A                      A
 Frequencies --   3231.7805              3618.6418              3648.9164
 Red. masses --      1.1157                 1.0777                 1.0652
 Frc consts  --      6.8656                 8.3146                 8.3565
 IR Inten    --     23.0803                21.8740                39.6368

 - Thermochemistry -
 -------------------
 Temperature   298.150 Kelvin.  Pressure   1.00000 Atm.
 Atom     1 has atomic number  6 and mass  12.00000

 Molecular mass:   155.09463 amu.
 Principal axes and moments of inertia in atomic units:
                           1         2         3
     Eigenvalues --   899.947492792.729462991.21641
           X            0.99994  -0.00264  -0.01069
           Y            0.00220   0.99916  -0.04098
           Z            0.01079   0.04096   0.99910
 This molecule is an asymmetric top.
 Rotational symmetry number  1.
 Warning -- assumption of classical behavior for rotation
           may cause significant error
 Rotational temperatures (Kelvin)      0.09624     0.03101     0.02896
 Rotational constants (GHZ):           2.00539     0.64623     0.60335
 Zero-point vibrational energy     544908.6 (Joules/Mol)
                                  130.23627 (Kcal/Mol)
 Warning -- explicit consideration of  15 degrees of freedom as
           vibrations may cause significant error
 Vibrational temperatures:     75.25    95.47   118.15   203.99   274.60
          (Kelvin)            371.31   390.51   446.74   542.52   577.08
                              617.46   720.82   760.48   835.48   882.67
                              932.13  1050.36  1123.90  1160.43  1192.50
                             1215.49  1274.81  1302.26  1369.27  1409.79
                             1452.85  1502.76  1532.54  1557.65  1565.51
                             1577.09  1650.57  1671.11  1714.97  1721.46
                             1744.00  1782.90  1828.89  1850.66  1858.27
                             1878.90  1936.62  1970.98  2003.41  2033.74
                             2079.07  2089.69  2097.36  2152.22  2177.07
                             2195.27  2213.35  2633.94  4263.82  4317.44
                             4349.37  4407.98  4456.75  4521.67  4528.15
                             4531.76  4546.04  4629.37  4649.81  5206.42
                             5249.98

 Zero-point correction=                           0.207545 (Hartree/Particle)
 Thermal correction to Energy=                    0.218147
 Thermal correction to Enthalpy=                  0.219091
 Thermal correction to Gibbs Free Energy=         0.170719
 Sum of electronic and zero-point Energies=           -517.684048
 Sum of electronic and thermal Energies=              -517.673446
 Sum of electronic and thermal Enthalpies=            -517.672502
 Sum of electronic and thermal Free Energies=         -517.720874

                     E (Thermal)             CV                S
                      KCal/Mol        Cal/Mol-Kelvin    Cal/Mol-Kelvin
 Total                  136.889             40.511            101.808
 Electronic               0.000              0.000              0.000
 Translational            0.889              2.981             41.026
 Rotational               0.889              2.981             30.398
 Vibrational            135.112             34.549             30.383
 Vibration     1          0.596              1.977              4.728
 Vibration     2          0.598              1.970              4.259
 Vibration     3          0.600              1.961              3.840
 Vibration     4          0.615              1.911              2.780
 Vibration     5          0.634              1.852              2.219
 Vibration     6          0.667              1.749              1.675
 Vibration     7          0.675              1.726              1.587
 Vibration     8          0.699              1.654              1.360
 Vibration     9          0.748              1.519              1.051
 Vibration    10          0.767              1.468              0.959
 Vibration    11          0.791              1.407              0.861
 Vibration    12          0.856              1.248              0.656
 Vibration    13          0.884              1.187              0.590
 Vibration    14          0.937              1.073              0.484
 Vibration    15          0.973              1.003              0.427

                           ! Non-Optimized Parameters !
 Normal termination of Gaussian 16 at Tue Dec  8 21:00:17 2020.

 ----------------------------------------------------------------------
 # B3LYP/6-311++G(d,p) empiricaldispersion=gd3bj scf=xqc pop=npa geom=c
 heck
 ----------------------------------------------------------------------

 ---------------------------------------
 CID_137408232_JID_1725_Energie_neutraal
 ---------------------------------------
 Structure from the checkpoint file:  "JID_1725.chk"
 Charge =  0 Multiplicity = 1

 SCF Done:  E(RB3LYP) =  -518.053267837     A.U. after   14 cycles
 Normal termination of Gaussian 16 at Tue Dec  8 21:04:53 2020.

 ----------------------------------------------------------------------
 # B3LYP/6-311++G(d,p) empiricaldispersion=gd3bj scf=xqc pop=npa geom=c
 heck
 ----------------------------------------------------------------------

 -------------------------------------
 CID_137408232_JID_1725_Energie_kation
 -------------------------------------
 Structure from the checkpoint file:  "JID_1725.chk"
 Charge =  1 Multiplicity = 2

 SCF Done:  E(UB3LYP) =  -517.711370298     A.U. after   33 cycles
 SCF Done:  E(UB3LYP) =  -517.711370299     a.u. after    2 cycles
 Normal termination of Gaussian 16 at Tue Dec  8 21:14:24 2020.
 Gaussian 16:  ES64L-G16RevA.03 25-Dec-2016

 ----------------------------------------------------------------------
 # B3LYP/6-311++G(d,p) empiricaldispersion=gd3bj scf=xqc pop=npa geom=c
 heck
 ----------------------------------------------------------------------

 ------------------------------------
 CID_137408232_JID_1725_Energie_anion
 ------------------------------------
 Structure from the checkpoint file:  "JID_1725.chk"
 Charge = -1 Multiplicity = 2

                         Standard orientation:
 ---------------------------------------------------------------------
 Center     Atomic      Atomic             Coordinates (Angstroms)
 Number     Number       Type             X           Y           Z
 ---------------------------------------------------------------------
      1          6           0        2.591446    1.207139   -0.533315
      2          6           0        3.545573    0.044661   -0.647931
      3          6           0        2.071042   -0.209212   -0.458715
      4          6           0        1.571906   -0.781518    0.851446
      5          6           0        0.060399   -0.649474    1.080462
      6          6           0       -0.506595    0.789089    1.004856
      7          6           0       -1.938254    0.593981    0.503640
      8          6           0       -1.826286   -0.660660   -0.368014
      9          8           0       -2.604686   -0.951885   -1.264735
     10          7           0       -0.719512   -1.333033    0.042354
     11          8           0       -2.439337    1.677682   -0.241563
     12          1           0        2.375765    1.791956   -1.422861
     13          1           0        2.609612    1.788724    0.385059
     14          1           0        3.986502   -0.169141   -1.617262
     15          1           0        4.205386   -0.155557    0.192820
     16          1           0        1.532337   -0.561455   -1.336028
     17          1           0        1.837498   -1.847351    0.915377
     18          1           0        2.086654   -0.292571    1.689362
     19          1           0       -0.173422   -1.088542    2.062293
     20          1           0       -0.436997    1.310531    1.962644
     21          1           0        0.036471    1.363098    0.249725
     22          1           0       -2.611293    0.349945    1.345502
     23          1           0       -0.477057   -2.238783   -0.336869
     24          1           0       -2.998073    1.269963   -0.930422
 ---------------------------------------------------------------------

 SCF Done:  E(UB3LYP) =  -518.041143100     A.U. after   33 cycles
 SCF Done:  E(UB3LYP) =  -518.041143100     a.u. after    1 cycles

 The electronic state is 2-A.
 Alpha  occ. eigenvalues --  -19.03014 -19.00008 -14.23936 -10.17228 -10.12949
 Alpha  occ. eigenvalues --  -10.11477 -10.07954 -10.07407 -10.07291 -10.07231
 Alpha  occ. eigenvalues --  -10.07005  -0.95634  -0.92480  -0.84585  -0.76398
 Alpha  occ. eigenvalues --   -0.68057  -0.65340  -0.56453  -0.51290  -0.50502
 Alpha  occ. eigenvalues --   -0.49437  -0.47214  -0.41805  -0.41033  -0.39975
 Alpha  occ. eigenvalues --   -0.38245  -0.36051  -0.34132  -0.32621  -0.31289
 Alpha  occ. eigenvalues --   -0.30644  -0.29447  -0.27262  -0.26621  -0.26460
 Alpha  occ. eigenvalues --   -0.25259  -0.24259  -0.19762  -0.19087  -0.18611
 Alpha  occ. eigenvalues --   -0.16315  -0.16124   0.04612
 Alpha virt. eigenvalues --    0.07104   0.07634   0.08180   0.09397   0.09646
 Alpha virt. eigenvalues --    0.10390   0.10509   0.11189   0.11929   0.12335
 Alpha virt. eigenvalues --    0.13027   0.13863   0.14999   0.15804   0.16266

  Beta  occ. eigenvalues --  -19.03012 -19.00005 -14.23901 -10.17227 -10.12934
  Beta  occ. eigenvalues --  -10.11450 -10.07949 -10.07396 -10.07269 -10.07216
  Beta  occ. eigenvalues --  -10.06964  -0.95624  -0.92473  -0.84541  -0.76380
  Beta  occ. eigenvalues --   -0.68001  -0.65288  -0.56394  -0.51227  -0.50448
  Beta  occ. eigenvalues --   -0.49392  -0.47153  -0.41748  -0.40989  -0.39948
  Beta  occ. eigenvalues --   -0.38209  -0.35982  -0.34078  -0.32577  -0.31260
  Beta  occ. eigenvalues --   -0.30614  -0.29411  -0.27236  -0.26585  -0.26424
  Beta  occ. eigenvalues --   -0.25218  -0.24222  -0.19735  -0.19064  -0.18580
  Beta  occ. eigenvalues --   -0.16293  -0.16072
  Beta virt. eigenvalues --    0.07171   0.07961   0.08590   0.08751   0.09802
  Beta virt. eigenvalues --    0.10182   0.10896   0.11188   0.11590   0.12338
  Beta virt. eigenvalues --    0.12846   0.13519   0.14285   0.15137   0.15801

 Mulliken charges and spin densities:
               1          2
     1  C    0.272099  -0.768911
     2  C    0.853108  -1.285537
     3  C   -2.189014   2.554156
     4  C    1.659831  -2.465221
     5  C    1.122899  -0.725303
     6  C    0.499102  -0.834636
     7  C    0.147128  -0.672797
     8  C    0.144399  -0.032841
     9  O   -0.427702   0.022397
    10  N   -0.246631   0.036992
    11  O   -0.248713   0.022658
    12  H    0.179476  -0.043830
    13  H   -0.176571   0.332962
    14  H   -0.215314   0.356949
    15  H   -0.159549   0.292788
    16  H   -0.206259   0.424036
    17  H   -0.684407   0.884436
    18  H   -0.229049   0.388739
    19  H   -1.051680   1.326782
    20  H   -0.267660   0.437783
    21  H    0.159337   0.046836
    22  H   -0.101936   0.297357
    23  H   -0.059086   0.375045
    24  H    0.226193   0.029161
 Sum of Mulliken charges =  -1.00000   1.00000

 Dipole moment (field-independent basis, Debye):
    X=             -1.5562    Y=              3.8545    Z=             -4.0057  Tot=              5.7728
 Quadrupole moment (field-independent basis, Debye-Ang):
   XX=           -120.2194   YY=           -108.3792   ZZ=           -109.5884
   XY=              3.2727   XZ=             -4.8784   YZ=              2.1715

 Summary of Natural Population Analysis:

                                       Natural Population
                Natural  -----------------------------------------------
    Atom  No    Charge         Core      Valence    Rydberg      Total
 -----------------------------------------------------------------------
      C    1   -0.20069      0.99962     2.19350    0.00757     3.20069
      C    2   -0.19570      0.99961     2.18720    0.00889     3.19570
      C    3   -0.11859      0.99958     2.10765    0.01135     3.11859
      C    4   -0.19400      0.99959     2.18255    0.01185     3.19400
      C    5   -0.00271      0.99960     1.98835    0.01476     3.00271
      C    6   -0.19816      0.99960     2.18870    0.00985     3.19816
      C    7    0.02867      0.99952     1.95690    0.01491     2.97133
      C    8    0.33376      0.99965     1.64262    0.02397     2.66624
      O    9   -0.33230      0.99987     3.32619    0.00624     4.33230
      N   10   -0.31373      0.99966     2.80292    0.01115     3.81373
      O   11   -0.37025      0.99989     3.36415    0.00621     4.37025
      H   12    0.10041      0.00000     0.39878    0.00081     0.39959
      H   13    0.10224      0.00000     0.39675    0.00101     0.39776
      H   14    0.10077      0.00000     0.39833    0.00091     0.39923
      H   15    0.10303      0.00000     0.39589    0.00108     0.39697
      H   16    0.10475      0.00000     0.39371    0.00155     0.39525
      H   17    0.10729      0.00000     0.38827    0.00444     0.39271
      H   18    0.10594      0.00000     0.39109    0.00298     0.39406
      H   19    0.09857      0.00000     0.39456    0.00687     0.40143
      H   20    0.10703      0.00000     0.39159    0.00138     0.39297
      H   21    0.10779      0.00000     0.39023    0.00198     0.39221
      H   22    0.08793      0.00000     0.41036    0.00171     0.41207
      H   23    0.20223      0.00000     0.29421    0.00356     0.29777
      H   24    0.23573      0.00000     0.26122    0.00304     0.26427
 =======================================================================
   * Total *   -0.00000     10.99620    30.84572    0.15808    42.00000

 Normal termination of Gaussian 16 at Tue Dec  8 21:20:57 2020.
