 Gaussian 16, Revision A.03,

 -----------------------------------------------------------
 # opt freq B3LYP/6-31G(d) empiricaldispersion=gd3bj scf=xqc
 -----------------------------------------------------------

 -------------------------------
 CID_114969137_JID_5093_neutraal
 -------------------------------
 Symbolic Z-matrix:
 Charge =  0 Multiplicity = 1

 SCF Done:  E(RB3LYP) =  -1090.98357506     A.U. after   14 cycles
 SCF Done:  E(RB3LYP) =  -1090.98850620     A.U. after   13 cycles
 SCF Done:  E(RB3LYP) =  -1090.98504273     A.U. after   13 cycles
 SCF Done:  E(RB3LYP) =  -1090.98943331     A.U. after   12 cycles
 SCF Done:  E(RB3LYP) =  -1090.98992759     A.U. after   12 cycles
 SCF Done:  E(RB3LYP) =  -1090.99011558     A.U. after   12 cycles
 SCF Done:  E(RB3LYP) =  -1090.99023405     A.U. after   11 cycles
 SCF Done:  E(RB3LYP) =  -1090.99027872     A.U. after   10 cycles
 SCF Done:  E(RB3LYP) =  -1090.99031929     A.U. after   10 cycles
 SCF Done:  E(RB3LYP) =  -1090.99032960     A.U. after    9 cycles
 SCF Done:  E(RB3LYP) =  -1090.99033131     A.U. after    8 cycles
 SCF Done:  E(RB3LYP) =  -1090.99033172     A.U. after    8 cycles
 SCF Done:  E(RB3LYP) =  -1090.99033177     A.U. after    7 cycles
 Optimization completed.
    -- Stationary point found.
 Normal termination of Gaussian 16 at Thu Dec 10 14:46:51 2020.

 --------------------------------------------------------------------
 #N Geom=AllCheck Guess=TCheck SCRF=Check GenChk RB3LYP/6-31G(d) Freq
 --------------------------------------------------------------------

 Structure from the checkpoint file:  "JID_5093.chk"
 -------------------------------
 CID_114969137_JID_5093_neutraal
 -------------------------------
 Charge =  0 Multiplicity = 1

 SCF Done:  E(RB3LYP) =  -1090.99033177     A.U. after    1 cycles

  Exact polarizability: 148.059   1.680 121.888  -3.912  -4.307 118.658
 Approx polarizability: 193.360   2.699 178.607   1.094   1.507 196.548

                      1                      2                      3
                      A                      A                      A
 Frequencies --     35.0229                46.0875                58.6833
 Red. masses --      4.6619                 5.9922                 3.3601
 Frc consts  --      0.0034                 0.0075                 0.0068
 IR Inten    --      1.1095                 0.9552                 1.3075

                      4                      5                      6
                      A                      A                      A
 Frequencies --     84.7307               104.9385               152.8826
 Red. masses --      3.7418                 5.7585                 4.3632
 Frc consts  --      0.0158                 0.0374                 0.0601
 IR Inten    --      5.3818                 4.2827                 2.2435

                      7                      8                      9
                      A                      A                      A
 Frequencies --    159.9844               177.9611               213.2754
 Red. masses --      6.9917                 1.0837                 2.7515
 Frc consts  --      0.1054                 0.0202                 0.0737
 IR Inten    --      2.5492                 0.6824                 6.5565

                     10                     11                     12
                      A                      A                      A
 Frequencies --    237.5301               246.7982               253.6284
 Red. masses --      3.4190                 1.8309                 1.0897
 Frc consts  --      0.1137                 0.0657                 0.0413
 IR Inten    --      1.2990                 1.3181                 0.4646

                     13                     14                     15
                      A                      A                      A
 Frequencies --    264.5687               278.9224               311.2336
 Red. masses --      3.0166                 5.1459                 3.5915
 Frc consts  --      0.1244                 0.2359                 0.2050
 IR Inten    --      1.1027                 2.8029                 1.4977

                     16                     17                     18
                      A                      A                      A
 Frequencies --    336.8286               371.2573               383.7204
 Red. masses --      3.8184                 2.3385                 5.2605
 Frc consts  --      0.2552                 0.1899                 0.4564
 IR Inten    --      2.3960                 8.9250                 4.8792

                     19                     20                     21
                      A                      A                      A
 Frequencies --    425.5066               437.7666               452.1744
 Red. masses --      4.3226                 3.2518                 2.3633
 Frc consts  --      0.4611                 0.3672                 0.2847
 IR Inten    --      1.4554                24.4547                10.3660

                     22                     23                     24
                      A                      A                      A
 Frequencies --    480.5686               499.5755               573.5085
 Red. masses --      2.8887                 4.8845                 2.9409
 Frc consts  --      0.3931                 0.7182                 0.5699
 IR Inten    --      0.9850                23.7482                19.9971

                     25                     26                     27
                      A                      A                      A
 Frequencies --    617.6825               666.3484               731.2174
 Red. masses --      2.8200                 3.8694                 3.5983
 Frc consts  --      0.6339                 1.0123                 1.1335
 IR Inten    --      1.7907                 7.6260                 4.2037

                     28                     29                     30
                      A                      A                      A
 Frequencies --    773.6697               800.0263               827.5634
 Red. masses --      3.6840                 2.6467                 1.9912
 Frc consts  --      1.2992                 0.9981                 0.8034
 IR Inten    --     58.9462                 9.3454                 0.2875

                     31                     32                     33
                      A                      A                      A
 Frequencies --    838.7842               879.3493               915.9960
 Red. masses --      2.2196                 2.7259                 2.2485
 Frc consts  --      0.9201                 1.2419                 1.1115
 IR Inten    --      0.5987                11.2120                13.8391

                     34                     35                     36
                      A                      A                      A
 Frequencies --    965.7769               994.4009              1002.0639
 Red. masses --      1.7356                 1.3888                 2.0218
 Frc consts  --      0.9538                 0.8091                 1.1961
 IR Inten    --      1.5155                14.2968                 4.6634

                     37                     38                     39
                      A                      A                      A
 Frequencies --   1002.9526              1012.6525              1021.4257
 Red. masses --      1.5760                 1.4359                 1.8480
 Frc consts  --      0.9340                 0.8675                 1.1360
 IR Inten    --     33.5276                11.3512                 2.6728

                     40                     41                     42
                      A                      A                      A
 Frequencies --   1030.8751              1060.2651              1092.0040
 Red. masses --      2.2671                 2.0609                 2.6334
 Frc consts  --      1.4195                 1.3650                 1.8502
 IR Inten    --     16.2252                44.8023                21.6981

                     43                     44                     45
                      A                      A                      A
 Frequencies --   1094.7108              1102.6483              1116.9472
 Red. masses --      3.1076                 1.6554                 3.1016
 Frc consts  --      2.1942                 1.1858                 2.2798
 IR Inten    --     44.4338                 4.3434                40.7221

                     46                     47                     48
                      A                      A                      A
 Frequencies --   1133.3888              1165.7759              1191.9031
 Red. masses --      3.0665                 3.2659                 2.5219
 Frc consts  --      2.3209                 2.6151                 2.1109
 IR Inten    --     74.8325                37.6288                19.8679

                     49                     50                     51
                      A                      A                      A
 Frequencies --   1209.2590              1239.8288              1276.6350
 Red. masses --      1.2531                 1.3453                 1.3341
 Frc consts  --      1.0796                 1.2184                 1.2811
 IR Inten    --      4.1879                44.6207                27.0294

                     52                     53                     54
                      A                      A                      A
 Frequencies --   1296.1021              1303.3490              1307.7730
 Red. masses --      1.8244                 1.3439                 2.7304
 Frc consts  --      1.8057                 1.3450                 2.7513
 IR Inten    --     55.5128                 2.4313               160.1883

                     55                     56                     57
                      A                      A                      A
 Frequencies --   1316.8770              1336.9720              1351.1181
 Red. masses --      1.3076                 1.2654                 1.4703
 Frc consts  --      1.3360                 1.3327                 1.5814
 IR Inten    --      7.2236                11.2903                45.2334

                     58                     59                     60
                      A                      A                      A
 Frequencies --   1360.8166              1372.1916              1380.7886
 Red. masses --      1.5385                 1.2082                 1.2375
 Frc consts  --      1.6786                 1.3404                 1.3901
 IR Inten    --     48.4803                30.2954                 3.7700

                     61                     62                     63
                      A                      A                      A
 Frequencies --   1397.0119              1405.3903              1424.1258
 Red. masses --      1.3236                 1.3577                 1.4805
 Frc consts  --      1.5220                 1.5799                 1.7691
 IR Inten    --      2.5372                 8.7878                11.6489

                     64                     65                     66
                      A                      A                      A
 Frequencies --   1430.6747              1444.6849              1474.7332
 Red. masses --      1.2146                 1.3228                 1.0515
 Frc consts  --      1.4648                 1.6267                 1.3473
 IR Inten    --      4.8840                11.6254                 4.6961

                     67                     68                     69
                      A                      A                      A
 Frequencies --   1493.9935              1497.1668              1504.5988
 Red. masses --      1.0498                 1.0943                 1.1058
 Frc consts  --      1.3806                 1.4452                 1.4749
 IR Inten    --      7.3055                 1.7233                 2.7220

                     70                     71                     72
                      A                      A                      A
 Frequencies --   1514.8026              1523.0150              1527.5446
 Red. masses --      1.1016                 1.0825                 1.0409
 Frc consts  --      1.4893                 1.4794                 1.4310
 IR Inten    --     10.3800                 0.0766                13.8241

                     73                     74                     75
                      A                      A                      A
 Frequencies --   1530.6408              1535.0015              1796.2322
 Red. masses --      1.0497                 1.1048                10.5057
 Frc consts  --      1.4490                 1.5337                19.9710
 IR Inten    --      7.5891                 2.3256               112.4896

                     76                     77                     78
                      A                      A                      A
 Frequencies --   2972.6398              2993.5803              3034.2003
 Red. masses --      1.0722                 1.0715                 1.0608
 Frc consts  --      5.5820                 5.6574                 5.7538
 IR Inten    --     46.7211                49.9858                10.7993

                     79                     80                     81
                      A                      A                      A
 Frequencies --   3038.5435              3039.1190              3051.5067
 Red. masses --      1.0650                 1.0759                 1.0717
 Frc consts  --      5.7932                 5.8551                 5.8799
 IR Inten    --     27.4462                 2.3548                25.6464

                     82                     83                     84
                      A                      A                      A
 Frequencies --   3068.6331              3079.8112              3092.1295
 Red. masses --      1.0352                 1.1029                 1.0293
 Frc consts  --      5.7434                 6.1636                 5.7982
 IR Inten    --     13.5839                42.3214                 2.3015

                     85                     86                     87
                      A                      A                      A
 Frequencies --   3095.3305              3106.0463              3113.4077
 Red. masses --      1.0848                 1.0925                 1.0948
 Frc consts  --      6.1239                 6.2100                 6.2527
 IR Inten    --      2.4337                51.2046                32.2401

                     88                     89                     90
                      A                      A                      A
 Frequencies --   3115.0691              3121.9671              3138.0245
 Red. masses --      1.0979                 1.0966                 1.1007
 Frc consts  --      6.2769                 6.2974                 6.3860
 IR Inten    --     28.5953                20.7572                 9.2021

                     91                     92                     93
                      A                      A                      A
 Frequencies --   3161.3253              3191.7182              3210.4403
 Red. masses --      1.1048                 1.1064                 1.1081
 Frc consts  --      6.5053                 6.6404                 6.7289
 IR Inten    --      4.2440                 1.0374                 3.0307

 - Thermochemistry -
 -------------------
 Temperature   298.150 Kelvin.  Pressure   1.00000 Atm.
 Atom     1 has atomic number  6 and mass  12.00000

 Molecular mass:   234.09258 amu.
 Principal axes and moments of inertia in atomic units:
                           1         2         3
     Eigenvalues --  1878.168655755.996046309.98202
           X            0.99992  -0.00807  -0.00999
           Y            0.00711   0.99571  -0.09220
           Z            0.01070   0.09212   0.99569
 This molecule is an asymmetric top.
 Rotational symmetry number  1.
 Warning -- assumption of classical behavior for rotation
           may cause significant error
 Rotational temperatures (Kelvin)      0.04612     0.01505     0.01373
 Rotational constants (GHZ):           0.96090     0.31354     0.28601
 Zero-point vibrational energy     738696.4 (Joules/Mol)
                                  176.55269 (Kcal/Mol)
 Warning -- explicit consideration of  25 degrees of freedom as
           vibrations may cause significant error
 Vibrational temperatures:     50.39    66.31    84.43   121.91   150.98
          (Kelvin)            219.96   230.18   256.05   306.86   341.75
                              355.09   364.91   380.66   401.31   447.80
                              484.62   534.16   552.09   612.21   629.85
                              650.58   691.43   718.78   825.15   888.71
                              958.73  1052.06  1113.14  1151.06  1190.68
                             1206.82  1265.19  1317.91  1389.54  1430.72
                             1441.75  1443.03  1456.98  1469.60  1483.20
                             1525.48  1571.15  1575.04  1586.46  1607.04
                             1630.69  1677.29  1714.88  1739.85  1783.84
                             1836.79  1864.80  1875.23  1881.59  1894.69
                             1923.60  1943.96  1957.91  1974.28  1986.65
                             2009.99  2022.04  2049.00  2058.42  2078.58
                             2121.81  2149.52  2154.09  2164.78  2179.46
                             2191.28  2197.80  2202.25  2208.52  2584.38
                             4276.97  4307.09  4365.54  4371.79  4372.61
                             4390.44  4415.08  4431.16  4448.88  4453.49
                             4468.91  4479.50  4481.89  4491.81  4514.92
                             4548.44  4592.17  4619.11

 Zero-point correction=                           0.281355 (Hartree/Particle)
 Thermal correction to Energy=                    0.297341
 Thermal correction to Enthalpy=                  0.298285
 Thermal correction to Gibbs Free Energy=         0.237577
 Sum of electronic and zero-point Energies=          -1090.708977
 Sum of electronic and thermal Energies=             -1090.692991
 Sum of electronic and thermal Enthalpies=           -1090.692047
 Sum of electronic and thermal Free Energies=        -1090.752754

                     E (Thermal)             CV                S
                      KCal/Mol        Cal/Mol-Kelvin    Cal/Mol-Kelvin
 Total                  186.584             59.962            127.770
 Electronic               0.000              0.000              0.000
 Translational            0.889              2.981             42.253
 Rotational               0.889              2.981             32.589
 Vibrational            184.807             54.001             52.927
 Vibration     1          0.594              1.982              5.522
 Vibration     2          0.595              1.979              4.979
 Vibration     3          0.596              1.974              4.501
 Vibration     4          0.601              1.960              3.778
 Vibration     5          0.605              1.945              3.360
 Vibration     6          0.619              1.899              2.636
 Vibration     7          0.622              1.891              2.550
 Vibration     8          0.628              1.869              2.350
 Vibration     9          0.644              1.821              2.015
 Vibration    10          0.656              1.783              1.821
 Vibration    11          0.661              1.768              1.753
 Vibration    12          0.665              1.757              1.705
 Vibration    13          0.671              1.738              1.631
 Vibration    14          0.679              1.713              1.540
 Vibration    15          0.700              1.652              1.356
 Vibration    16          0.718              1.602              1.227
 Vibration    17          0.743              1.531              1.075
 Vibration    18          0.753              1.505              1.024
 Vibration    19          0.787              1.415              0.873
 Vibration    20          0.798              1.388              0.834
 Vibration    21          0.811              1.356              0.789
 Vibration    22          0.837              1.293              0.709
 Vibration    23          0.855              1.251              0.659
 Vibration    24          0.930              1.089              0.498
 Vibration    25          0.977              0.995              0.420

 Optimization completed.
    -- Stationary point found.
 Normal termination of Gaussian 16 at Thu Dec 10 14:57:07 2020.

 ----------------------------------------------------------------------
 # B3LYP/6-311++G(d,p) empiricaldispersion=gd3bj scf=xqc pop=npa geom=c
 heck
 ----------------------------------------------------------------------

 ---------------------------------------
 CID_114969137_JID_5093_Energie_neutraal
 ---------------------------------------
 Structure from the checkpoint file:  "JID_5093.chk"
 Charge =  0 Multiplicity = 1

 SCF Done:  E(RB3LYP) =  -1091.21972352     A.U. after   15 cycles
 Normal termination of Gaussian 16 at Thu Dec 10 15:01:30 2020.

 ----------------------------------------------------------------------
 # B3LYP/6-311++G(d,p) empiricaldispersion=gd3bj scf=xqc pop=npa geom=c
 heck
 ----------------------------------------------------------------------

 -------------------------------------
 CID_114969137_JID_5093_Energie_kation
 -------------------------------------
 Structure from the checkpoint file:  "JID_5093.chk"
 Charge =  1 Multiplicity = 2

 SCF Done:  E(UB3LYP) =  -1090.89461224     A.U. after   24 cycles
 Normal termination of Gaussian 16 at Thu Dec 10 15:16:00 2020.
 Gaussian 16:  ES64L-G16RevA.03 25-Dec-2016

 ----------------------------------------------------------------------
 # B3LYP/6-311++G(d,p) empiricaldispersion=gd3bj scf=xqc pop=npa geom=c
 heck
 ----------------------------------------------------------------------

 ------------------------------------
 CID_114969137_JID_5093_Energie_anion
 ------------------------------------
 Structure from the checkpoint file:  "JID_5093.chk"
 Charge = -1 Multiplicity = 2

                         Standard orientation:
 ---------------------------------------------------------------------
 Center     Atomic      Atomic             Coordinates (Angstroms)
 Number     Number       Type             X           Y           Z
 ---------------------------------------------------------------------
      1          6           0       -2.922999    1.707655   -0.637377
      2          6           0       -1.658978    0.848935   -0.560282
      3          6           0       -0.699808    1.350708    0.527619
      4          8           0       -1.060485    1.383897    1.690967
      5          6           0        0.673340    1.789715    0.081164
      6          6           0        1.596135    0.580626   -0.198722
      7          6           0        1.907586   -0.216935    1.075996
      8          6           0        2.893342   -1.340874    0.759713
      9          8           0        4.093168   -0.844138    0.175948
     10          6           0        3.840347   -0.171007   -1.046150
     11          6           0        2.911457    1.030558   -0.851681
     12         16           0       -2.067494   -0.928484   -0.311449
     13          8           0       -2.935847   -1.322643   -1.432181
     14          8           0       -0.794302   -1.634281   -0.076950
     15          6           0       -3.029801   -0.992659    1.212172
     16          1           0       -3.386170    1.798551    0.348630
     17          1           0       -3.635509    1.272423   -1.342623
     18          1           0       -2.664972    2.714360   -0.982171
     19          1           0       -1.158814    0.813173   -1.533747
     20          1           0        0.580784    2.389989   -0.834532
     21          1           0        1.105238    2.415806    0.868097
     22          1           0        1.084294   -0.097809   -0.894791
     23          1           0        2.351086    0.451175    1.826343
     24          1           0        0.993403   -0.642650    1.499860
     25          1           0        3.196406   -1.868518    1.668399
     26          1           0        2.416922   -2.069079    0.081902
     27          1           0        3.393601   -0.869214   -1.776169
     28          1           0        4.815474    0.142835   -1.430580
     29          1           0        2.720864    1.513435   -1.819569
     30          1           0        3.410303    1.766687   -0.207307
     31          1           0       -2.477816   -0.473554    1.995575
     32          1           0       -4.002404   -0.530417    1.039289
     33          1           0       -3.146783   -2.054485    1.439576
 ---------------------------------------------------------------------

 SCF Done:  E(UB3LYP) =  -1091.22204152     A.U. after   33 cycles
 SCF Done:  E(UB3LYP) =  -1091.22204152     a.u. after    1 cycles

 The electronic state is 2-A.
 Alpha  occ. eigenvalues --  -88.91216 -19.02012 -18.98879 -18.98795 -18.93618
 Alpha  occ. eigenvalues --  -10.11394 -10.10588 -10.08175 -10.08131 -10.07279
 Alpha  occ. eigenvalues --  -10.06012 -10.05745 -10.05709 -10.04617 -10.04286
 Alpha  occ. eigenvalues --   -7.97836  -5.94091  -5.93972  -5.93907  -0.98033
 Alpha  occ. eigenvalues --   -0.93453  -0.88117  -0.87709  -0.70437  -0.68472
 Alpha  occ. eigenvalues --   -0.65733  -0.64287  -0.60498  -0.55045  -0.53063
 Alpha  occ. eigenvalues --   -0.51300  -0.47346  -0.45353  -0.41109  -0.38416
 Alpha  occ. eigenvalues --   -0.37589  -0.37168  -0.35894  -0.35248  -0.34570
 Alpha  occ. eigenvalues --   -0.34311  -0.34027  -0.31321  -0.30962  -0.30390
 Alpha  occ. eigenvalues --   -0.29744  -0.28796  -0.28678  -0.26950  -0.26633
 Alpha  occ. eigenvalues --   -0.25358  -0.24818  -0.24433  -0.22296  -0.21563
 Alpha  occ. eigenvalues --   -0.20943  -0.20532  -0.19729  -0.19502  -0.18018
 Alpha  occ. eigenvalues --   -0.16419  -0.15242  -0.09961   0.05007
 Alpha virt. eigenvalues --    0.07023   0.08109   0.08709   0.09332   0.09550
 Alpha virt. eigenvalues --    0.09778   0.11368   0.11704   0.11774   0.12287
 Alpha virt. eigenvalues --    0.12774   0.13355   0.13578   0.14456   0.14874

  Beta  occ. eigenvalues --  -88.91166 -19.02010 -18.98873 -18.98750 -18.93036
  Beta  occ. eigenvalues --  -10.11391 -10.10588 -10.08133 -10.08128 -10.06704
  Beta  occ. eigenvalues --  -10.05992 -10.05672 -10.05649 -10.04620 -10.04336
  Beta  occ. eigenvalues --   -7.97779  -5.94053  -5.93928  -5.93817  -0.97935
  Beta  occ. eigenvalues --   -0.93448  -0.87736  -0.86903  -0.70297  -0.68225
  Beta  occ. eigenvalues --   -0.65714  -0.64129  -0.60252  -0.54844  -0.53039
  Beta  occ. eigenvalues --   -0.51069  -0.47070  -0.45283  -0.40544  -0.38313
  Beta  occ. eigenvalues --   -0.37460  -0.37132  -0.35573  -0.35159  -0.34528
  Beta  occ. eigenvalues --   -0.34142  -0.33881  -0.31184  -0.30882  -0.30263
  Beta  occ. eigenvalues --   -0.29435  -0.28678  -0.28476  -0.26698  -0.26257
  Beta  occ. eigenvalues --   -0.25107  -0.24739  -0.24099  -0.22008  -0.20926
  Beta  occ. eigenvalues --   -0.20842  -0.20052  -0.19486  -0.18666  -0.17757
  Beta  occ. eigenvalues --   -0.16019  -0.15194  -0.09500
  Beta virt. eigenvalues --    0.07194   0.08028   0.08720   0.09203   0.09666
  Beta virt. eigenvalues --    0.09851   0.11523   0.11576   0.11770   0.12148
  Beta virt. eigenvalues --    0.12540   0.13278   0.13383   0.13578   0.14486

 Mulliken charges and spin densities:
               1          2
     1  C    0.043199  -0.564568
     2  C   -0.471835   0.334246
     3  C    0.016576   0.339840
     4  O   -0.343142   0.196437
     5  C   -0.917283   0.020296
     6  C    1.072781  -0.116388
     7  C   -0.453139  -0.020208
     8  C   -0.555574  -0.056105
     9  O   -0.130984   0.008073
    10  C   -0.294808  -0.187172
    11  C   -0.122684   0.009096
    12  S   -0.313850   0.239899
    13  O   -0.173092   0.005264
    14  O   -0.159421   0.012221
    15  C    0.096286  -0.600901
    16  H    0.128997   0.057182
    17  H   -0.018731   0.189603
    18  H    0.098357   0.031047
    19  H    0.228692  -0.003019
    20  H    0.091619   0.049816
    21  H    0.124239   0.039560
    22  H    0.220374  -0.014274
    23  H    0.137622   0.018003
    24  H    0.199213   0.001921
    25  H    0.164903  -0.005323
    26  H    0.145664   0.005889
    27  H    0.134282  -0.027652
    28  H   -0.041607   0.225678
    29  H   -0.031406   0.145956
    30  H    0.114150   0.031701
    31  H    0.160803   0.091388
    32  H   -0.128776   0.311884
    33  H   -0.021423   0.230606
 Sum of Mulliken charges =  -1.00000   1.00000

 Dipole moment (field-independent basis, Debye):
    X=              2.9720    Y=              0.7665    Z=             -1.1707  Tot=              3.2849
 Quadrupole moment (field-independent basis, Debye-Ang):
   XX=           -160.8018   YY=           -124.1999   ZZ=           -121.1727
   XY=             -2.9022   XZ=             -2.5200   YZ=             -7.7869

 Summary of Natural Population Analysis:

                                       Natural Population
                Natural  -----------------------------------------------
    Atom  No    Charge         Core      Valence    Rydberg      Total
 -----------------------------------------------------------------------
      C    1   -0.28806      0.99964     2.28182    0.00660     3.28806
      C    2   -0.23148      0.99953     2.21705    0.01490     3.23148
      C    3    0.35060      0.99964     1.62486    0.02489     2.64940
      O    4   -0.25713      0.99987     3.25089    0.00637     4.25713
      C    5   -0.22844      0.99958     2.21951    0.00935     3.22844
      C    6   -0.10663      0.99959     2.09629    0.01075     3.10663
      C    7   -0.20712      0.99961     2.19850    0.00902     3.20712
      C    8   -0.00758      0.99959     1.99772    0.01028     3.00758
      O    9   -0.30450      0.99989     3.29543    0.00918     4.30450
      C   10   -0.01034      0.99959     1.99633    0.01442     3.01034
      C   11   -0.20088      0.99961     2.19164    0.00963     3.20088
      S   12    1.03608      4.99926     1.87258    0.09208     6.96392
      O   13   -0.47764      0.99991     3.47184    0.00590     4.47764
      O   14   -0.47870      0.99991     3.47268    0.00612     4.47870
      C   15   -0.39908      0.99961     2.39132    0.00816     3.39908
      H   16    0.10548      0.00000     0.39341    0.00111     0.39452
      H   17    0.10591      0.00000     0.39286    0.00123     0.39409
      H   18    0.10116      0.00000     0.39806    0.00078     0.39884
      H   19    0.10867      0.00000     0.39024    0.00109     0.39133
      H   20    0.09781      0.00000     0.40091    0.00128     0.40219
      H   21    0.10212      0.00000     0.39648    0.00139     0.39788
      H   22    0.10170      0.00000     0.39686    0.00144     0.39830
      H   23    0.09336      0.00000     0.40568    0.00095     0.40664
      H   24    0.11830      0.00000     0.38069    0.00102     0.38170
      H   25    0.08610      0.00000     0.41298    0.00093     0.41390
      H   26    0.08036      0.00000     0.41858    0.00106     0.41964
      H   27    0.07436      0.00000     0.42444    0.00120     0.42564
      H   28    0.08669      0.00000     0.41205    0.00126     0.41331
      H   29    0.09723      0.00000     0.40160    0.00116     0.40277
      H   30    0.09437      0.00000     0.40417    0.00146     0.40563
      H   31    0.13279      0.00000     0.36601    0.00120     0.36721
      H   32    0.11175      0.00000     0.38696    0.00129     0.38825
      H   33    0.11273      0.00000     0.38569    0.00158     0.38727
 =======================================================================
   * Total *   -0.00000     18.99482    43.74611    0.25908    63.00000

 Normal termination of Gaussian 16 at Thu Dec 10 15:32:53 2020.
