 Gaussian 16, Revision A.03,

 -----------------------------------------------------------
 # opt freq B3LYP/6-31G(d) empiricaldispersion=gd3bj scf=xqc
 -----------------------------------------------------------

 -------------------------------
 CID_80501049_JID_10971_neutraal
 -------------------------------
 Symbolic Z-matrix:
 Charge =  0 Multiplicity = 1

 SCF Done:  E(RB3LYP) =  -845.840395413     A.U. after   16 cycles
 SCF Done:  E(RB3LYP) =  -845.848079051     A.U. after   13 cycles
 SCF Done:  E(RB3LYP) =  -845.846100223     A.U. after   15 cycles
 SCF Done:  E(RB3LYP) =  -845.848395475     A.U. after   13 cycles
 SCF Done:  E(RB3LYP) =  -845.847059975     A.U. after   15 cycles
 SCF Done:  E(RB3LYP) =  -845.850658363     A.U. after   13 cycles
 SCF Done:  E(RB3LYP) =  -845.852389156     A.U. after   13 cycles
 SCF Done:  E(RB3LYP) =  -845.853586908     A.U. after   12 cycles
 SCF Done:  E(RB3LYP) =  -845.854000840     A.U. after   14 cycles
 SCF Done:  E(RB3LYP) =  -845.854412188     A.U. after   12 cycles
 SCF Done:  E(RB3LYP) =  -845.854734036     A.U. after   10 cycles
 SCF Done:  E(RB3LYP) =  -845.854734386     A.U. after    9 cycles
 SCF Done:  E(RB3LYP) =  -845.854734601     A.U. after    8 cycles
 SCF Done:  E(RB3LYP) =  -845.854734618     A.U. after    7 cycles
 SCF Done:  E(RB3LYP) =  -845.854734618     A.U. after    7 cycles
 Optimization completed.
    -- Stationary point found.
 Normal termination of Gaussian 16 at Sat Dec 12 16:46:45 2020.

 --------------------------------------------------------------------
 #N Geom=AllCheck Guess=TCheck SCRF=Check GenChk RB3LYP/6-31G(d) Freq
 --------------------------------------------------------------------

 Structure from the checkpoint file:  "JID_10971.chk"
 -------------------------------
 CID_80501049_JID_10971_neutraal
 -------------------------------
 Charge =  0 Multiplicity = 1

 SCF Done:  E(RB3LYP) =  -845.854734618     A.U. after    1 cycles

  Exact polarizability: 226.794 -17.775 159.578 -13.885 -11.745 164.953
 Approx polarizability: 290.272 -41.939 245.501 -33.996 -29.072 283.403

                      1                      2                      3
                      A                      A                      A
 Frequencies --     16.1977                28.6811                29.7326
 Red. masses --      3.6379                 4.5878                 4.3156
 Frc consts  --      0.0006                 0.0022                 0.0022
 IR Inten    --      0.1547                 0.3210                 0.7716

                      4                      5                      6
                      A                      A                      A
 Frequencies --     47.1765                58.9376                65.6989
 Red. masses --      4.5047                 4.7737                 3.7194
 Frc consts  --      0.0059                 0.0098                 0.0095
 IR Inten    --      0.7006                 1.2500                 0.3875

                      7                      8                      9
                      A                      A                      A
 Frequencies --     72.8515               105.0039               131.6269
 Red. masses --      3.5286                 2.8142                 8.4484
 Frc consts  --      0.0110                 0.0183                 0.0862
 IR Inten    --      1.2353                 0.9123                 3.9599

                     10                     11                     12
                      A                      A                      A
 Frequencies --    152.4969               165.4837               175.6530
 Red. masses --      2.2206                 3.5004                 2.5330
 Frc consts  --      0.0304                 0.0565                 0.0460
 IR Inten    --      0.4831                 2.2727                 2.8850

                     13                     14                     15
                      A                      A                      A
 Frequencies --    204.0666               235.2743               253.3228
 Red. masses --      2.2769                 1.3152                 1.5937
 Frc consts  --      0.0559                 0.0429                 0.0603
 IR Inten    --      1.4672                 0.1913                 1.7094

                     16                     17                     18
                      A                      A                      A
 Frequencies --    276.6224               305.4845               331.9737
 Red. masses --      3.5015                 2.5285                 2.5902
 Frc consts  --      0.1579                 0.1390                 0.1682
 IR Inten    --      1.5672                 0.8204                 0.0230

                     19                     20                     21
                      A                      A                      A
 Frequencies --    337.1798               345.2110               378.4015
 Red. masses --      2.8551                 6.0545                 2.6008
 Frc consts  --      0.1912                 0.4251                 0.2194
 IR Inten    --      4.3224                 5.6220                 3.4680

                     22                     23                     24
                      A                      A                      A
 Frequencies --    409.7122               419.4387               429.6025
 Red. masses --      2.4557                 3.4129                 3.1223
 Frc consts  --      0.2429                 0.3538                 0.3395
 IR Inten    --      6.0050                 0.8079                 0.3029

                     25                     26                     27
                      A                      A                      A
 Frequencies --    450.0232               477.3803               502.6075
 Red. masses --      2.5294                 4.1087                 3.0995
 Frc consts  --      0.3018                 0.5517                 0.4613
 IR Inten    --      3.1080                 4.6693                 4.2103

                     28                     29                     30
                      A                      A                      A
 Frequencies --    535.4809               549.5567               577.9601
 Red. masses --      2.3110                 1.9736                 3.5998
 Frc consts  --      0.3904                 0.3512                 0.7085
 IR Inten    --     30.7117                26.9820                14.9860

                     31                     32                     33
                      A                      A                      A
 Frequencies --    619.2636               628.7696               661.2466
 Red. masses --      3.4623                 4.0800                 6.6849
 Frc consts  --      0.7823                 0.9504                 1.7222
 IR Inten    --     40.2595                11.2603                 2.1001

                     34                     35                     36
                      A                      A                      A
 Frequencies --    703.5935               738.7344               757.1799
 Red. masses --      3.8192                 1.9964                 3.1572
 Frc consts  --      1.1140                 0.6419                 1.0665
 IR Inten    --      3.7429                 4.3735                 6.1643

                     37                     38                     39
                      A                      A                      A
 Frequencies --    761.1598               792.5197               816.2120
 Red. masses --      3.2853                 2.1551                 2.1381
 Frc consts  --      1.1214                 0.7975                 0.8392
 IR Inten    --      9.2440                 3.1774                 6.1939

                     40                     41                     42
                      A                      A                      A
 Frequencies --    848.8339               851.8216               860.0712
 Red. masses --      1.5182                 1.4905                 1.4319
 Frc consts  --      0.6445                 0.6372                 0.6240
 IR Inten    --      6.2095                 0.5192                 6.2445

                     43                     44                     45
                      A                      A                      A
 Frequencies --    862.9904               903.9439               910.4894
 Red. masses --      2.0294                 3.3344                 1.5854
 Frc consts  --      0.8905                 1.6053                 0.7744
 IR Inten    --      5.3678                 7.6525                 8.7359

                     46                     47                     48
                      A                      A                      A
 Frequencies --    915.4162               934.9797               955.4708
 Red. masses --      2.0606                 2.8618                 1.9674
 Frc consts  --      1.0174                 1.4740                 1.0582
 IR Inten    --      0.0589                 4.4001                 1.8737

                     49                     50                     51
                      A                      A                      A
 Frequencies --    965.1000               968.4571               980.9955
 Red. masses --      1.3498                 1.2644                 1.4195
 Frc consts  --      0.7407                 0.6987                 0.8049
 IR Inten    --      0.4465                 4.6358                 3.9844

                     52                     53                     54
                      A                      A                      A
 Frequencies --    983.7318              1034.0193              1044.5931
 Red. masses --      1.5168                 5.4348                 2.7698
 Frc consts  --      0.8648                 3.4237                 1.7807
 IR Inten    --      0.9987                 2.0969                 3.4266

                     55                     56                     57
                      A                      A                      A
 Frequencies --   1053.8903              1078.1728              1087.9838
 Red. masses --      3.0274                 1.9966                 1.1997
 Frc consts  --      1.9811                 1.3675                 0.8367
 IR Inten    --      4.3434                 0.9792                 0.2252

                     58                     59                     60
                      A                      A                      A
 Frequencies --   1102.7047              1131.9156              1150.0738
 Red. masses --      1.4629                 1.8176                 2.7073
 Frc consts  --      1.0481                 1.3721                 2.1098
 IR Inten    --      0.7174                 1.9117                 4.2366

                     61                     62                     63
                      A                      A                      A
 Frequencies --   1151.3682              1163.2198              1212.3870
 Red. masses --      1.4565                 1.6820                 1.7681
 Frc consts  --      1.1376                 1.3409                 1.5312
 IR Inten    --      7.2824                 3.9997                 8.9130

                     64                     65                     66
                      A                      A                      A
 Frequencies --   1215.5643              1216.2633              1237.4056
 Red. masses --      1.3051                 1.5488                 2.5918
 Frc consts  --      1.1362                 1.3499                 2.3382
 IR Inten    --      0.5222                 0.5838                 6.6847

                     67                     68                     69
                      A                      A                      A
 Frequencies --   1252.9442              1256.9497              1275.3037
 Red. masses --      1.3487                 2.6498                 1.3267
 Frc consts  --      1.2475                 2.4666                 1.2713
 IR Inten    --      0.0238                22.9373                 0.2792

                     70                     71                     72
                      A                      A                      A
 Frequencies --   1280.8681              1293.1071              1310.0765
 Red. masses --      1.6915                 1.4603                 1.3439
 Frc consts  --      1.6350                 1.4387                 1.3589
 IR Inten    --     18.4301                 7.5900                 0.1757

                     73                     74                     75
                      A                      A                      A
 Frequencies --   1333.1528              1343.7404              1355.8790
 Red. masses --      1.1930                 2.0018                 2.0751
 Frc consts  --      1.2493                 2.1296                 2.2477
 IR Inten    --      3.5029                 1.6763                 9.9278

                     76                     77                     78
                      A                      A                      A
 Frequencies --   1367.3774              1379.4037              1398.8882
 Red. masses --      3.4273                 1.5789                 1.3516
 Frc consts  --      3.7756                 1.7701                 1.5583
 IR Inten    --    268.3303                11.0225                 8.7018

                     79                     80                     81
                      A                      A                      A
 Frequencies --   1400.9038              1410.8225              1441.0364
 Red. masses --      1.4953                 1.4593                 1.2958
 Frc consts  --      1.7290                 1.7114                 1.5854
 IR Inten    --     15.8437                 4.0075                 3.5785

                     82                     83                     84
                      A                      A                      A
 Frequencies --   1443.2513              1447.0467              1481.8609
 Red. masses --      1.2766                 2.0693                 2.2132
 Frc consts  --      1.5667                 2.5529                 2.8635
 IR Inten    --      9.0356                17.9785                14.6323

                     85                     86                     87
                      A                      A                      A
 Frequencies --   1502.7837              1510.9442              1520.7889
 Red. masses --      1.0851                 1.0801                 1.0630
 Frc consts  --      1.4438                 1.4528                 1.4485
 IR Inten    --      4.3272                 1.4108                 0.9325

                     88                     89                     90
                      A                      A                      A
 Frequencies --   1523.1302              1523.9723              1525.9303
 Red. masses --      1.0809                 1.0924                 1.0512
 Frc consts  --      1.4775                 1.4948                 1.4421
 IR Inten    --      0.8232                 4.5512                 2.0292

                     91                     92                     93
                      A                      A                      A
 Frequencies --   1528.8487              1533.1940              1540.4042
 Red. masses --      1.0740                 1.0680                 1.0637
 Frc consts  --      1.4791                 1.4792                 1.4872
 IR Inten    --      9.8133                 7.4435                 2.5024

                     94                     95                     96
                      A                      A                      A
 Frequencies --   1566.7570              1634.3613              1672.5654
 Red. masses --      2.6274                 6.3005                 5.8999
 Frc consts  --      3.8000                 9.9156                 9.7244
 IR Inten    --     72.2550                 2.4905                 5.1635

                     97                     98                     99
                      A                      A                      A
 Frequencies --   1790.8224              2350.1659              3030.3234
 Red. masses --      9.3360                12.6771                 1.0609
 Frc consts  --     17.6408                41.2541                 5.7400
 IR Inten    --    437.4253                18.6339                23.1198

                    100                    101                    102
                      A                      A                      A
 Frequencies --   3040.0031              3042.4715              3046.4138
 Red. masses --      1.0355                 1.0622                 1.0411
 Frc consts  --      5.6381                 5.7932                 5.6929
 IR Inten    --     27.2386                26.5015                23.9369

                    103                    104                    105
                      A                      A                      A
 Frequencies --   3050.8249              3063.9691              3066.8450
 Red. masses --      1.0605                 1.0857                 1.1013
 Frc consts  --      5.8154                 6.0049                 6.1031
 IR Inten    --     25.5191                 7.0366                24.3139

                    106                    107                    108
                      A                      A                      A
 Frequencies --   3077.8588              3088.8870              3095.6268
 Red. masses --      1.1012                 1.0619                 1.1000
 Frc consts  --      6.1462                 5.9696                 6.2106
 IR Inten    --     34.7938                19.2038                46.1124

                    109                    110                    111
                      A                      A                      A
 Frequencies --   3103.2080              3107.6928              3110.4512
 Red. masses --      1.0618                 1.0985                 1.1021
 Frc consts  --      6.0245                 6.2506                 6.2822
 IR Inten    --      9.4393                36.2318                28.1290

                    112                    113                    114
                      A                      A                      A
 Frequencies --   3112.0325              3119.5680              3158.5131
 Red. masses --      1.1012                 1.1014                 1.1059
 Frc consts  --      6.2833                 6.3153                 6.5003
 IR Inten    --     51.2486                54.7949                11.1841

                    115                    116                    117
                      A                      A                      A
 Frequencies --   3161.5603              3180.2811              3194.2124
 Red. masses --      1.1096                 1.0875                 1.0898
 Frc consts  --      6.5345                 6.4804                 6.5511
 IR Inten    --     13.9009                12.3221                15.8521

                    118                    119                    120
                      A                      A                      A
 Frequencies --   3199.9809              3241.3062              3571.1571
 Red. masses --      1.0945                 1.0929                 1.0751
 Frc consts  --      6.6031                 6.7649                 8.0779
 IR Inten    --      8.3758                 0.3725                29.6576

 - Thermochemistry -
 -------------------
 Temperature   298.150 Kelvin.  Pressure   1.00000 Atm.
 Atom     1 has atomic number  6 and mass  12.00000

 Molecular mass:   270.17321 amu.
 Principal axes and moments of inertia in atomic units:
                           1         2         3
     Eigenvalues --  2799.85184********************
           X            0.99985   0.01685  -0.00482
           Y           -0.01694   0.99968  -0.01877
           Z            0.00450   0.01885   0.99981
 This molecule is an asymmetric top.
 Rotational symmetry number  1.
 Warning -- assumption of classical behavior for rotation
           may cause significant error
 Rotational temperatures (Kelvin)      0.03094     0.00792     0.00767
 Rotational constants (GHZ):           0.64458     0.16510     0.15982
 Zero-point vibrational energy     947620.9 (Joules/Mol)
                                  226.48684 (Kcal/Mol)
 Warning -- explicit consideration of  31 degrees of freedom as
           vibrations may cause significant error
 Vibrational temperatures:     23.30    41.27    42.78    67.88    84.80
          (Kelvin)             94.53   104.82   151.08   189.38   219.41
                              238.09   252.73   293.61   338.51   364.48
                              398.00   439.52   477.64   485.13   496.68
                              544.44   589.48   603.48   618.10   647.48
                              686.84   723.14   770.44   790.69   831.56
                              890.98   904.66   951.39  1012.31  1062.87
                             1089.41  1095.14  1140.26  1174.35  1221.28
                             1225.58  1237.45  1241.65  1300.57  1309.99
                             1317.08  1345.23  1374.71  1388.56  1393.39
                             1411.43  1415.37  1487.72  1502.94  1516.31
                             1551.25  1565.37  1586.55  1628.57  1654.70
                             1656.56  1673.61  1744.35  1748.93  1749.93
                             1780.35  1802.71  1808.47  1834.88  1842.88
                             1860.49  1884.91  1918.11  1933.34  1950.81
                             1967.35  1984.65  2012.69  2015.59  2029.86
                             2073.33  2076.52  2081.98  2132.07  2162.17
                             2173.91  2188.08  2191.44  2192.66  2195.47
                             2199.67  2205.92  2216.30  2254.21  2351.48
                             2406.45  2576.59  3381.36  4359.96  4373.89
                             4377.44  4383.11  4389.46  4408.37  4412.51
                             4428.35  4444.22  4453.92  4464.82  4471.28
                             4475.25  4477.52  4488.36  4544.40  4548.78
                             4575.72  4595.76  4604.06  4663.52  5138.10

 Zero-point correction=                           0.360930 (Hartree/Particle)
 Thermal correction to Energy=                    0.381120
 Thermal correction to Enthalpy=                  0.382065
 Thermal correction to Gibbs Free Energy=         0.309528
 Sum of electronic and zero-point Energies=           -845.493805
 Sum of electronic and thermal Energies=              -845.473614
 Sum of electronic and thermal Enthalpies=            -845.472670
 Sum of electronic and thermal Free Energies=         -845.545207

                     E (Thermal)             CV                S
                      KCal/Mol        Cal/Mol-Kelvin    Cal/Mol-Kelvin
 Total                  239.157             76.005            152.667
 Electronic               0.000              0.000              0.000
 Translational            0.889              2.981             42.681
 Rotational               0.889              2.981             34.201
 Vibrational            237.379             70.043             75.785
 Vibration     1          0.593              1.986              7.053
 Vibration     2          0.593              1.984              5.919
 Vibration     3          0.594              1.984              5.847
 Vibration     4          0.595              1.979              4.932
 Vibration     5          0.596              1.974              4.492
 Vibration     6          0.597              1.971              4.278
 Vibration     7          0.599              1.967              4.075
 Vibration     8          0.605              1.945              3.359
 Vibration     9          0.612              1.922              2.922
 Vibration    10          0.619              1.900              2.641
 Vibration    11          0.624              1.885              2.486
 Vibration    12          0.628              1.872              2.374
 Vibration    13          0.640              1.834              2.096
 Vibration    14          0.655              1.787              1.838
 Vibration    15          0.664              1.757              1.707
 Vibration    16          0.678              1.717              1.554
 Vibration    17          0.696              1.663              1.387
 Vibration    18          0.714              1.612              1.250
 Vibration    19          0.718              1.601              1.225
 Vibration    20          0.724              1.585              1.188
 Vibration    21          0.749              1.516              1.046
 Vibration    22          0.774              1.449              0.928
 Vibration    23          0.782              1.428              0.894
 Vibration    24          0.791              1.406              0.860
 Vibration    25          0.809              1.361              0.796
 Vibration    26          0.834              1.300              0.717
 Vibration    27          0.858              1.244              0.652
 Vibration    28          0.890              1.172              0.575
 Vibration    29          0.905              1.141              0.545
 Vibration    30          0.934              1.079              0.489
 Vibration    31          0.979              0.991              0.418

                           ! Non-Optimized Parameters !
 Normal termination of Gaussian 16 at Sat Dec 12 17:07:00 2020.

 ----------------------------------------------------------------------
 # B3LYP/6-311++G(d,p) empiricaldispersion=gd3bj scf=xqc pop=npa geom=c
 heck
 ----------------------------------------------------------------------

 ---------------------------------------
 CID_80501049_JID_10971_Energie_neutraal
 ---------------------------------------
 Structure from the checkpoint file:  "JID_10971.chk"
 Charge =  0 Multiplicity = 1

 SCF Done:  E(RB3LYP) =  -846.084414220     A.U. after   16 cycles
 Normal termination of Gaussian 16 at Sat Dec 12 17:15:53 2020.

 ----------------------------------------------------------------------
 # B3LYP/6-311++G(d,p) empiricaldispersion=gd3bj scf=xqc pop=npa geom=c
 heck
 ----------------------------------------------------------------------

 -------------------------------------
 CID_80501049_JID_10971_Energie_kation
 -------------------------------------
 Structure from the checkpoint file:  "JID_10971.chk"
 Charge =  1 Multiplicity = 2

 SCF Done:  E(UB3LYP) =  -845.772363174     A.U. after   25 cycles
 Normal termination of Gaussian 16 at Sat Dec 12 17:34:54 2020.
 Gaussian 16:  ES64L-G16RevA.03 25-Dec-2016

 ----------------------------------------------------------------------
 # B3LYP/6-311++G(d,p) empiricaldispersion=gd3bj scf=xqc pop=npa geom=c
 heck
 ----------------------------------------------------------------------

 ------------------------------------
 CID_80501049_JID_10971_Energie_anion
 ------------------------------------
 Structure from the checkpoint file:  "JID_10971.chk"
 Charge = -1 Multiplicity = 2

                         Standard orientation:
 ---------------------------------------------------------------------
 Center     Atomic      Atomic             Coordinates (Angstroms)
 Number     Number       Type             X           Y           Z
 ---------------------------------------------------------------------
      1          6           0       -5.526198   -0.836259    1.260824
      2          6           0       -5.188175   -0.461714   -0.185105
      3          6           0       -4.830420    1.017770   -0.379593
      4          6           0       -3.555261    1.475474    0.360610
      5          6           0       -2.319433    0.727281   -0.081500
      6          6           0       -1.747933   -0.272536    0.712396
      7          6           0       -0.635345   -0.995366    0.281700
      8          6           0       -0.049881   -0.697948   -0.949422
      9          6           0       -0.612733    0.295037   -1.759573
     10          6           0       -1.737550    0.991114   -1.330072
     11          7           0        1.107488   -1.400782   -1.403870
     12          6           0        2.398967   -1.308164   -0.951198
     13          8           0        3.317390   -1.880894   -1.514663
     14          6           0        2.659063   -0.423343    0.283658
     15          6           0        4.120743    0.120754    0.384748
     16          6           0        3.556749    1.502423    0.803580
     17          6           0        2.171407    1.069666    0.258960
     18          6           0        4.199802    2.749358    0.219622
     19          6           0        2.269099   -1.117790    1.505464
     20          7           0        1.972703   -1.663516    2.487623
     21          1           0       -4.666078   -0.709159    1.927227
     22          1           0       -5.841893   -1.882698    1.332524
     23          1           0       -6.341023   -0.213226    1.650124
     24          1           0       -4.358576   -1.085482   -0.541386
     25          1           0       -6.047088   -0.696774   -0.826791
     26          1           0       -4.702117    1.216642   -1.451831
     27          1           0       -5.669249    1.643313   -0.044841
     28          1           0       -3.416850    2.549368    0.181950
     29          1           0       -3.689466    1.355893    1.441244
     30          1           0       -2.183860   -0.500733    1.681057
     31          1           0       -0.216130   -1.777988    0.902208
     32          1           0       -0.151947    0.525538   -2.716189
     33          1           0       -2.163808    1.763278   -1.965882
     34          1           0        1.036687   -1.922126   -2.270907
     35          1           0        4.789219   -0.399248    1.073291
     36          1           0        4.568635    0.129033   -0.611801
     37          1           0        3.515775    1.572914    1.896736
     38          1           0        2.020135    1.393230   -0.775190
     39          1           0        1.278464    1.305949    0.839611
     40          1           0        3.632756    3.649994    0.483641
     41          1           0        5.223603    2.877041    0.590371
     42          1           0        4.244952    2.687932   -0.874744
 ---------------------------------------------------------------------

 SCF Done:  E(UB3LYP) =  -846.080872862     A.U. after   33 cycles
 SCF Done:  E(UB3LYP) =  -846.080872862     a.u. after    1 cycles

 The electronic state is 2-A.
 Alpha  occ. eigenvalues --  -18.99938 -14.25005 -14.21603 -10.18455 -10.13547
 Alpha  occ. eigenvalues --  -10.11741 -10.10558 -10.09271 -10.09028 -10.08928
 Alpha  occ. eigenvalues --  -10.07616 -10.07476 -10.07415 -10.07295 -10.07288
 Alpha  occ. eigenvalues --  -10.07261 -10.07156 -10.07054 -10.07019 -10.06870
 Alpha  occ. eigenvalues --   -0.95371  -0.84090  -0.81783  -0.77779  -0.75427
 Alpha  occ. eigenvalues --   -0.70823  -0.66745  -0.66144  -0.64868  -0.61552
 Alpha  occ. eigenvalues --   -0.59045  -0.58489  -0.55839  -0.51993  -0.51228
 Alpha  occ. eigenvalues --   -0.50093  -0.48096  -0.46673  -0.44343  -0.42112
 Alpha  occ. eigenvalues --   -0.40021  -0.38417  -0.37670  -0.36951  -0.36363
 Alpha  occ. eigenvalues --   -0.35423  -0.34873  -0.34037  -0.33091  -0.32454
 Alpha  occ. eigenvalues --   -0.31792  -0.31391  -0.30694  -0.30299  -0.30007
 Alpha  occ. eigenvalues --   -0.28824  -0.28636  -0.27779  -0.27023  -0.26250
 Alpha  occ. eigenvalues --   -0.25548  -0.24953  -0.24588  -0.23935  -0.23344
 Alpha  occ. eigenvalues --   -0.23235  -0.22855  -0.22502  -0.21718  -0.18398
 Alpha  occ. eigenvalues --   -0.17200  -0.15866  -0.13964   0.03857
 Alpha virt. eigenvalues --    0.05842   0.06352   0.07138   0.07470   0.08008
 Alpha virt. eigenvalues --    0.08154   0.08346   0.08619   0.08934   0.09391
 Alpha virt. eigenvalues --    0.09883   0.10232   0.10581   0.10765   0.11252

  Beta  occ. eigenvalues --  -18.99847 -14.25033 -14.21559 -10.18359 -10.13551
  Beta  occ. eigenvalues --  -10.11733 -10.10404 -10.09264 -10.09016 -10.08901
  Beta  occ. eigenvalues --  -10.07589 -10.07472 -10.07368 -10.07302 -10.07286
  Beta  occ. eigenvalues --  -10.07265 -10.07122 -10.07028 -10.06882 -10.06819
  Beta  occ. eigenvalues --   -0.95209  -0.83974  -0.81721  -0.77740  -0.75262
  Beta  occ. eigenvalues --   -0.70761  -0.66659  -0.66019  -0.64746  -0.61437
  Beta  occ. eigenvalues --   -0.58969  -0.58435  -0.55755  -0.51899  -0.51072
  Beta  occ. eigenvalues --   -0.49942  -0.48023  -0.46593  -0.44267  -0.42028
  Beta  occ. eigenvalues --   -0.39948  -0.38340  -0.37566  -0.36889  -0.36282
  Beta  occ. eigenvalues --   -0.35346  -0.34798  -0.33980  -0.33012  -0.32416
  Beta  occ. eigenvalues --   -0.31612  -0.31303  -0.30593  -0.30193  -0.29948
  Beta  occ. eigenvalues --   -0.28780  -0.28580  -0.27704  -0.26703  -0.26153
  Beta  occ. eigenvalues --   -0.25455  -0.24877  -0.24519  -0.23830  -0.23292
  Beta  occ. eigenvalues --   -0.23176  -0.22790  -0.22420  -0.21676  -0.18106
  Beta  occ. eigenvalues --   -0.17099  -0.15535  -0.13326
  Beta virt. eigenvalues --    0.06040   0.06280   0.07201   0.07400   0.07789
  Beta virt. eigenvalues --    0.08149   0.08405   0.08534   0.08789   0.09296
  Beta virt. eigenvalues --    0.09716   0.10041   0.10591   0.10709   0.10880

 Mulliken charges and spin densities:
               1          2
     1  C   -0.163377  -0.413960
     2  C   -0.492334   0.266493
     3  C    0.539041  -0.822016
     4  C   -0.219423  -0.240154
     5  C    1.198471  -0.150721
     6  C   -0.832481   0.323263
     7  C   -0.389871   0.058529
     8  C    0.320510  -0.257796
     9  C   -0.231416   0.224893
    10  C   -0.150769  -0.379868
    11  N   -0.239192  -0.014366
    12  C   -0.399806   0.056568
    13  O   -0.304806   0.028667
    14  C    1.315403   0.665801
    15  C   -0.221527  -0.538390
    16  C   -0.402045   0.782383
    17  C   -0.145726  -0.581799
    18  C    0.330482  -1.081426
    19  C   -0.721475  -0.229147
    20  N   -0.240183   0.032277
    21  H    0.113452   0.027411
    22  H    0.108908   0.011637
    23  H   -0.014378   0.146050
    24  H    0.145507  -0.010527
    25  H    0.026773   0.119949
    26  H    0.107438   0.027247
    27  H   -0.345770   0.492238
    28  H   -0.343388   0.538620
    29  H    0.033290   0.114903
    30  H    0.064702   0.068263
    31  H    0.195245   0.016581
    32  H    0.063212   0.102771
    33  H   -0.278447   0.447103
    34  H    0.312522   0.005381
    35  H    0.168725   0.021385
    36  H    0.154661   0.042961
    37  H    0.045051   0.158552
    38  H   -0.007846   0.212833
    39  H    0.143113   0.062694
    40  H   -0.163832   0.313528
    41  H   -0.040239   0.176737
    42  H   -0.038175   0.174453
 Sum of Mulliken charges =  -1.00000   1.00000

 Dipole moment (field-independent basis, Debye):
    X=              0.6875    Y=             -2.7604    Z=             -1.4337  Tot=              3.1856
 Quadrupole moment (field-independent basis, Debye-Ang):
   XX=           -213.4763   YY=           -170.1508   ZZ=           -152.0592
   XY=             18.5306   XZ=              1.4648   YZ=              5.0874

 Summary of Natural Population Analysis:

                                       Natural Population
                Natural  -----------------------------------------------
    Atom  No    Charge         Core      Valence    Rydberg      Total
 -----------------------------------------------------------------------
      C    1   -0.28742      0.99967     2.28286    0.00489     3.28742
      C    2   -0.19433      0.99964     2.18675    0.00795     3.19433
      C    3   -0.18214      0.99962     2.17378    0.00874     3.18214
      C    4   -0.20064      0.99960     2.19084    0.01020     3.20064
      C    5    0.01249      0.99950     1.97743    0.01058     2.98751
      C    6   -0.09275      0.99951     2.08433    0.00891     3.09275
      C    7   -0.10320      0.99951     2.09471    0.00898     3.10320
      C    8    0.07332      0.99945     1.91622    0.01102     2.92668
      C    9   -0.09258      0.99951     2.08372    0.00935     3.09258
      C   10   -0.10445      0.99951     2.09530    0.00964     3.10445
      N   11   -0.31789      0.99964     2.80863    0.00963     3.81789
      C   12    0.36758      0.99961     1.60832    0.02449     2.63242
      O   13   -0.31111      0.99988     3.30561    0.00562     4.31111
      C   14   -0.12747      0.99945     2.11717    0.01086     3.12747
      C   15   -0.16609      0.99961     2.15593    0.01056     3.16609
      C   16   -0.11450      0.99961     2.10449    0.01040     3.11450
      C   17   -0.16858      0.99961     2.15877    0.01021     3.16858
      C   18   -0.28310      0.99965     2.27897    0.00448     3.28310
      C   19    0.16646      0.99961     1.81369    0.02024     2.83354
      N   20   -0.18131      0.99979     2.67082    0.01070     3.68131
      H   21    0.09706      0.00000     0.40210    0.00085     0.40294
      H   22    0.09571      0.00000     0.40365    0.00064     0.40429
      H   23    0.09515      0.00000     0.40400    0.00085     0.40485
      H   24    0.09923      0.00000     0.39963    0.00115     0.40077
      H   25    0.09277      0.00000     0.40639    0.00084     0.40723
      H   26    0.09582      0.00000     0.40307    0.00111     0.40418
      H   27    0.09581      0.00000     0.40240    0.00179     0.40419
      H   28    0.10706      0.00000     0.39083    0.00211     0.39294
      H   29    0.09814      0.00000     0.40070    0.00115     0.40186
      H   30    0.09724      0.00000     0.40143    0.00133     0.40276
      H   31    0.10917      0.00000     0.38917    0.00166     0.39083
      H   32    0.09988      0.00000     0.39919    0.00093     0.40012
      H   33    0.10011      0.00000     0.39885    0.00103     0.39989
      H   34    0.19691      0.00000     0.30160    0.00149     0.30309
      H   35    0.10292      0.00000     0.39620    0.00088     0.39708
      H   36    0.10959      0.00000     0.38937    0.00104     0.39041
      H   37    0.09852      0.00000     0.40021    0.00127     0.40148
      H   38    0.10643      0.00000     0.39213    0.00144     0.39357
      H   39    0.11220      0.00000     0.38605    0.00175     0.38780
      H   40    0.10224      0.00000     0.39662    0.00114     0.39776
      H   41    0.09816      0.00000     0.40094    0.00090     0.40184
      H   42    0.09760      0.00000     0.40128    0.00112     0.40240
 =======================================================================
   * Total *    0.00000     19.99198    52.77412    0.23390    73.00000

 Normal termination of Gaussian 16 at Sat Dec 12 17:59:55 2020.
