 Gaussian 16, Revision A.03,

 -----------------------------------------------------------
 # opt freq B3LYP/6-31G(d) empiricaldispersion=gd3bj scf=xqc
 -----------------------------------------------------------

 ------------------------------
 CID_63040791_JID_5605_neutraal
 ------------------------------
 Symbolic Z-matrix:
 Charge =  0 Multiplicity = 1

 SCF Done:  E(RB3LYP) =  -713.496479994     A.U. after   14 cycles
 SCF Done:  E(RB3LYP) =  -713.499601685     A.U. after   12 cycles
 SCF Done:  E(RB3LYP) =  -713.497042234     A.U. after   13 cycles
 SCF Done:  E(RB3LYP) =  -713.500591567     A.U. after   11 cycles
 SCF Done:  E(RB3LYP) =  -713.500974329     A.U. after   11 cycles
 SCF Done:  E(RB3LYP) =  -713.501263643     A.U. after   12 cycles
 SCF Done:  E(RB3LYP) =  -713.501414092     A.U. after   11 cycles
 SCF Done:  E(RB3LYP) =  -713.501513089     A.U. after   10 cycles
 SCF Done:  E(RB3LYP) =  -713.501531487     A.U. after    9 cycles
 SCF Done:  E(RB3LYP) =  -713.501557977     A.U. after   10 cycles
 SCF Done:  E(RB3LYP) =  -713.501586130     A.U. after    8 cycles
 SCF Done:  E(RB3LYP) =  -713.501586364     A.U. after    8 cycles
 SCF Done:  E(RB3LYP) =  -713.501584710     A.U. after    9 cycles
 SCF Done:  E(RB3LYP) =  -713.501585816     A.U. after    8 cycles
 SCF Done:  E(RB3LYP) =  -713.501586310     A.U. after    8 cycles
 SCF Done:  E(RB3LYP) =  -713.501586356     A.U. after    8 cycles
 Optimization completed.
    -- Stationary point found.
 Normal termination of Gaussian 16 at Thu Dec 10 17:41:17 2020.

 --------------------------------------------------------------------
 #N Geom=AllCheck Guess=TCheck SCRF=Check GenChk RB3LYP/6-31G(d) Freq
 --------------------------------------------------------------------

 Structure from the checkpoint file:  "JID_5605.chk"
 ------------------------------
 CID_63040791_JID_5605_neutraal
 ------------------------------
 Charge =  0 Multiplicity = 1

 SCF Done:  E(RB3LYP) =  -713.501586356     A.U. after    1 cycles

  Exact polarizability: 138.016   3.392 138.061   1.483  -0.624 121.417
 Approx polarizability: 172.436   6.356 175.218   4.448   0.846 185.493

                      1                      2                      3
                      A                      A                      A
 Frequencies --     11.7916                29.3742                35.8919
 Red. masses --      3.1575                 3.4560                 3.5154
 Frc consts  --      0.0003                 0.0018                 0.0027
 IR Inten    --      0.0518                 0.4537                 0.2963

                      4                      5                      6
                      A                      A                      A
 Frequencies --     46.6691                68.1345                73.3973
 Red. masses --      3.3371                 3.1057                 3.1618
 Frc consts  --      0.0043                 0.0085                 0.0100
 IR Inten    --      0.3106                 0.7431                 1.0464

                      7                      8                      9
                      A                      A                      A
 Frequencies --     89.4799               107.3806               118.1178
 Red. masses --      1.8286                 3.2247                 2.3026
 Frc consts  --      0.0086                 0.0219                 0.0189
 IR Inten    --      2.0600                 0.6122                 1.6876

                     10                     11                     12
                      A                      A                      A
 Frequencies --    124.1442               153.5317               215.0597
 Red. masses --      3.0238                 3.7551                 1.4319
 Frc consts  --      0.0275                 0.0522                 0.0390
 IR Inten    --      1.5552                 0.0917                 0.4907

                     13                     14                     15
                      A                      A                      A
 Frequencies --    227.4113               243.6802               258.6837
 Red. masses --      1.9493                 1.1653                 1.1724
 Frc consts  --      0.0594                 0.0408                 0.0462
 IR Inten    --      0.8814                 0.6115                 0.0283

                     16                     17                     18
                      A                      A                      A
 Frequencies --    264.3216               282.1940               299.8342
 Red. masses --      1.3263                 1.9831                 2.6592
 Frc consts  --      0.0546                 0.0930                 0.1409
 IR Inten    --      0.7861                 1.2983                 1.2063

                     19                     20                     21
                      A                      A                      A
 Frequencies --    310.3501               339.7106               375.5982
 Red. masses --      2.8820                 2.9691                 3.1919
 Frc consts  --      0.1635                 0.2019                 0.2653
 IR Inten    --      1.7449                 9.2825                 6.2822

                     22                     23                     24
                      A                      A                      A
 Frequencies --    393.2264               417.0755               421.8619
 Red. masses --      3.4112                 3.2358                 3.2736
 Frc consts  --      0.3108                 0.3316                 0.3433
 IR Inten    --      4.1027                 6.6861                 1.5294

                     25                     26                     27
                      A                      A                      A
 Frequencies --    481.3765               565.1480               624.6798
 Red. masses --      3.6336                 2.3480                 3.5166
 Frc consts  --      0.4961                 0.4418                 0.8085
 IR Inten    --      3.5430                 1.6465                 9.1548

                     28                     29                     30
                      A                      A                      A
 Frequencies --    672.9152               739.4897               779.8880
 Red. masses --      2.9990                 1.5980                 2.6252
 Frc consts  --      0.8001                 0.5149                 0.9408
 IR Inten    --     10.4106               107.8799                11.1139

                     31                     32                     33
                      A                      A                      A
 Frequencies --    795.5298               818.3982               829.6141
 Red. masses --      1.3298                 1.9715                 1.1958
 Frc consts  --      0.4959                 0.7780                 0.4849
 IR Inten    --     10.1242                 2.8421                 0.5614

                     34                     35                     36
                      A                      A                      A
 Frequencies --    840.5963               867.6305               907.5172
 Red. masses --      2.0902                 2.4038                 2.5347
 Frc consts  --      0.8702                 1.0662                 1.2299
 IR Inten    --      0.4664                16.1545                 2.8194

                     37                     38                     39
                      A                      A                      A
 Frequencies --    928.2558               930.5743               947.7621
 Red. masses --      1.8736                 1.3438                 1.6427
 Frc consts  --      0.9512                 0.6856                 0.8694
 IR Inten    --      6.6966                 0.0621                 1.6479

                     40                     41                     42
                      A                      A                      A
 Frequencies --    948.4261               973.0054              1040.6823
 Red. masses --      1.6634                 2.2132                 2.4454
 Frc consts  --      0.8816                 1.2345                 1.5604
 IR Inten    --      2.0177                11.7344                 3.6675

                     43                     44                     45
                      A                      A                      A
 Frequencies --   1065.9409              1076.8731              1094.7746
 Red. masses --      3.1486                 2.9829                 2.7639
 Frc consts  --      2.1079                 2.0381                 1.9517
 IR Inten    --     41.6670                41.0195                27.9419

                     46                     47                     48
                      A                      A                      A
 Frequencies --   1112.5198              1133.8464              1148.1939
 Red. masses --      2.1064                 2.0013                 1.9723
 Frc consts  --      1.5361                 1.5159                 1.5320
 IR Inten    --     82.9932                40.4313                 7.7984

                     49                     50                     51
                      A                      A                      A
 Frequencies --   1149.7616              1166.3456              1206.7220
 Red. masses --      1.9498                 3.0757                 2.3533
 Frc consts  --      1.5186                 2.4652                 2.0190
 IR Inten    --     28.4094               112.0135                95.6624

                     52                     53                     54
                      A                      A                      A
 Frequencies --   1207.5282              1209.4140              1218.3700
 Red. masses --      2.3266                 1.8038                 2.0791
 Frc consts  --      1.9988                 1.5545                 1.8184
 IR Inten    --     97.3702                10.0527                11.6737

                     55                     56                     57
                      A                      A                      A
 Frequencies --   1239.6387              1285.5250              1297.9038
 Red. masses --      1.6197                 1.5819                 1.6914
 Frc consts  --      1.4665                 1.5403                 1.6787
 IR Inten    --     37.8529                63.0761               132.9385

                     58                     59                     60
                      A                      A                      A
 Frequencies --   1309.8670              1337.2074              1343.2596
 Red. masses --      1.2867                 1.1283                 1.1376
 Frc consts  --      1.3007                 1.1887                 1.2094
 IR Inten    --     10.7993                 1.0151                18.5176

                     61                     62                     63
                      A                      A                      A
 Frequencies --   1362.1393              1378.4275              1380.9901
 Red. masses --      1.3309                 1.2997                 1.3285
 Frc consts  --      1.4549                 1.4549                 1.4928
 IR Inten    --     14.8971                 7.9313                 4.7201

                     64                     65                     66
                      A                      A                      A
 Frequencies --   1414.9234              1416.5593              1421.1410
 Red. masses --      1.2013                 1.2753                 1.3045
 Frc consts  --      1.4170                 1.5077                 1.5523
 IR Inten    --      5.8393                 1.0549                 6.5613

                     67                     68                     69
                      A                      A                      A
 Frequencies --   1424.2602              1438.0840              1442.6467
 Red. masses --      1.3049                 1.2843                 1.3179
 Frc consts  --      1.5596                 1.5649                 1.6161
 IR Inten    --     15.1397                10.5222                13.3234

                     70                     71                     72
                      A                      A                      A
 Frequencies --   1445.4287              1460.8208              1507.8423
 Red. masses --      1.3551                 1.3706                 1.1537
 Frc consts  --      1.6680                 1.7233                 1.5454
 IR Inten    --      7.8840                10.5003                34.7497

                     73                     74                     75
                      A                      A                      A
 Frequencies --   1514.3495              1515.3786              1519.1418
 Red. masses --      1.0481                 1.0482                 1.0836
 Frc consts  --      1.4161                 1.4183                 1.4733
 IR Inten    --      1.1502                 6.4585                 2.9340

                     76                     77                     78
                      A                      A                      A
 Frequencies --   1522.3743              1522.9558              1526.4293
 Red. masses --      1.0799                 1.0543                 1.0627
 Frc consts  --      1.4746                 1.4408                 1.4589
 IR Inten    --      4.5405                 0.4673                19.3991

                     79                     80                     81
                      A                      A                      A
 Frequencies --   1528.8385              1532.0203              1537.6193
 Red. masses --      1.0501                 1.0901                 1.0571
 Frc consts  --      1.4461                 1.5075                 1.4726
 IR Inten    --      9.5380                13.3972                 7.1042

                     82                     83                     84
                      A                      A                      A
 Frequencies --   1539.4323              1551.1249              1561.1968
 Red. masses --      1.0583                 1.0888                 1.0863
 Frc consts  --      1.4777                 1.5435                 1.5600
 IR Inten    --      1.4731                 2.2588                 6.2898

                     85                     86                     87
                      A                      A                      A
 Frequencies --   1827.2697              2955.2786              3005.6511
 Red. masses --     11.1228                 1.0729                 1.0594
 Frc consts  --     21.8812                 5.5209                 5.6386
 IR Inten    --    202.9064                69.4087                32.7644

                     88                     89                     90
                      A                      A                      A
 Frequencies --   3042.5007              3046.1262              3053.0989
 Red. masses --      1.0831                 1.0482                 1.0589
 Frc consts  --      5.9070                 5.7305                 5.8155
 IR Inten    --     16.3185                15.1063                29.9199

                     91                     92                     93
                      A                      A                      A
 Frequencies --   3053.6652              3056.5310              3060.3397
 Red. masses --      1.0661                 1.0383                 1.0852
 Frc consts  --      5.8574                 5.7154                 5.9883
 IR Inten    --     45.8610                12.5955                22.9982

                     94                     95                     96
                      A                      A                      A
 Frequencies --   3062.8792              3067.5757              3078.1072
 Red. masses --      1.0364                 1.0699                 1.0746
 Frc consts  --      5.7286                 5.9317                 5.9986
 IR Inten    --     16.8880                 8.5674                30.5897

                     97                     98                     99
                      A                      A                      A
 Frequencies --   3094.4643              3111.6795              3113.7514
 Red. masses --      1.0587                 1.0991                 1.1043
 Frc consts  --      5.9730                 6.2702                 6.3082
 IR Inten    --     23.4940                47.7110                22.8542

                    100                    101                    102
                      A                      A                      A
 Frequencies --   3115.8113              3123.9203              3129.4475
 Red. masses --      1.1027                 1.1008                 1.1020
 Frc consts  --      6.3074                 6.3293                 6.3585
 IR Inten    --      5.1633                90.9564                19.9856

                    103                    104                    105
                      A                      A                      A
 Frequencies --   3129.8079              3131.6754              3135.5707
 Red. masses --      1.1033                 1.1029                 1.1032
 Frc consts  --      6.3677                 6.3731                 6.3904
 IR Inten    --     18.3369                31.4679                28.7326

                    106                    107                    108
                      A                      A                      A
 Frequencies --   3141.0271              3160.9334              3523.4749
 Red. masses --      1.1045                 1.1071                 1.0736
 Frc consts  --      6.4205                 6.5172                 7.8530
 IR Inten    --      7.5248                24.7786                 0.5731

 - Thermochemistry -
 -------------------
 Temperature   298.150 Kelvin.  Pressure   1.00000 Atm.
 Atom     1 has atomic number  6 and mass  12.00000

 Molecular mass:   217.16779 amu.
 Principal axes and moments of inertia in atomic units:
                           1         2         3
     Eigenvalues --  3133.390025123.660126786.88877
           X            0.99997  -0.00805  -0.00123
           Y            0.00804   0.99994  -0.00796
           Z            0.00129   0.00795   0.99997
 This molecule is an asymmetric top.
 Rotational symmetry number  1.
 Warning -- assumption of classical behavior for rotation
           may cause significant error
 Rotational temperatures (Kelvin)      0.02764     0.01690     0.01276
 Rotational constants (GHZ):           0.57597     0.35224     0.26592
 Zero-point vibrational energy     896522.2 (Joules/Mol)
                                  214.27396 (Kcal/Mol)
 Warning -- explicit consideration of  26 degrees of freedom as
           vibrations may cause significant error
 Vibrational temperatures:     16.97    42.26    51.64    67.15    98.03
          (Kelvin)            105.60   128.74   154.50   169.95   178.62
                              220.90   309.42   327.19   350.60   372.19
                              380.30   406.01   431.39   446.52   488.77
                              540.40   565.77   600.08   606.97   692.59
                              813.12   898.77   968.17  1063.96  1122.08
                             1144.59  1177.49  1193.63  1209.43  1248.33
                             1305.71  1335.55  1338.89  1363.62  1364.57
                             1399.94  1497.31  1533.65  1549.38  1575.14
                             1600.67  1631.35  1651.99  1654.25  1678.11
                             1736.20  1737.36  1740.08  1752.96  1783.56
                             1849.58  1867.39  1884.61  1923.94  1932.65
                             1959.81  1983.25  1986.94  2035.76  2038.11
                             2044.70  2049.19  2069.08  2075.65  2079.65
                             2101.80  2169.45  2178.81  2180.29  2185.71
                             2190.36  2191.19  2196.19  2199.66  2204.24
                             2212.29  2214.90  2231.72  2246.21  2629.03
                             4251.99  4324.46  4377.48  4382.70  4392.73
                             4393.54  4397.67  4403.15  4406.80  4413.56
                             4428.71  4452.24  4477.01  4479.99  4482.96
                             4494.62  4502.58  4503.10  4505.78  4511.39
                             4519.24  4547.88  5069.49

 Zero-point correction=                           0.341467 (Hartree/Particle)
 Thermal correction to Energy=                    0.360246
 Thermal correction to Enthalpy=                  0.361190
 Thermal correction to Gibbs Free Energy=         0.291475
 Sum of electronic and zero-point Energies=           -713.160119
 Sum of electronic and thermal Energies=              -713.141340
 Sum of electronic and thermal Enthalpies=            -713.140396
 Sum of electronic and thermal Free Energies=         -713.210112

                     E (Thermal)             CV                S
                      KCal/Mol        Cal/Mol-Kelvin    Cal/Mol-Kelvin
 Total                  226.058             66.421            146.729
 Electronic               0.000              0.000              0.000
 Translational            0.889              2.981             42.030
 Rotational               0.889              2.981             33.055
 Vibrational            224.280             60.460             71.645
 Vibration     1          0.593              1.987              7.684
 Vibration     2          0.593              1.984              5.871
 Vibration     3          0.594              1.982              5.474
 Vibration     4          0.595              1.979              4.954
 Vibration     5          0.598              1.969              4.207
 Vibration     6          0.599              1.967              4.060
 Vibration     7          0.602              1.957              3.671
 Vibration     8          0.606              1.943              3.316
 Vibration     9          0.608              1.934              3.131
 Vibration    10          0.610              1.929              3.035
 Vibration    11          0.619              1.899              2.628
 Vibration    12          0.645              1.818              2.000
 Vibration    13          0.651              1.799              1.899
 Vibration    14          0.659              1.773              1.776
 Vibration    15          0.667              1.748              1.671
 Vibration    16          0.671              1.738              1.633
 Vibration    17          0.681              1.707              1.520
 Vibration    18          0.692              1.674              1.418
 Vibration    19          0.699              1.654              1.360
 Vibration    20          0.720              1.596              1.214
 Vibration    21          0.746              1.522              1.057
 Vibration    22          0.760              1.485              0.988
 Vibration    23          0.780              1.433              0.902
 Vibration    24          0.784              1.423              0.886
 Vibration    25          0.838              1.291              0.706
 Vibration    26          0.921              1.107              0.514

 Optimization completed.
    -- Stationary point found.
 Normal termination of Gaussian 16 at Thu Dec 10 17:53:43 2020.

 ----------------------------------------------------------------------
 # B3LYP/6-311++G(d,p) empiricaldispersion=gd3bj scf=xqc pop=npa geom=c
 heck
 ----------------------------------------------------------------------

 --------------------------------------
 CID_63040791_JID_5605_Energie_neutraal
 --------------------------------------
 Structure from the checkpoint file:  "JID_5605.chk"
 Charge =  0 Multiplicity = 1

 SCF Done:  E(RB3LYP) =  -713.715596853     A.U. after   13 cycles
 Normal termination of Gaussian 16 at Thu Dec 10 17:59:25 2020.

 ----------------------------------------------------------------------
 # B3LYP/6-311++G(d,p) empiricaldispersion=gd3bj scf=xqc pop=npa geom=c
 heck
 ----------------------------------------------------------------------

 ------------------------------------
 CID_63040791_JID_5605_Energie_kation
 ------------------------------------
 Structure from the checkpoint file:  "JID_5605.chk"
 Charge =  1 Multiplicity = 2

 SCF Done:  E(UB3LYP) =  -713.411713047     A.U. after   23 cycles
 Normal termination of Gaussian 16 at Thu Dec 10 18:13:04 2020.
 Gaussian 16:  ES64L-G16RevA.03 25-Dec-2016

 ----------------------------------------------------------------------
 # B3LYP/6-311++G(d,p) empiricaldispersion=gd3bj scf=xqc pop=npa geom=c
 heck
 ----------------------------------------------------------------------

 -----------------------------------
 CID_63040791_JID_5605_Energie_anion
 -----------------------------------
 Structure from the checkpoint file:  "JID_5605.chk"
 Charge = -1 Multiplicity = 2

                         Standard orientation:
 ---------------------------------------------------------------------
 Center     Atomic      Atomic             Coordinates (Angstroms)
 Number     Number       Type             X           Y           Z
 ---------------------------------------------------------------------
      1          6           0       -0.896732    3.897079    1.092928
      2          6           0       -0.543415    2.980127   -0.074471
      3          7           0       -1.201819    1.687510    0.083433
      4          6           0       -1.039866    0.765870   -1.036920
      5          6           0        0.413356    0.446573   -1.480926
      6          6           0        1.283510   -0.146972   -0.380838
      7          8           0        2.597241   -0.250747   -0.901985
      8          6           0        3.603246   -0.747917   -0.014208
      9          6           0        3.857387    0.195987    1.164443
     10          6           0        3.328736   -2.184519    0.438044
     11          6           0       -1.768718   -0.542903   -0.760608
     12          8           0       -2.290103   -1.225447   -1.614803
     13          8           0       -1.698695   -0.890524    0.545569
     14          6           0       -2.340895   -2.134324    0.915650
     15          6           0       -3.832308   -1.936041    1.128502
     16          1           0       -1.981248    4.023265    1.166253
     17          1           0       -0.431969    4.881457    0.971577
     18          1           0       -0.540616    3.475762    2.041614
     19          1           0       -0.900252    3.421243   -1.014696
     20          1           0        0.555820    2.907770   -0.162805
     21          1           0       -0.904866    1.238158    0.945754
     22          1           0       -1.549108    1.202019   -1.903608
     23          1           0        0.380281   -0.241717   -2.332567
     24          1           0        0.888578    1.367188   -1.835721
     25          1           0        1.260467    0.502916    0.507099
     26          1           0        0.898093   -1.128562   -0.072648
     27          1           0        4.499113   -0.753736   -0.646023
     28          1           0        3.993103    1.221753    0.806711
     29          1           0        3.030120    0.185483    1.882858
     30          1           0        4.763106   -0.106146    1.701786
     31          1           0        4.210339   -2.596323    0.941569
     32          1           0        2.491712   -2.237661    1.143204
     33          1           0        3.096080   -2.816995   -0.424717
     34          1           0       -2.144623   -2.873720    0.135659
     35          1           0       -1.836780   -2.433033    1.837617
     36          1           0       -4.316140   -1.651118    0.190744
     37          1           0       -4.285687   -2.868745    1.482621
     38          1           0       -4.016139   -1.155850    1.873882
 ---------------------------------------------------------------------

 SCF Done:  E(UB3LYP) =  -713.703929609     A.U. after   31 cycles

 The electronic state is 2-A.
 Alpha  occ. eigenvalues --  -19.08012 -19.02585 -19.02584 -14.20934 -10.21360
 Alpha  occ. eigenvalues --  -10.13845 -10.12766 -10.12685 -10.11928 -10.10567
 Alpha  occ. eigenvalues --  -10.08206 -10.07862 -10.07068 -10.06502 -10.06237
 Alpha  occ. eigenvalues --   -1.02033  -0.93831  -0.93510  -0.82610  -0.70923
 Alpha  occ. eigenvalues --   -0.68999  -0.67307  -0.64423  -0.60180  -0.59619
 Alpha  occ. eigenvalues --   -0.56899  -0.53167  -0.51025  -0.47959  -0.46700
 Alpha  occ. eigenvalues --   -0.43491  -0.40657  -0.40289  -0.39387  -0.37829
 Alpha  occ. eigenvalues --   -0.37557  -0.37197  -0.36256  -0.35248  -0.33760
 Alpha  occ. eigenvalues --   -0.32652  -0.32193  -0.31332  -0.30717  -0.29999
 Alpha  occ. eigenvalues --   -0.29698  -0.28984  -0.28336  -0.27966  -0.27616
 Alpha  occ. eigenvalues --   -0.26884  -0.26070  -0.25657  -0.25089  -0.24831
 Alpha  occ. eigenvalues --   -0.22116  -0.21038  -0.19449  -0.16546  -0.13952
 Alpha  occ. eigenvalues --    0.04056
 Alpha virt. eigenvalues --    0.06034   0.06190   0.07211   0.07910   0.08295
 Alpha virt. eigenvalues --    0.08679   0.09004   0.09221   0.09482   0.10170
 Alpha virt. eigenvalues --    0.10820   0.11063   0.11363   0.11679   0.11854

  Beta  occ. eigenvalues --  -19.08010 -19.02585 -19.02574 -14.20925 -10.21351
  Beta  occ. eigenvalues --  -10.13821 -10.12757 -10.12684 -10.11910 -10.10553
  Beta  occ. eigenvalues --  -10.08202 -10.07839 -10.07040 -10.06472 -10.06200
  Beta  occ. eigenvalues --   -1.02020  -0.93825  -0.93496  -0.82593  -0.70902
  Beta  occ. eigenvalues --   -0.68968  -0.67277  -0.64392  -0.60146  -0.59557
  Beta  occ. eigenvalues --   -0.56856  -0.53115  -0.50981  -0.47907  -0.46662
  Beta  occ. eigenvalues --   -0.43468  -0.40633  -0.40265  -0.39361  -0.37793
  Beta  occ. eigenvalues --   -0.37526  -0.37168  -0.36228  -0.35222  -0.33730
  Beta  occ. eigenvalues --   -0.32616  -0.32164  -0.31301  -0.30682  -0.29968
  Beta  occ. eigenvalues --   -0.29664  -0.28950  -0.28306  -0.27932  -0.27586
  Beta  occ. eigenvalues --   -0.26857  -0.26042  -0.25627  -0.25067  -0.24802
  Beta  occ. eigenvalues --   -0.22093  -0.21014  -0.19434  -0.16535  -0.13936
  Beta virt. eigenvalues --    0.06115   0.06767   0.06815   0.07537   0.08249
  Beta virt. eigenvalues --    0.08614   0.09034   0.09164   0.09561   0.09831
  Beta virt. eigenvalues --    0.10356   0.10933   0.11427   0.11579   0.11878

 Mulliken charges and spin densities:
               1          2
     1  C    0.630813  -1.252590
     2  C   -0.579834   0.431168
     3  N    0.017497  -0.044513
     4  C    0.393296  -0.400641
     5  C    0.741468  -0.754734
     6  C   -0.738644  -0.020488
     7  O   -0.063030   0.001664
     8  C   -1.553962   1.714847
     9  C    1.100841  -1.601768
    10  C    0.827546  -1.382577
    11  C   -0.990510   0.445797
    12  O   -0.206315   0.002409
    13  O    0.005589   0.013131
    14  C   -0.052494  -0.043907
    15  C    0.445972  -0.925529
    16  H    0.055567   0.095823
    17  H   -0.169606   0.300884
    18  H   -0.326832   0.463362
    19  H   -0.038571   0.175916
    20  H    0.080291   0.057015
    21  H    0.269790  -0.050435
    22  H    0.215454   0.006456
    23  H    0.152520   0.038268
    24  H    0.148021   0.057482
    25  H    0.588234  -0.386659
    26  H    0.116597   0.113512
    27  H   -0.154710   0.333806
    28  H   -0.052459   0.191147
    29  H   -0.486653   0.638625
    30  H   -0.351801   0.503335
    31  H   -0.320412   0.473743
    32  H   -0.088029   0.239830
    33  H    0.033510   0.103870
    34  H    0.106024   0.059268
    35  H   -0.562885   0.746732
    36  H    0.004105   0.162311
    37  H   -0.212959   0.357404
    38  H    0.016572   0.136039
 Sum of Mulliken charges =  -1.00000   1.00000

 Dipole moment (field-independent basis, Debye):
    X=             -2.6619    Y=              1.4520    Z=             -5.0650  Tot=              5.9033
 Quadrupole moment (field-independent basis, Debye-Ang):
   XX=           -170.1785   YY=           -151.5491   ZZ=           -140.7258
   XY=             -2.0231   XZ=             -6.6331   YZ=             -0.1067

 Summary of Natural Population Analysis:

                                       Natural Population
                Natural  -----------------------------------------------
    Atom  No    Charge         Core      Valence    Rydberg      Total
 -----------------------------------------------------------------------
      C    1   -0.28502      0.99967     2.28079    0.00456     3.28502
      C    2   -0.08946      0.99965     2.07890    0.01091     3.08946
      N    3   -0.34252      0.99973     2.83137    0.01143     3.84252
      C    4   -0.04682      0.99955     2.03509    0.01218     3.04682
      C    5   -0.20020      0.99960     2.19302    0.00758     3.20020
      C    6   -0.01720      0.99955     2.00420    0.01345     3.01720
      O    7   -0.30646      0.99988     3.29701    0.00957     4.30646
      C    8    0.06729      0.99957     1.91920    0.01393     2.93271
      C    9   -0.30111      0.99964     2.29600    0.00546     3.30111
      C   10   -0.30147      0.99964     2.29658    0.00524     3.30147
      C   11    0.41738      0.99966     1.55697    0.02599     2.58262
      O   12   -0.30857      0.99987     3.30354    0.00515     4.30857
      O   13   -0.28549      0.99986     3.27590    0.00973     4.28549
      C   14   -0.01721      0.99957     2.00527    0.01237     3.01721
      C   15   -0.29959      0.99966     2.29464    0.00530     3.29959
      H   16    0.09881      0.00000     0.39988    0.00131     0.40119
      H   17    0.09829      0.00000     0.40064    0.00107     0.40171
      H   18    0.09887      0.00000     0.39961    0.00152     0.40113
      H   19    0.08698      0.00000     0.41181    0.00121     0.41302
      H   20    0.08156      0.00000     0.41670    0.00175     0.41844
      H   21    0.18100      0.00000     0.31528    0.00372     0.31900
      H   22    0.10348      0.00000     0.39488    0.00165     0.39652
      H   23    0.10548      0.00000     0.39338    0.00114     0.39452
      H   24    0.10329      0.00000     0.39529    0.00142     0.39671
      H   25    0.08072      0.00000     0.41697    0.00231     0.41928
      H   26    0.08202      0.00000     0.41570    0.00228     0.41798
      H   27    0.08602      0.00000     0.41257    0.00141     0.41398
      H   28    0.10281      0.00000     0.39594    0.00125     0.39719
      H   29    0.10014      0.00000     0.39827    0.00159     0.39986
      H   30    0.10323      0.00000     0.39547    0.00130     0.39677
      H   31    0.10348      0.00000     0.39543    0.00109     0.39652
      H   32    0.10023      0.00000     0.39846    0.00130     0.39977
      H   33    0.10145      0.00000     0.39762    0.00093     0.39855
      H   34    0.09385      0.00000     0.40488    0.00127     0.40615
      H   35    0.09544      0.00000     0.40248    0.00208     0.40456
      H   36    0.10412      0.00000     0.39495    0.00093     0.39588
      H   37    0.10287      0.00000     0.39607    0.00105     0.39713
      H   38    0.10230      0.00000     0.39665    0.00105     0.39770
 =======================================================================
   * Total *   -0.00000     14.99510    44.81740    0.18750    60.00000

 Normal termination of Gaussian 16 at Thu Dec 10 18:30:47 2020.
