 Gaussian 16, Revision A.03,

 -----------------------------------------------------------
 # opt freq B3LYP/6-31G(d) empiricaldispersion=gd3bj scf=xqc
 -----------------------------------------------------------

 -------------------------------
 CID_105502225_JID_8637_neutraal
 -------------------------------
 Symbolic Z-matrix:
 Charge =  0 Multiplicity = 1

 SCF Done:  E(RB3LYP) =  -796.848863696     A.U. after   15 cycles
 SCF Done:  E(RB3LYP) =  -796.858463377     A.U. after   13 cycles
 SCF Done:  E(RB3LYP) =  -796.859754035     A.U. after   12 cycles
 SCF Done:  E(RB3LYP) =  -796.860119389     A.U. after   11 cycles
 SCF Done:  E(RB3LYP) =  -796.860607428     A.U. after   13 cycles
 SCF Done:  E(RB3LYP) =  -796.861074428     A.U. after   12 cycles
 SCF Done:  E(RB3LYP) =  -796.861823070     A.U. after   13 cycles
 SCF Done:  E(RB3LYP) =  -796.861624876     A.U. after   12 cycles
 SCF Done:  E(RB3LYP) =  -796.860617388     A.U. after   13 cycles
 SCF Done:  E(RB3LYP) =  -796.860758440     A.U. after   12 cycles
 SCF Done:  E(RB3LYP) =  -796.863206287     A.U. after   11 cycles
 SCF Done:  E(RB3LYP) =  -796.863231520     A.U. after   11 cycles
 SCF Done:  E(RB3LYP) =  -796.863237807     A.U. after    9 cycles
 SCF Done:  E(RB3LYP) =  -796.863239768     A.U. after    8 cycles
 SCF Done:  E(RB3LYP) =  -796.863240345     A.U. after    8 cycles
 SCF Done:  E(RB3LYP) =  -796.863240471     A.U. after    7 cycles
 Optimization completed.
    -- Stationary point found.
 Normal termination of Gaussian 16 at Fri Dec 11 21:29:35 2020.

 --------------------------------------------------------------------
 #N Geom=AllCheck Guess=TCheck SCRF=Check GenChk RB3LYP/6-31G(d) Freq
 --------------------------------------------------------------------

 Structure from the checkpoint file:  "JID_8637.chk"
 -------------------------------
 CID_105502225_JID_8637_neutraal
 -------------------------------
 Charge =  0 Multiplicity = 1

 SCF Done:  E(RB3LYP) =  -796.863240471     A.U. after    1 cycles

  Exact polarizability: 215.673  -2.849 182.884  -3.978  -7.801  96.827
 Approx polarizability: 337.184  -4.425 332.759  -2.090 -25.435 154.291

                      1                      2                      3
                      A                      A                      A
 Frequencies --     56.2165                65.1098                86.9805
 Red. masses --      4.6750                 5.2576                 3.2747
 Frc consts  --      0.0087                 0.0131                 0.0146
 IR Inten    --      0.4587                 0.1683                 1.5084

                      4                      5                      6
                      A                      A                      A
 Frequencies --     96.5621               140.5376               142.1363
 Red. masses --      3.5957                 3.4998                 1.1759
 Frc consts  --      0.0198                 0.0407                 0.0140
 IR Inten    --      1.5235                 1.3686                 0.3495

                      7                      8                      9
                      A                      A                      A
 Frequencies --    166.7028               208.3699               243.8351
 Red. masses --      4.5774                 4.8232                 5.1315
 Frc consts  --      0.0749                 0.1234                 0.1798
 IR Inten    --      3.6532                 1.7858                 2.6840

                     10                     11                     12
                      A                      A                      A
 Frequencies --    269.8964               283.9724               344.5741
 Red. masses --      4.7268                 4.7467                 4.1853
 Frc consts  --      0.2029                 0.2255                 0.2928
 IR Inten    --      0.2542                 1.1885                 0.7695

                     13                     14                     15
                      A                      A                      A
 Frequencies --    361.0531               397.8244               400.9270
 Red. masses --      2.9230                 1.4037                 4.7550
 Frc consts  --      0.2245                 0.1309                 0.4503
 IR Inten    --      3.4964                18.7968                 6.3929

                     16                     17                     18
                      A                      A                      A
 Frequencies --    463.3957               484.2318               518.1443
 Red. masses --      5.1238                 4.3221                 5.7474
 Frc consts  --      0.6483                 0.5971                 0.9091
 IR Inten    --      3.5766                 7.7437                11.1014

                     19                     20                     21
                      A                      A                      A
 Frequencies --    525.0711               558.7238               577.5743
 Red. masses --      5.7851                 4.1281                 4.0387
 Frc consts  --      0.9397                 0.7593                 0.7938
 IR Inten    --     12.8238                 2.4531                 4.2493

                     22                     23                     24
                      A                      A                      A
 Frequencies --    594.5324               645.2174               649.8479
 Red. masses --      4.4781                 5.7525                 5.6636
 Frc consts  --      0.9326                 1.4110                 1.4092
 IR Inten    --      8.2749                 4.5247                 9.3257

                     25                     26                     27
                      A                      A                      A
 Frequencies --    658.3774               688.8810               732.9136
 Red. masses --      4.9411                 6.6656                 2.3069
 Frc consts  --      1.2619                 1.8637                 0.7301
 IR Inten    --     16.1195                 2.5008               120.6650

                     28                     29                     30
                      A                      A                      A
 Frequencies --    746.9263               765.2846               775.9434
 Red. masses --      2.0248                 2.4367                 1.9445
 Frc consts  --      0.6656                 0.8408                 0.6898
 IR Inten    --     71.8247                 5.5066                 2.9111

                     31                     32                     33
                      A                      A                      A
 Frequencies --    781.5644               793.9612               822.7261
 Red. masses --      2.1884                 2.0475                 4.1275
 Frc consts  --      0.7876                 0.7605                 1.6460
 IR Inten    --     44.4732               139.9858                12.0134

                     34                     35                     36
                      A                      A                      A
 Frequencies --    882.8810               896.6305               910.9669
 Red. masses --      1.5035                 1.3085                 1.6297
 Frc consts  --      0.6905                 0.6198                 0.7968
 IR Inten    --      3.1585                 3.4569                10.2295

                     37                     38                     39
                      A                      A                      A
 Frequencies --    915.9700               951.7746               964.3029
 Red. masses --      3.8624                 1.5340                 3.6015
 Frc consts  --      1.9093                 0.8187                 1.9731
 IR Inten    --      5.7259                 0.3673                 5.1656

                     40                     41                     42
                      A                      A                      A
 Frequencies --    983.6991              1038.0076              1044.6149
 Red. masses --      1.2656                 4.5077                 6.2249
 Frc consts  --      0.7216                 2.8616                 4.0022
 IR Inten    --      0.4349                24.5079                47.1799

                     43                     44                     45
                      A                      A                      A
 Frequencies --   1075.8541              1080.3909              1133.6913
 Red. masses --      2.0748                 1.5063                 2.3029
 Frc consts  --      1.4149                 1.0359                 1.7439
 IR Inten    --     16.2144                 4.4040                27.2339

                     46                     47                     48
                      A                      A                      A
 Frequencies --   1154.8154              1166.7130              1185.1084
 Red. masses --      1.9635                 2.2644                 1.2554
 Frc consts  --      1.5428                 1.8160                 1.0388
 IR Inten    --     51.4580                 8.7080                 1.5688

                     49                     50                     51
                      A                      A                      A
 Frequencies --   1194.7627              1214.0958              1240.7795
 Red. masses --      1.1326                 1.4447                 2.1546
 Frc consts  --      0.9526                 1.2547                 1.9544
 IR Inten    --      0.4268                 6.5631                18.6746

                     52                     53                     54
                      A                      A                      A
 Frequencies --   1261.8968              1276.5772              1292.9709
 Red. masses --      2.6239                 3.7126                 1.8880
 Frc consts  --      2.4617                 3.5647                 1.8596
 IR Inten    --     66.6406                35.0969                27.6381

                     55                     56                     57
                      A                      A                      A
 Frequencies --   1330.2594              1349.9327              1357.7309
 Red. masses --      2.7132                 5.0850                 5.5481
 Frc consts  --      2.8288                 5.4597                 6.0259
 IR Inten    --      1.0628                 2.0464                19.6157

                     58                     59                     60
                      A                      A                      A
 Frequencies --   1359.1517              1401.9194              1451.9305
 Red. masses --      2.7793                 3.1037                 2.8584
 Frc consts  --      3.0250                 3.5940                 3.5503
 IR Inten    --     11.0359                59.2021                20.6273

                     61                     62                     63
                      A                      A                      A
 Frequencies --   1483.5948              1499.8816              1505.7406
 Red. masses --      1.6170                 3.7083                 1.6919
 Frc consts  --      2.0970                 4.9152                 2.2601
 IR Inten    --     22.9817                 9.7765                 5.9208

                     64                     65                     66
                      A                      A                      A
 Frequencies --   1516.0336              1530.3977              1540.7669
 Red. masses --      1.0519                 1.0529                 2.4806
 Frc consts  --      1.4245                 1.4530                 3.4696
 IR Inten    --      4.6070                 3.4222                65.7380

                     67                     68                     69
                      A                      A                      A
 Frequencies --   1568.7733              1600.6486              1629.5611
 Red. masses --      7.0770                 5.1695                 6.0608
 Frc consts  --     10.2617                 7.8035                 9.4825
 IR Inten    --    120.8622                48.4813                 5.0034

                     70                     71                     72
                      A                      A                      A
 Frequencies --   1662.3428              1665.4565              1707.6939
 Red. masses --      6.2660                 6.9844                 1.1593
 Frc consts  --     10.2019                11.4142                 1.9918
 IR Inten    --      9.2230                 6.7301                61.7424

                     73                     74                     75
                      A                      A                      A
 Frequencies --   3047.1443              3117.5965              3145.7025
 Red. masses --      1.0318                 1.1061                 1.0897
 Frc consts  --      5.6444                 6.3342                 6.3530
 IR Inten    --     44.5295                25.7568                33.5435

                     76                     77                     78
                      A                      A                      A
 Frequencies --   3161.2668              3194.0054              3208.5078
 Red. masses --      1.1043                 1.0863                 1.0911
 Frc consts  --      6.5022                 6.5291                 6.6181
 IR Inten    --     24.2241                 2.0058                17.3019

                     79                     80                     81
                      A                      A                      A
 Frequencies --   3219.0548              3239.1113              3256.7592
 Red. masses --      1.0956                 1.0933                 1.0942
 Frc consts  --      6.6891                 6.7585                 6.8379
 IR Inten    --     16.7186                 3.6538                 9.4271

                     82                     83                     84
                      A                      A                      A
 Frequencies --   3297.1843              3504.2659              3616.7201
 Red. masses --      1.1000                 1.0512                 1.0939
 Frc consts  --      7.0456                 7.6058                 8.4302
 IR Inten    --      0.9666                67.0055                34.0274

 - Thermochemistry -
 -------------------
 Temperature   298.150 Kelvin.  Pressure   1.00000 Atm.
 Atom     1 has atomic number  6 and mass  12.00000

 Molecular mass:   240.10111 amu.
 Principal axes and moments of inertia in atomic units:
                           1         2         3
     Eigenvalues --  2551.583304883.776166132.52838
           X            1.00000  -0.00042   0.00157
           Y            0.00039   0.99987   0.01629
           Z           -0.00158  -0.01629   0.99987
 This molecule is an asymmetric top.
 Rotational symmetry number  1.
 Warning -- assumption of classical behavior for rotation
           may cause significant error
 Rotational temperatures (Kelvin)      0.03395     0.01774     0.01412
 Rotational constants (GHZ):           0.70730     0.36954     0.29429
 Zero-point vibrational energy     622558.5 (Joules/Mol)
                                  148.79505 (Kcal/Mol)
 Warning -- explicit consideration of  22 degrees of freedom as
           vibrations may cause significant error
 Vibrational temperatures:     80.88    93.68   125.15   138.93   202.20
          (Kelvin)            204.50   239.85   299.80   350.82   388.32
                              408.57   495.77   519.47   572.38   576.84
                              666.72   696.70   745.49   755.46   803.88
                              831.00   855.40   928.32   934.99   947.26
                              991.15  1054.50  1074.66  1101.07  1116.41
                             1124.50  1142.33  1183.72  1270.27  1290.05
                             1310.68  1317.88  1369.39  1387.42  1415.32
                             1493.46  1502.97  1547.91  1554.44  1631.13
                             1661.52  1678.64  1705.11  1719.00  1746.81
                             1785.21  1815.59  1836.71  1860.30  1913.95
                             1942.25  1953.47  1955.52  2017.05  2089.00
                             2134.56  2158.00  2166.42  2181.23  2201.90
                             2216.82  2257.11  2302.98  2344.58  2391.74
                             2396.22  2456.99  4384.16  4485.53  4525.96
                             4548.36  4595.46  4616.33  4631.50  4660.36
                             4685.75  4743.91  5041.86  5203.65

 Zero-point correction=                           0.237120 (Hartree/Particle)
 Thermal correction to Energy=                    0.251557
 Thermal correction to Enthalpy=                  0.252501
 Thermal correction to Gibbs Free Energy=         0.195784
 Sum of electronic and zero-point Energies=           -796.626120
 Sum of electronic and thermal Energies=              -796.611684
 Sum of electronic and thermal Enthalpies=            -796.610740
 Sum of electronic and thermal Free Energies=         -796.667457

                     E (Thermal)             CV                S
                      KCal/Mol        Cal/Mol-Kelvin    Cal/Mol-Kelvin
 Total                  157.854             57.304            119.371
 Electronic               0.000              0.000              0.000
 Translational            0.889              2.981             42.329
 Rotational               0.889              2.981             32.702
 Vibrational            156.077             51.342             44.340
 Vibration     1          0.596              1.975              4.586
 Vibration     2          0.597              1.971              4.296
 Vibration     3          0.601              1.958              3.727
 Vibration     4          0.603              1.952              3.523
 Vibration     5          0.615              1.913              2.797
 Vibration     6          0.616              1.911              2.775
 Vibration     7          0.624              1.883              2.472
 Vibration     8          0.642              1.828              2.058
 Vibration     9          0.659              1.773              1.775
 Vibration    10          0.674              1.729              1.597
 Vibration    11          0.682              1.703              1.510
 Vibration    12          0.723              1.586              1.191
 Vibration    13          0.735              1.552              1.118
 Vibration    14          0.764              1.475              0.971
 Vibration    15          0.767              1.468              0.959
 Vibration    16          0.821              1.331              0.756
 Vibration    17          0.840              1.285              0.699
 Vibration    18          0.873              1.210              0.614
 Vibration    19          0.880              1.194              0.598
 Vibration    20          0.914              1.121              0.526
 Vibration    21          0.934              1.080              0.490
 Vibration    22          0.952              1.043              0.459

                           ! Non-Optimized Parameters !
 Normal termination of Gaussian 16 at Fri Dec 11 21:42:15 2020.

 ----------------------------------------------------------------------
 # B3LYP/6-311++G(d,p) empiricaldispersion=gd3bj scf=xqc pop=npa geom=c
 heck
 ----------------------------------------------------------------------

 ---------------------------------------
 CID_105502225_JID_8637_Energie_neutraal
 ---------------------------------------
 Structure from the checkpoint file:  "JID_8637.chk"
 Charge =  0 Multiplicity = 1

 SCF Done:  E(RB3LYP) =  -797.074961859     A.U. after   17 cycles
 Normal termination of Gaussian 16 at Fri Dec 11 21:47:28 2020.

 ----------------------------------------------------------------------
 # B3LYP/6-311++G(d,p) empiricaldispersion=gd3bj scf=xqc pop=npa geom=c
 heck
 ----------------------------------------------------------------------

 -------------------------------------
 CID_105502225_JID_8637_Energie_kation
 -------------------------------------
 Structure from the checkpoint file:  "JID_8637.chk"
 Charge =  1 Multiplicity = 2

 SCF Done:  E(UB3LYP) =  -796.804721632     A.U. after   24 cycles
 Normal termination of Gaussian 16 at Fri Dec 11 21:57:33 2020.
 Gaussian 16:  ES64L-G16RevA.03 25-Dec-2016

 ----------------------------------------------------------------------
 # B3LYP/6-311++G(d,p) empiricaldispersion=gd3bj scf=xqc pop=npa geom=c
 heck
 ----------------------------------------------------------------------

 ------------------------------------
 CID_105502225_JID_8637_Energie_anion
 ------------------------------------
 Structure from the checkpoint file:  "JID_8637.chk"
 Charge = -1 Multiplicity = 2

                         Standard orientation:
 ---------------------------------------------------------------------
 Center     Atomic      Atomic             Coordinates (Angstroms)
 Number     Number       Type             X           Y           Z
 ---------------------------------------------------------------------
      1          6           0        1.284878    1.509782    2.191987
      2          8           0        1.888230    1.590356    0.894939
      3          6           0        2.069598    0.367291    0.269418
      4          6           0        3.367041   -0.137479    0.196415
      5          6           0        3.604593   -1.350734   -0.442799
      6          6           0        2.538220   -2.061369   -0.999502
      7          6           0        1.246704   -1.553347   -0.924257
      8          6           0        0.985736   -0.319989   -0.302275
      9          6           0       -0.383750    0.232035   -0.309392
     10          6           0       -0.743338    1.500320   -0.751719
     11          6           0       -2.135670    1.827325   -0.807262
     12          7           0       -3.116053    1.025888   -0.465578
     13          6           0       -2.770521   -0.192998   -0.006840
     14          6           0       -3.512286   -1.273174    0.479535
     15          6           0       -2.557116   -2.231821    0.820592
     16          7           0       -1.290922   -1.832944    0.586289
     17          7           0       -1.427071   -0.590124    0.076600
     18          7           0        0.192937    2.423837   -1.215991
     19          1           0        1.155558    2.538068    2.534966
     20          1           0        1.942408    0.968167    2.882057
     21          1           0        0.311573    1.009820    2.148509
     22          1           0        4.169969    0.437000    0.646900
     23          1           0        4.615544   -1.743392   -0.500509
     24          1           0        2.713922   -3.010810   -1.495822
     25          1           0        0.418571   -2.106965   -1.349439
     26          1           0       -2.415778    2.815852   -1.173486
     27          1           0       -4.586558   -1.320585    0.565683
     28          1           0       -2.716164   -3.217559    1.237947
     29          1           0        1.017764    2.487557   -0.624926
     30          1           0       -0.209419    3.338365   -1.384038
 ---------------------------------------------------------------------

 SCF Done:  E(UB3LYP) =  -797.089506879     A.U. after   24 cycles

 The electronic state is 2-A.
 Alpha  occ. eigenvalues --  -19.02993 -14.24901 -14.18109 -14.18025 -14.14482
 Alpha  occ. eigenvalues --  -10.11121 -10.09882 -10.08611 -10.06968 -10.06342
 Alpha  occ. eigenvalues --  -10.05367 -10.05034 -10.04975 -10.04854 -10.04665
 Alpha  occ. eigenvalues --  -10.04514 -10.04187 -10.01934  -0.94316  -0.91442
 Alpha  occ. eigenvalues --   -0.79873  -0.77255  -0.73346  -0.70727  -0.63524
 Alpha  occ. eigenvalues --   -0.63234  -0.62513  -0.59215  -0.57369  -0.52375
 Alpha  occ. eigenvalues --   -0.48775  -0.48378  -0.46961  -0.45261  -0.41417
 Alpha  occ. eigenvalues --   -0.40728  -0.37626  -0.36672  -0.36269  -0.35579
 Alpha  occ. eigenvalues --   -0.33920  -0.33189  -0.32601  -0.31603  -0.31207
 Alpha  occ. eigenvalues --   -0.30481  -0.29300  -0.27791  -0.26325  -0.25512
 Alpha  occ. eigenvalues --   -0.23800  -0.23733  -0.23425  -0.22724  -0.20038
 Alpha  occ. eigenvalues --   -0.17644  -0.16769  -0.15490  -0.13071  -0.12379
 Alpha  occ. eigenvalues --   -0.11290  -0.09445  -0.06491   0.04003
 Alpha virt. eigenvalues --    0.07972   0.08661   0.09431   0.09554   0.10330
 Alpha virt. eigenvalues --    0.10785   0.11237   0.11640   0.11812   0.11928
 Alpha virt. eigenvalues --    0.12946   0.13743   0.13995   0.14599   0.15117

  Beta  occ. eigenvalues --  -19.02981 -14.24672 -14.18090 -14.18027 -14.13992
  Beta  occ. eigenvalues --  -10.11100 -10.09756 -10.08679 -10.06991 -10.06002
  Beta  occ. eigenvalues --  -10.05358 -10.05018 -10.04978 -10.04701 -10.04618
  Beta  occ. eigenvalues --  -10.04303 -10.04063 -10.01888  -0.94257  -0.91133
  Beta  occ. eigenvalues --   -0.79479  -0.76865  -0.73085  -0.70392  -0.63230
  Beta  occ. eigenvalues --   -0.63066  -0.62309  -0.58942  -0.57247  -0.51714
  Beta  occ. eigenvalues --   -0.48671  -0.48092  -0.46846  -0.45111  -0.41249
  Beta  occ. eigenvalues --   -0.40608  -0.37444  -0.36518  -0.36122  -0.35463
  Beta  occ. eigenvalues --   -0.33770  -0.33035  -0.31991  -0.31489  -0.30932
  Beta  occ. eigenvalues --   -0.30365  -0.29142  -0.27663  -0.26104  -0.25383
  Beta  occ. eigenvalues --   -0.23528  -0.23299  -0.23093  -0.22081  -0.18636
  Beta  occ. eigenvalues --   -0.17432  -0.16617  -0.14977  -0.12398  -0.11760
  Beta  occ. eigenvalues --   -0.10804  -0.08658  -0.05380
  Beta virt. eigenvalues --    0.07899   0.08609   0.09336   0.09528   0.09597
  Beta virt. eigenvalues --    0.10306   0.11083   0.11335   0.11818   0.11896
  Beta virt. eigenvalues --    0.12845   0.13266   0.13759   0.14142   0.14668

 Mulliken charges and spin densities:
               1          2
     1  C   -0.262980  -0.011136
     2  O   -0.155131  -0.000228
     3  C   -1.447870   0.043326
     4  C   -0.284167  -0.055018
     5  C   -0.307049   0.180591
     6  C   -0.490399  -0.038903
     7  C   -0.153968   0.084641
     8  C    1.666914   0.069101
     9  C    0.030239   0.212990
    10  C   -0.526272   0.028962
    11  C   -0.083862   0.177746
    12  N   -0.182873   0.216646
    13  C   -0.299726  -0.035911
    14  C    0.167026   0.031719
    15  C   -0.327254   0.004907
    16  N   -0.163503   0.020611
    17  N    0.341403   0.064347
    18  N   -0.332886   0.012000
    19  H    0.115273   0.010273
    20  H    0.117506   0.005703
    21  H    0.171525   0.008053
    22  H    0.134073   0.005278
    23  H    0.116913  -0.012976
    24  H    0.121486   0.001701
    25  H    0.173941  -0.004389
    26  H    0.115997  -0.017367
    27  H    0.129537  -0.001984
    28  H    0.099152  -0.001418
    29  H    0.297396  -0.001282
    30  H    0.219560   0.002015
 Sum of Mulliken charges =  -1.00000   1.00000

 Dipole moment (field-independent basis, Debye):
    X=              3.5908    Y=              1.2835    Z=              1.7603  Tot=              4.2000
 Quadrupole moment (field-independent basis, Debye-Ang):
   XX=           -146.6767   YY=           -117.6303   ZZ=           -116.2017
   XY=              4.5498   XZ=              1.2894   YZ=              4.4158

 Summary of Natural Population Analysis:

                                       Natural Population
                Natural  -----------------------------------------------
    Atom  No    Charge         Core      Valence    Rydberg      Total
 -----------------------------------------------------------------------
      C    1   -0.09219      0.99960     2.08525    0.00734     3.09219
      O    2   -0.30559      0.99986     3.29427    0.01146     4.30559
      C    3    0.17589      0.99933     1.81270    0.01208     2.82411
      C    4   -0.13804      0.99951     2.12924    0.00928     3.13804
      C    5   -0.06509      0.99958     2.05638    0.00914     3.06509
      C    6   -0.12549      0.99957     2.11688    0.00904     3.12549
      C    7   -0.04672      0.99954     2.03911    0.00807     3.04672
      C    8   -0.04220      0.99945     2.03112    0.01163     3.04220
      C    9    0.13144      0.99945     1.85508    0.01402     2.86856
      C   10    0.04214      0.99946     1.94532    0.01308     2.95786
      C   11    0.06278      0.99959     1.92410    0.01354     2.93722
      N   12   -0.18104      0.99966     2.66582    0.01555     3.68104
      C   13    0.15552      0.99956     1.82888    0.01604     2.84448
      C   14   -0.17913      0.99952     2.17019    0.00942     3.17913
      C   15   -0.01708      0.99964     2.00285    0.01459     3.01708
      N   16   -0.17912      0.99974     2.66766    0.01171     3.67912
      N   17   -0.06554      0.99958     2.55402    0.01195     3.56554
      N   18   -0.40294      0.99971     2.89398    0.00925     3.90294
      H   19    0.08342      0.00000     0.41552    0.00106     0.41658
      H   20    0.07853      0.00000     0.42039    0.00107     0.42147
      H   21    0.09418      0.00000     0.40433    0.00148     0.40582
      H   22    0.09762      0.00000     0.40085    0.00153     0.40238
      H   23    0.08932      0.00000     0.40965    0.00103     0.41068
      H   24    0.09334      0.00000     0.40568    0.00098     0.40666
      H   25    0.10479      0.00000     0.39421    0.00100     0.39521
      H   26    0.07260      0.00000     0.42601    0.00139     0.42740
      H   27    0.10243      0.00000     0.39676    0.00081     0.39757
      H   28    0.08729      0.00000     0.41181    0.00090     0.41271
      H   29    0.19464      0.00000     0.30358    0.00177     0.30536
      H   30    0.17422      0.00000     0.32421    0.00157     0.32578
 =======================================================================
   * Total *    0.00000     17.99236    44.78586    0.22177    63.00000

 Normal termination of Gaussian 16 at Fri Dec 11 22:07:31 2020.
