 Gaussian 16, Revision A.03,

 -----------------------------------------------------------
 # opt freq B3LYP/6-31G(d) empiricaldispersion=gd3bj scf=xqc
 -----------------------------------------------------------

 -------------------------------
 CID_129033997_JID_7229_neutraal
 -------------------------------
 Symbolic Z-matrix:
 Charge =  0 Multiplicity = 1

 SCF Done:  E(RB3LYP) =  -748.730994319     A.U. after   16 cycles
 SCF Done:  E(RB3LYP) =  -748.740429197     A.U. after   12 cycles
 SCF Done:  E(RB3LYP) =  -748.741890303     A.U. after   12 cycles
 SCF Done:  E(RB3LYP) =  -748.743371167     A.U. after   12 cycles
 SCF Done:  E(RB3LYP) =  -748.743583302     A.U. after   12 cycles
 SCF Done:  E(RB3LYP) =  -748.743813979     A.U. after   12 cycles
 SCF Done:  E(RB3LYP) =  -748.744868185     A.U. after   12 cycles
 SCF Done:  E(RB3LYP) =  -748.745120545     A.U. after   12 cycles
 SCF Done:  E(RB3LYP) =  -748.745210903     A.U. after   11 cycles
 SCF Done:  E(RB3LYP) =  -748.745243654     A.U. after   10 cycles
 SCF Done:  E(RB3LYP) =  -748.745265871     A.U. after    8 cycles
 SCF Done:  E(RB3LYP) =  -748.745266100     A.U. after    7 cycles
 SCF Done:  E(RB3LYP) =  -748.745266258     A.U. after    7 cycles
 SCF Done:  E(RB3LYP) =  -748.745266309     A.U. after    7 cycles
 SCF Done:  E(RB3LYP) =  -748.745266328     A.U. after    6 cycles
 Optimization completed.
    -- Stationary point found.
 Normal termination of Gaussian 16 at Fri Dec 11 12:04:09 2020.

 --------------------------------------------------------------------
 #N Geom=AllCheck Guess=TCheck SCRF=Check GenChk RB3LYP/6-31G(d) Freq
 --------------------------------------------------------------------

 Structure from the checkpoint file:  "JID_7229.chk"
 -------------------------------
 CID_129033997_JID_7229_neutraal
 -------------------------------
 Charge =  0 Multiplicity = 1

 SCF Done:  E(RB3LYP) =  -748.745266328     A.U. after    1 cycles

  Exact polarizability: 199.638  12.039 156.503   0.017   1.198 128.570
 Approx polarizability: 248.348  25.020 249.056  -5.491  -6.317 199.855

                      1                      2                      3
                      A                      A                      A
 Frequencies --     27.5497                30.0748                52.6276
 Red. masses --      3.5914                 3.6385                 3.2647
 Frc consts  --      0.0016                 0.0019                 0.0053
 IR Inten    --      0.8022                 1.4241                 0.6929

                      4                      5                      6
                      A                      A                      A
 Frequencies --     84.7638                99.4755               107.7620
 Red. masses --      3.1585                 4.0218                 2.9284
 Frc consts  --      0.0134                 0.0234                 0.0200
 IR Inten    --      0.8215                 2.7448                 0.8440

                      7                      8                      9
                      A                      A                      A
 Frequencies --    128.4152               153.1101               168.3849
 Red. masses --      3.3614                 2.8115                 2.9396
 Frc consts  --      0.0327                 0.0388                 0.0491
 IR Inten    --      3.5295                 2.6579                 1.1446

                     10                     11                     12
                      A                      A                      A
 Frequencies --    177.7641               196.1968               205.1319
 Red. masses --      1.1537                 1.2203                 1.2036
 Frc consts  --      0.0215                 0.0277                 0.0298
 IR Inten    --      0.5801                 1.3558                 0.5117

                     13                     14                     15
                      A                      A                      A
 Frequencies --    230.4100               254.5972               285.0906
 Red. masses --      1.9175                 1.1635                 2.1809
 Frc consts  --      0.0600                 0.0444                 0.1044
 IR Inten    --      1.0573                 1.0213                 2.0353

                     16                     17                     18
                      A                      A                      A
 Frequencies --    289.0466               299.8511               314.8183
 Red. masses --      2.8805                 2.5799                 1.9945
 Frc consts  --      0.1418                 0.1367                 0.1165
 IR Inten    --      0.5990                 0.3600                 3.5133

                     19                     20                     21
                      A                      A                      A
 Frequencies --    323.5991               327.7905               354.5036
 Red. masses --      1.8079                 2.1698                 2.9400
 Frc consts  --      0.1115                 0.1374                 0.2177
 IR Inten    --      0.9381                 2.1061                11.3458

                     22                     23                     24
                      A                      A                      A
 Frequencies --    382.7011               392.8347               414.5674
 Red. masses --      2.5154                 2.3204                 2.4452
 Frc consts  --      0.2171                 0.2110                 0.2476
 IR Inten    --      1.0604                 1.7332                 1.5636

                     25                     26                     27
                      A                      A                      A
 Frequencies --    470.7464               504.4127               530.3460
 Red. masses --      3.5915                 2.7276                 2.7714
 Frc consts  --      0.4689                 0.4089                 0.4593
 IR Inten    --     21.0067                21.6095                10.8122

                     28                     29                     30
                      A                      A                      A
 Frequencies --    558.1318               588.8233               610.2536
 Red. masses --      2.0129                 3.0397                 3.8157
 Frc consts  --      0.3694                 0.6210                 0.8372
 IR Inten    --     68.6946                18.5485                10.9692

                     31                     32                     33
                      A                      A                      A
 Frequencies --    632.1144               668.7578               678.4703
 Red. masses --      4.8447                 3.2764                 3.1761
 Frc consts  --      1.1405                 0.8633                 0.8614
 IR Inten    --      8.0230                28.4187                79.8739

                     34                     35                     36
                      A                      A                      A
 Frequencies --    685.8581               710.6481               754.5488
 Red. masses --      1.6761                 2.1498                 3.7200
 Frc consts  --      0.4645                 0.6397                 1.2479
 IR Inten    --     22.6532                 8.4395                17.0445

                     37                     38                     39
                      A                      A                      A
 Frequencies --    778.4618               817.6131               819.4800
 Red. masses --      2.4333                 1.3685                 1.3556
 Frc consts  --      0.8688                 0.5390                 0.5364
 IR Inten    --     12.8285                23.8334                10.8162

                     40                     41                     42
                      A                      A                      A
 Frequencies --    842.7453               862.3908               890.1320
 Red. masses --      1.4844                 2.6533                 2.3827
 Frc consts  --      0.6212                 1.1627                 1.1123
 IR Inten    --     61.3583                 2.0890                 0.7353

                     43                     44                     45
                      A                      A                      A
 Frequencies --    942.4343               949.6083               956.7189
 Red. masses --      1.7778                 1.7172                 2.0924
 Frc consts  --      0.9304                 0.9123                 1.1284
 IR Inten    --      0.3635                 1.6119                 7.1671

                     46                     47                     48
                      A                      A                      A
 Frequencies --    972.6525               975.5403              1017.0346
 Red. masses --      1.8962                 1.2246                 1.6425
 Frc consts  --      1.0569                 0.6866                 1.0010
 IR Inten    --     11.7908                 0.7566                 1.6982

                     49                     50                     51
                      A                      A                      A
 Frequencies --   1061.9981              1064.2467              1073.2425
 Red. masses --      1.3900                 1.4131                 1.8878
 Frc consts  --      0.9237                 0.9430                 1.2811
 IR Inten    --      1.4245                 2.1290                 4.1163

                     52                     53                     54
                      A                      A                      A
 Frequencies --   1080.0644              1103.1451              1111.5911
 Red. masses --      1.6287                 2.2161                 2.3681
 Frc consts  --      1.1194                 1.5890                 1.7240
 IR Inten    --      1.9039                 4.9203                27.3223

                     55                     56                     57
                      A                      A                      A
 Frequencies --   1124.4631              1158.9635              1170.6984
 Red. masses --      3.2188                 4.0437                 2.3547
 Frc consts  --      2.3979                 3.2001                 1.9014
 IR Inten    --     92.8901                 8.3178                 2.6355

                     58                     59                     60
                      A                      A                      A
 Frequencies --   1229.7420              1237.1648              1241.7155
 Red. masses --      2.2689                 2.8731                 2.6080
 Frc consts  --      2.0216                 2.5909                 2.3692
 IR Inten    --     67.9785                39.5790                 3.8744

                     61                     62                     63
                      A                      A                      A
 Frequencies --   1252.9943              1271.8377              1289.0567
 Red. masses --      2.5781                 1.8138                 1.6318
 Frc consts  --      2.3848                 1.7286                 1.5976
 IR Inten    --      5.6925                39.8931                47.2702

                     64                     65                     66
                      A                      A                      A
 Frequencies --   1345.4656              1353.8040              1371.0773
 Red. masses --      1.5086                 2.9518                 1.4583
 Frc consts  --      1.6090                 3.1875                 1.6152
 IR Inten    --     16.0412                50.4421                 2.7198

                     67                     68                     69
                      A                      A                      A
 Frequencies --   1398.5156              1408.3690              1426.1732
 Red. masses --      1.3203                 1.6001                 1.2420
 Frc consts  --      1.5214                 1.8700                 1.4883
 IR Inten    --     25.4891                 5.1091                 0.9052

                     70                     71                     72
                      A                      A                      A
 Frequencies --   1426.4063              1435.0576              1438.2826
 Red. masses --      1.2161                 1.2641                 1.3050
 Frc consts  --      1.4578                 1.5339                 1.5906
 IR Inten    --      6.7377                12.4566                13.7055

                     73                     74                     75
                      A                      A                      A
 Frequencies --   1447.1569              1462.6554              1471.6710
 Red. masses --      1.2932                 1.2480                 2.3971
 Frc consts  --      1.5957                 1.5730                 3.0589
 IR Inten    --     11.2648                 2.6346                87.4285

                     76                     77                     78
                      A                      A                      A
 Frequencies --   1504.5505              1510.2152              1515.6706
 Red. masses --      1.1042                 1.0526                 1.0513
 Frc consts  --      1.4727                 1.4145                 1.4230
 IR Inten    --      1.3147                 1.0557                 6.1063

                     79                     80                     81
                      A                      A                      A
 Frequencies --   1517.2927              1519.3837              1525.5146
 Red. masses --      1.0469                 1.0559                 1.1251
 Frc consts  --      1.4200                 1.4362                 1.5426
 IR Inten    --      3.1517                 1.2429                 4.6718

                     82                     83                     84
                      A                      A                      A
 Frequencies --   1528.1371              1531.9627              1534.1254
 Red. masses --      1.0575                 1.1242                 1.0721
 Frc consts  --      1.4549                 1.5545                 1.4866
 IR Inten    --      5.4630                14.1112                 8.3444

                     85                     86                     87
                      A                      A                      A
 Frequencies --   1538.1390              1539.3701              1552.9971
 Red. masses --      1.0665                 1.0694                 1.0769
 Frc consts  --      1.4866                 1.4930                 1.5303
 IR Inten    --     16.2077                 3.4575                 4.5195

                     88                     89                     90
                      A                      A                      A
 Frequencies --   1557.7067              1679.6572              1704.8507
 Red. masses --      1.0738                 7.7984                 4.3867
 Frc consts  --      1.5351                12.9628                 7.5120
 IR Inten    --      3.5235               130.6275                72.8921

                     91                     92                     93
                      A                      A                      A
 Frequencies --   1804.6783              3022.9026              3047.2628
 Red. masses --     10.9514                 1.0687                 1.0420
 Frc consts  --     21.0145                 5.7539                 5.7006
 IR Inten    --    452.7370                24.1387                20.5151

                     94                     95                     96
                      A                      A                      A
 Frequencies --   3050.8171              3051.8260              3059.5453
 Red. masses --      1.0366                 1.0383                 1.0382
 Frc consts  --      5.6847                 5.6977                 5.7261
 IR Inten    --     18.7606                26.1022                30.0058

                     97                     98                     99
                      A                      A                      A
 Frequencies --   3062.2684              3077.2111              3090.1070
 Red. masses --      1.0360                 1.0640                 1.0929
 Frc consts  --      5.7241                 5.9359                 6.1486
 IR Inten    --     16.2376                37.0655                32.5815

                    100                    101                    102
                      A                      A                      A
 Frequencies --   3106.4591              3114.2476              3115.7041
 Red. masses --      1.0972                 1.1019                 1.1009
 Frc consts  --      6.2383                 6.2962                 6.2968
 IR Inten    --     10.5137                 4.3180                 8.9616

                    103                    104                    105
                      A                      A                      A
 Frequencies --   3118.6404              3122.6149              3130.7011
 Red. masses --      1.1003                 1.1008                 1.1034
 Frc consts  --      6.3050                 6.3240                 6.3719
 IR Inten    --      9.0172                67.3516                43.4364

                    106                    107                    108
                      A                      A                      A
 Frequencies --   3130.9421              3142.1772              3150.8870
 Red. masses --      1.1030                 1.0987                 1.1025
 Frc consts  --      6.3708                 6.3913                 6.4493
 IR Inten    --     28.1561                27.2223                18.7181

                    109                    110                    111
                      A                      A                      A
 Frequencies --   3152.0980              3161.9649              3169.7572
 Red. masses --      1.0975                 1.0998                 1.0676
 Frc consts  --      6.4249                 6.4784                 6.3197
 IR Inten    --     40.5362                 0.4076                13.1361

                    112                    113                    114
                      A                      A                      A
 Frequencies --   3274.8639              3516.8153              3567.4614
 Red. masses --      1.1068                 1.0744                 1.0777
 Frc consts  --      6.9938                 7.8289                 8.0811
 IR Inten    --     11.8163                 0.3816                23.9999

 - Thermochemistry -
 -------------------
 Temperature   298.150 Kelvin.  Pressure   1.00000 Atm.
 Atom     1 has atomic number  6 and mass  12.00000

 Molecular mass:   237.18411 amu.
 Principal axes and moments of inertia in atomic units:
                           1         2         3
     Eigenvalues --  1996.521237989.914588778.46792
           X            0.99993   0.01187  -0.00188
           Y           -0.01181   0.99957   0.02678
           Z            0.00220  -0.02676   0.99964
 This molecule is an asymmetric top.
 Rotational symmetry number  1.
 Warning -- assumption of classical behavior for rotation
           may cause significant error
 Rotational temperatures (Kelvin)      0.04338     0.01084     0.00987
 Rotational constants (GHZ):           0.90394     0.22588     0.20559
 Zero-point vibrational energy     929953.4 (Joules/Mol)
                                  222.26421 (Kcal/Mol)
 Warning -- explicit consideration of  30 degrees of freedom as
           vibrations may cause significant error
 Vibrational temperatures:     39.64    43.27    75.72   121.96   143.12
          (Kelvin)            155.05   184.76   220.29   242.27   255.76
                              282.28   295.14   331.51   366.31   410.18
                              415.87   431.42   452.95   465.59   471.62
                              510.05   550.62   565.20   596.47   677.30
                              725.74   763.05   803.03   847.19   878.02
                              909.47   962.19   976.17   986.80  1022.46
                             1085.63  1120.03  1176.36  1179.05  1212.52
                             1240.79  1280.70  1355.95  1366.27  1376.51
                             1399.43  1403.58  1463.29  1527.98  1531.21
                             1544.16  1553.97  1587.18  1599.33  1617.85
                             1667.49  1684.37  1769.32  1780.00  1786.55
                             1802.78  1829.89  1854.67  1935.82  1947.82
                             1972.67  2012.15  2026.33  2051.95  2052.28
                             2064.73  2069.37  2082.14  2104.43  2117.41
                             2164.71  2172.86  2180.71  2183.05  2186.05
                             2194.88  2198.65  2204.15  2207.26  2213.04
                             2214.81  2234.42  2241.19  2416.65  2452.90
                             2596.53  4349.28  4384.33  4389.45  4390.90
                             4402.00  4405.92  4427.42  4445.97  4469.50
                             4480.71  4482.80  4487.03  4492.75  4504.38
                             4504.73  4520.89  4533.42  4535.17  4549.36
                             4560.57  4711.80  5059.91  5132.78

 Zero-point correction=                           0.354201 (Hartree/Particle)
 Thermal correction to Energy=                    0.373255
 Thermal correction to Enthalpy=                  0.374199
 Thermal correction to Gibbs Free Energy=         0.306979
 Sum of electronic and zero-point Energies=           -748.391066
 Sum of electronic and thermal Energies=              -748.372011
 Sum of electronic and thermal Enthalpies=            -748.371067
 Sum of electronic and thermal Free Energies=         -748.438287

                     E (Thermal)             CV                S
                      KCal/Mol        Cal/Mol-Kelvin    Cal/Mol-Kelvin
 Total                  234.221             72.352            141.477
 Electronic               0.000              0.000              0.000
 Translational            0.889              2.981             42.292
 Rotational               0.889              2.981             33.304
 Vibrational            232.444             66.390             65.881
 Vibration     1          0.593              1.984              5.998
 Vibration     2          0.594              1.984              5.824
 Vibration     3          0.596              1.977              4.716
 Vibration     4          0.601              1.960              3.777
 Vibration     5          0.604              1.949              3.465
 Vibration     6          0.606              1.943              3.309
 Vibration     7          0.611              1.925              2.970
 Vibration     8          0.619              1.899              2.633
 Vibration     9          0.625              1.881              2.453
 Vibration    10          0.628              1.870              2.352
 Vibration    11          0.636              1.845              2.168
 Vibration    12          0.640              1.833              2.087
 Vibration    13          0.652              1.795              1.876
 Vibration    14          0.665              1.755              1.699
 Vibration    15          0.683              1.701              1.503
 Vibration    16          0.686              1.694              1.480
 Vibration    17          0.692              1.674              1.418
 Vibration    18          0.702              1.645              1.337
 Vibration    19          0.708              1.628              1.292
 Vibration    20          0.711              1.620              1.271
 Vibration    21          0.730              1.566              1.146
 Vibration    22          0.752              1.507              1.028
 Vibration    23          0.760              1.485              0.989
 Vibration    24          0.778              1.439              0.911
 Vibration    25          0.828              1.315              0.735
 Vibration    26          0.860              1.240              0.647
 Vibration    27          0.885              1.183              0.586
 Vibration    28          0.914              1.122              0.528
 Vibration    29          0.946              1.056              0.469
 Vibration    30          0.969              1.010              0.432

 Optimization completed.
    -- Stationary point found.
 Normal termination of Gaussian 16 at Fri Dec 11 12:20:11 2020.

 ----------------------------------------------------------------------
 # B3LYP/6-311++G(d,p) empiricaldispersion=gd3bj scf=xqc pop=npa geom=c
 heck
 ----------------------------------------------------------------------

 ---------------------------------------
 CID_129033997_JID_7229_Energie_neutraal
 ---------------------------------------
 Structure from the checkpoint file:  "JID_7229.chk"
 Charge =  0 Multiplicity = 1

 SCF Done:  E(RB3LYP) =  -748.960446698     A.U. after   16 cycles
 Normal termination of Gaussian 16 at Fri Dec 11 12:29:09 2020.

 ----------------------------------------------------------------------
 # B3LYP/6-311++G(d,p) empiricaldispersion=gd3bj scf=xqc pop=npa geom=c
 heck
 ----------------------------------------------------------------------

 -------------------------------------
 CID_129033997_JID_7229_Energie_kation
 -------------------------------------
 Structure from the checkpoint file:  "JID_7229.chk"
 Charge =  1 Multiplicity = 2

 SCF Done:  E(UB3LYP) =  -748.685767383     A.U. after   27 cycles
 Normal termination of Gaussian 16 at Fri Dec 11 12:54:54 2020.
 Gaussian 16:  ES64L-G16RevA.03 25-Dec-2016

 ----------------------------------------------------------------------
 # B3LYP/6-311++G(d,p) empiricaldispersion=gd3bj scf=xqc pop=npa geom=c
 heck
 ----------------------------------------------------------------------

 ------------------------------------
 CID_129033997_JID_7229_Energie_anion
 ------------------------------------
 Structure from the checkpoint file:  "JID_7229.chk"
 Charge = -1 Multiplicity = 2

                         Standard orientation:
 ---------------------------------------------------------------------
 Center     Atomic      Atomic             Coordinates (Angstroms)
 Number     Number       Type             X           Y           Z
 ---------------------------------------------------------------------
      1          6           0       -4.382943   -1.396585   -1.051257
      2          6           0       -4.182509   -1.052402    0.424559
      3          7           0       -3.075491   -0.118529    0.679616
      4          6           0       -1.762536   -0.499361    0.420365
      5          6           0       -1.059461    0.528251   -0.136460
      6          6           0       -1.969191    1.658833   -0.288093
      7          8           0       -1.761346    2.818248   -0.620064
      8          7           0       -3.240645    1.150562    0.073445
      9          6           0        0.399202    0.605527   -0.459273
     10          7           0        1.208041    0.237460    0.718874
     11          6           0        2.617629    0.386130    0.711741
     12          6           0        3.203800    1.122521    1.670259
     13          6           0        3.409748   -0.404522   -0.340285
     14          6           0        2.791769   -1.803991   -0.536722
     15          6           0        3.444248    0.360118   -1.685330
     16          6           0        4.872093   -0.600371    0.105757
     17          6           0       -1.292401   -1.877770    0.754626
     18          1           0       -4.541347   -0.485390   -1.634325
     19          1           0       -5.254133   -2.048728   -1.174762
     20          1           0       -3.508105   -1.914366   -1.458426
     21          1           0       -5.086750   -0.596602    0.841324
     22          1           0       -3.977916   -1.947914    1.018180
     23          1           0       -3.842837    1.777786    0.597563
     24          1           0        0.640581   -0.079193   -1.277403
     25          1           0        0.611632    1.624551   -0.814775
     26          1           0        0.823887    0.718634    1.527807
     27          1           0        4.275293    1.156512    1.810483
     28          1           0        2.607253    1.697909    2.374240
     29          1           0        1.766054   -1.761300   -0.910896
     30          1           0        3.387107   -2.375697   -1.258064
     31          1           0        2.778201   -2.356221    0.409035
     32          1           0        3.868694    1.359408   -1.543591
     33          1           0        4.072370   -0.180051   -2.403893
     34          1           0        2.455514    0.477248   -2.134250
     35          1           0        5.406926    0.351838    0.176120
     36          1           0        4.929670   -1.101029    1.077506
     37          1           0        5.398666   -1.217867   -0.630318
     38          1           0       -1.659481   -2.194448    1.736736
     39          1           0       -1.639671   -2.611921    0.016320
     40          1           0       -0.200869   -1.883866    0.773024
 ---------------------------------------------------------------------

 SCF Done:  E(UB3LYP) =  -748.952476676     A.U. after   33 cycles
 SCF Done:  E(UB3LYP) =  -748.952476676     a.u. after    1 cycles

 The electronic state is 2-A.
 Alpha  occ. eigenvalues --  -18.98633 -14.28279 -14.26709 -14.22688 -10.16837
 Alpha  occ. eigenvalues --  -10.13286 -10.12225 -10.11606 -10.11461 -10.11076
 Alpha  occ. eigenvalues --  -10.08119 -10.07964 -10.07940 -10.07533 -10.07353
 Alpha  occ. eigenvalues --  -10.06943 -10.06342  -0.95927  -0.91281  -0.83957
 Alpha  occ. eigenvalues --   -0.75565  -0.74173  -0.72109  -0.66677  -0.63881
 Alpha  occ. eigenvalues --   -0.63132  -0.60674  -0.60476  -0.58347  -0.53466
 Alpha  occ. eigenvalues --   -0.52277  -0.48907  -0.47957  -0.44594  -0.42895
 Alpha  occ. eigenvalues --   -0.40426  -0.39698  -0.38770  -0.36497  -0.36331
 Alpha  occ. eigenvalues --   -0.35660  -0.35104  -0.34106  -0.33335  -0.33125
 Alpha  occ. eigenvalues --   -0.32576  -0.32091  -0.31673  -0.31172  -0.30336
 Alpha  occ. eigenvalues --   -0.30113  -0.29829  -0.29458  -0.28496  -0.27997
 Alpha  occ. eigenvalues --   -0.26447  -0.25694  -0.24891  -0.24459  -0.23862
 Alpha  occ. eigenvalues --   -0.20862  -0.17965  -0.15982  -0.12848  -0.12298
 Alpha  occ. eigenvalues --    0.03838
 Alpha virt. eigenvalues --    0.05454   0.06584   0.06946   0.07204   0.07830
 Alpha virt. eigenvalues --    0.07899   0.08331   0.08655   0.09252   0.09672
 Alpha virt. eigenvalues --    0.09902   0.10647   0.11160   0.11261   0.11733

  Beta  occ. eigenvalues --  -18.98621 -14.28281 -14.26694 -14.22681 -10.16831
  Beta  occ. eigenvalues --  -10.13252 -10.12224 -10.11552 -10.11454 -10.11074
  Beta  occ. eigenvalues --  -10.08076 -10.07954 -10.07926 -10.07531 -10.07331
  Beta  occ. eigenvalues --  -10.06908 -10.06336  -0.95905  -0.91258  -0.83947
  Beta  occ. eigenvalues --   -0.75521  -0.74158  -0.72067  -0.66647  -0.63846
  Beta  occ. eigenvalues --   -0.63068  -0.60647  -0.60443  -0.58310  -0.53361
  Beta  occ. eigenvalues --   -0.52254  -0.48870  -0.47907  -0.44567  -0.42863
  Beta  occ. eigenvalues --   -0.40365  -0.39676  -0.38749  -0.36452  -0.36305
  Beta  occ. eigenvalues --   -0.35622  -0.35083  -0.34089  -0.33304  -0.33079
  Beta  occ. eigenvalues --   -0.32527  -0.32039  -0.31639  -0.31136  -0.30297
  Beta  occ. eigenvalues --   -0.30090  -0.29804  -0.29431  -0.28470  -0.27956
  Beta  occ. eigenvalues --   -0.26401  -0.25677  -0.24871  -0.24443  -0.23797
  Beta  occ. eigenvalues --   -0.20850  -0.17898  -0.15964  -0.12840  -0.12241
  Beta virt. eigenvalues --    0.05593   0.06637   0.06879   0.07175   0.07821
  Beta virt. eigenvalues --    0.08000   0.08160   0.08636   0.08966   0.09452
  Beta virt. eigenvalues --    0.09984   0.10069   0.10801   0.11383   0.11608

 Mulliken charges and spin densities:
               1          2
     1  C    0.921570  -1.409019
     2  C   -0.010724  -0.177969
     3  N    0.366127   0.106536
     4  C   -1.141474   0.124859
     5  C    0.388667   0.341182
     6  C   -0.140246   0.477084
     7  O   -0.381638   0.000103
     8  N   -0.384477  -0.002540
     9  C   -0.579360  -0.102118
    10  N    0.158337  -0.018173
    11  C    0.241326  -0.314090
    12  C   -0.476128  -0.207704
    13  C   -0.273478   1.054328
    14  C    0.248254  -0.794093
    15  C   -0.317444  -0.273335
    16  C   -0.187043  -0.371348
    17  C    1.574979  -2.134130
    18  H    0.176720  -0.012463
    19  H   -0.424468   0.580398
    20  H   -0.190991   0.328632
    21  H   -1.040200   1.212854
    22  H   -0.195129   0.349776
    23  H    0.129753   0.171966
    24  H    0.181456  -0.067244
    25  H    0.258515  -0.043493
    26  H    0.303055  -0.077854
    27  H    0.156411  -0.017738
    28  H   -0.045982   0.141256
    29  H   -0.097920   0.213883
    30  H   -0.075913   0.224830
    31  H   -0.053096   0.206697
    32  H    0.134626   0.021474
    33  H    0.034727   0.110335
    34  H   -0.046941   0.191454
    35  H   -0.007745   0.125821
    36  H    0.039653   0.112948
    37  H    0.051426   0.083200
    38  H   -0.615981   0.803961
    39  H   -0.267182   0.454545
    40  H    0.587957  -0.414811
 Sum of Mulliken charges =  -1.00000   1.00000

 Dipole moment (field-independent basis, Debye):
    X=              7.5798    Y=              2.3339    Z=             -0.8560  Tot=              7.9771
 Quadrupole moment (field-independent basis, Debye-Ang):
   XX=           -207.8354   YY=           -163.1131   ZZ=           -138.4235
   XY=             -8.2694   XZ=              5.2024   YZ=              7.8352

 Summary of Natural Population Analysis:

                                       Natural Population
                Natural  -----------------------------------------------
    Atom  No    Charge         Core      Valence    Rydberg      Total
 -----------------------------------------------------------------------
      C    1   -0.29569      0.99966     2.29028    0.00575     3.29569
      C    2   -0.08559      0.99961     2.07385    0.01213     3.08559
      N    3   -0.14736      0.99965     2.63342    0.01430     3.64736
      C    4    0.14215      0.99945     1.84646    0.01194     2.85785
      C    5   -0.11367      0.99938     2.10350    0.01079     3.11367
      C    6    0.31635      0.99960     1.66135    0.02270     2.68365
      O    7   -0.33064      0.99988     3.32519    0.00557     4.33064
      N    8   -0.23003      0.99968     2.71888    0.01147     3.73003
      C    9   -0.09491      0.99957     2.08532    0.01001     3.09491
      N   10   -0.32939      0.99969     2.81860    0.01110     3.82939
      C   11    0.11009      0.99946     1.87689    0.01357     2.88991
      C   12   -0.24114      0.99951     2.23491    0.00672     3.24114
      C   13   -0.06270      0.99955     2.05222    0.01093     3.06270
      C   14   -0.28232      0.99963     2.27444    0.00825     3.28232
      C   15   -0.28075      0.99963     2.27529    0.00583     3.28075
      C   16   -0.28232      0.99964     2.27654    0.00614     3.28232
      C   17   -0.31436      0.99961     2.30842    0.00632     3.31436
      H   18    0.10415      0.00000     0.39452    0.00133     0.39585
      H   19    0.10466      0.00000     0.39409    0.00126     0.39534
      H   20    0.09830      0.00000     0.40067    0.00104     0.40170
      H   21    0.10107      0.00000     0.39581    0.00312     0.39893
      H   22    0.10529      0.00000     0.39161    0.00311     0.39471
      H   23    0.19406      0.00000     0.30380    0.00214     0.30594
      H   24    0.09571      0.00000     0.40286    0.00143     0.40429
      H   25    0.10071      0.00000     0.39787    0.00142     0.39929
      H   26    0.17899      0.00000     0.31829    0.00272     0.32101
      H   27    0.09635      0.00000     0.40267    0.00098     0.40365
      H   28    0.09214      0.00000     0.40664    0.00122     0.40786
      H   29    0.10223      0.00000     0.39657    0.00121     0.39777
      H   30    0.09753      0.00000     0.40160    0.00086     0.40247
      H   31    0.10338      0.00000     0.39559    0.00103     0.39662
      H   32    0.10133      0.00000     0.39773    0.00094     0.39867
      H   33    0.09794      0.00000     0.40123    0.00083     0.40206
      H   34    0.10154      0.00000     0.39757    0.00089     0.39846
      H   35    0.09904      0.00000     0.40003    0.00093     0.40096
      H   36    0.10283      0.00000     0.39628    0.00089     0.39717
      H   37    0.09933      0.00000     0.39977    0.00090     0.40067
      H   38    0.11411      0.00000     0.38391    0.00199     0.38589
      H   39    0.11070      0.00000     0.38803    0.00127     0.38930
      H   40    0.12090      0.00000     0.37758    0.00152     0.37910
 =======================================================================
   * Total *   -0.00000     16.99320    47.80026    0.20654    65.00000

 Normal termination of Gaussian 16 at Fri Dec 11 13:22:05 2020.
