 Gaussian 16, Revision A.03,

 -----------------------------------------------------------
 # opt freq B3LYP/6-31G(d) empiricaldispersion=gd3bj scf=xqc
 -----------------------------------------------------------

 ------------------------------
 CID_60878810_JID_1082_neutraal
 ------------------------------
 Symbolic Z-matrix:
 Charge =  0 Multiplicity = 1

 SCF Done:  E(RB3LYP) =  -827.267356289     A.U. after   13 cycles
 SCF Done:  E(RB3LYP) =  -827.267510423     A.U. after   11 cycles
 SCF Done:  E(RB3LYP) =  -827.269132434     A.U. after   11 cycles
 SCF Done:  E(RB3LYP) =  -827.269885150     A.U. after   10 cycles
 SCF Done:  E(RB3LYP) =  -827.267470390     A.U. after   11 cycles
 SCF Done:  E(RB3LYP) =  -827.269856990     A.U. after   10 cycles
 SCF Done:  E(RB3LYP) =  -827.270011911     A.U. after    7 cycles
 SCF Done:  E(RB3LYP) =  -827.270060126     A.U. after   10 cycles
 SCF Done:  E(RB3LYP) =  -827.270069676     A.U. after    9 cycles
 SCF Done:  E(RB3LYP) =  -827.270071764     A.U. after    8 cycles
 SCF Done:  E(RB3LYP) =  -827.270072293     A.U. after    7 cycles
 Optimization completed.
    -- Stationary point found.
 Normal termination of Gaussian 16 at Tue Dec  8 19:14:03 2020.

 --------------------------------------------------------------------
 #N Geom=AllCheck Guess=TCheck SCRF=Check GenChk RB3LYP/6-31G(d) Freq
 --------------------------------------------------------------------

 Structure from the checkpoint file:  "JID_1082.chk"
 ------------------------------
 CID_60878810_JID_1082_neutraal
 ------------------------------
 Charge =  0 Multiplicity = 1

 SCF Done:  E(RB3LYP) =  -827.270072293     A.U. after    1 cycles

  Exact polarizability: 134.539  -0.177 104.256   2.259   0.080 102.440
 Approx polarizability: 176.103  -3.650 150.584   4.368  -1.122 160.981

                      1                      2                      3
                      A                      A                      A
 Frequencies --     75.5541                91.6051               108.8187
 Red. masses --      2.8757                 3.4255                 3.3364
 Frc consts  --      0.0097                 0.0169                 0.0233
 IR Inten    --      0.5392                 0.5550                 1.7168

                      4                      5                      6
                      A                      A                      A
 Frequencies --    159.8804               197.8789               216.6014
 Red. masses --      3.9234                 2.5023                 4.5184
 Frc consts  --      0.0591                 0.0577                 0.1249
 IR Inten    --      2.6318                 0.4534                 2.1781

                      7                      8                      9
                      A                      A                      A
 Frequencies --    246.3876               282.5164               302.7916
 Red. masses --      1.1024                 1.7213                 2.2302
 Frc consts  --      0.0394                 0.0809                 0.1205
 IR Inten    --      3.9225                 0.7639                 3.0710

                     10                     11                     12
                      A                      A                      A
 Frequencies --    315.0201               338.4540               344.2231
 Red. masses --      1.6723                 3.0644                 2.0439
 Frc consts  --      0.0978                 0.2068                 0.1427
 IR Inten    --      0.2369                 0.5969                 0.3400

                     13                     14                     15
                      A                      A                      A
 Frequencies --    377.9106               403.1897               430.0108
 Red. masses --      2.3667                 2.2461                 2.9905
 Frc consts  --      0.1992                 0.2151                 0.3258
 IR Inten    --      1.5622                26.0378                 4.7337

                     16                     17                     18
                      A                      A                      A
 Frequencies --    456.3251               472.3073               508.9222
 Red. masses --      1.5690                 2.1016                 3.8259
 Frc consts  --      0.1925                 0.2762                 0.5838
 IR Inten    --     26.6736                26.5297                 1.0777

                     19                     20                     21
                      A                      A                      A
 Frequencies --    559.1359               599.2283               730.1233
 Red. masses --      2.3041                 3.3301                 2.9483
 Frc consts  --      0.4244                 0.7045                 0.9260
 IR Inten    --      2.4484                 4.2808                 8.2630

                     22                     23                     24
                      A                      A                      A
 Frequencies --    810.9649               857.7335               886.7364
 Red. masses --      1.9063                 2.0219                 1.7267
 Frc consts  --      0.7387                 0.8764                 0.7999
 IR Inten    --      0.5767                 4.6794                 2.7678

                     25                     26                     27
                      A                      A                      A
 Frequencies --    901.9688               915.0990               948.2654
 Red. masses --      2.4822                 1.7757                 1.1905
 Frc consts  --      1.1898                 0.8761                 0.6307
 IR Inten    --      0.9968                 2.5591                 1.1597

                     28                     29                     30
                      A                      A                      A
 Frequencies --    959.4681               970.6392               985.2998
 Red. masses --      2.3546                 1.4046                 2.2140
 Frc consts  --      1.2771                 0.7797                 1.2664
 IR Inten    --      2.6904                 0.3377                16.7541

                     31                     32                     33
                      A                      A                      A
 Frequencies --   1055.8083              1061.9634              1090.8868
 Red. masses --      1.7830                 1.5025                 1.3487
 Frc consts  --      1.1710                 0.9984                 0.9457
 IR Inten    --     16.5483                 0.6969                12.4923

                     34                     35                     36
                      A                      A                      A
 Frequencies --   1096.0326              1119.7822              1139.9346
 Red. masses --      2.2602                 3.4165                 1.5464
 Frc consts  --      1.5997                 2.5240                 1.1840
 IR Inten    --      4.4204                28.8190                22.3484

                     37                     38                     39
                      A                      A                      A
 Frequencies --   1146.8756              1156.8802              1197.2360
 Red. masses --      2.3177                 2.3775                 1.8734
 Frc consts  --      1.7961                 1.8748                 1.5821
 IR Inten    --      3.7147                14.6337                13.5349

                     40                     41                     42
                      A                      A                      A
 Frequencies --   1230.5994              1260.5809              1283.9910
 Red. masses --      1.4303                 1.2993                 1.3201
 Frc consts  --      1.2762                 1.2165                 1.2823
 IR Inten    --      2.0436                13.0251                 3.1849

                     43                     44                     45
                      A                      A                      A
 Frequencies --   1302.3015              1320.8785              1335.1237
 Red. masses --      1.2499                 1.1855                 1.2238
 Frc consts  --      1.2490                 1.2187                 1.2853
 IR Inten    --     18.4355                36.3673                12.2502

                     46                     47                     48
                      A                      A                      A
 Frequencies --   1338.8312              1358.7297              1366.0481
 Red. masses --      1.1985                 1.3208                 1.2566
 Frc consts  --      1.2657                 1.4367                 1.3816
 IR Inten    --      7.2588                 1.0187                 3.1769

                     49                     50                     51
                      A                      A                      A
 Frequencies --   1382.9956              1391.5600              1400.0109
 Red. masses --      1.3809                 1.3740                 1.4731
 Frc consts  --      1.5562                 1.5676                 1.7011
 IR Inten    --      0.2692                 4.7171                 1.2419

                     52                     53                     54
                      A                      A                      A
 Frequencies --   1417.5948              1431.7193              1446.3164
 Red. masses --      1.3696                 1.2401                 1.4750
 Frc consts  --      1.6216                 1.4977                 1.8179
 IR Inten    --      9.2805                 7.8928                47.2579

                     55                     56                     57
                      A                      A                      A
 Frequencies --   1452.8758              1514.2427              1516.4217
 Red. masses --      1.2644                 1.0806                 1.0894
 Frc consts  --      1.5725                 1.4599                 1.4760
 IR Inten    --      5.5974                 2.5497                 3.3543

                     58                     59                     60
                      A                      A                      A
 Frequencies --   1518.5933              1521.8866              1526.5031
 Red. masses --      1.0638                 1.0673                 1.0604
 Frc consts  --      1.4454                 1.4564                 1.4559
 IR Inten    --      3.1676                 5.6773                 1.6195

                     61                     62                     63
                      A                      A                      A
 Frequencies --   1532.8579              1536.3936              1540.0833
 Red. masses --      1.0735                 1.0641                 1.0494
 Frc consts  --      1.4861                 1.4799                 1.4665
 IR Inten    --      2.5621                 8.0244                 7.0464

                     64                     65                     66
                      A                      A                      A
 Frequencies --   2970.8898              3026.5091              3032.1009
 Red. masses --      1.0809                 1.0704                 1.0641
 Frc consts  --      5.6212                 5.7765                 5.7638
 IR Inten    --     39.7442                16.0900                26.1541

                     67                     68                     69
                      A                      A                      A
 Frequencies --   3034.3388              3047.0501              3047.6390
 Red. masses --      1.0810                 1.0631                 1.0448
 Frc consts  --      5.8642                 5.8154                 5.7176
 IR Inten    --     12.3863                28.6636                22.1921

                     70                     71                     72
                      A                      A                      A
 Frequencies --   3050.8396              3055.2729              3070.8624
 Red. masses --      1.0689                 1.0520                 1.0731
 Frc consts  --      5.8615                 5.7860                 5.9622
 IR Inten    --     12.2294                30.6247                13.1818

                     73                     74                     75
                      A                      A                      A
 Frequencies --   3082.3684              3083.9858              3095.5656
 Red. masses --      1.0855                 1.0961                 1.1025
 Frc consts  --      6.0765                 6.1421                 6.2248
 IR Inten    --     48.4842                64.4208                34.0241

                     76                     77                     78
                      A                      A                      A
 Frequencies --   3113.2024              3117.5056              3122.9243
 Red. masses --      1.1005                 1.0974                 1.0978
 Frc consts  --      6.2842                 6.2839                 6.3082
 IR Inten    --     30.9710                40.5664                13.9819

                     79                     80                     81
                      A                      A                      A
 Frequencies --   3145.1700              3150.6053              3658.4323
 Red. masses --      1.1033                 1.1011                 1.0654
 Frc consts  --      6.4302                 6.4397                 8.4012
 IR Inten    --     14.0675                22.2223                47.1125

 - Thermochemistry -
 -------------------
 Temperature   298.150 Kelvin.  Pressure   1.00000 Atm.
 Atom     1 has atomic number  6 and mass  12.00000

 Molecular mass:   174.10784 amu.
 Principal axes and moments of inertia in atomic units:
                           1         2         3
     Eigenvalues --  1298.706802703.507773076.54530
           X            0.99971   0.01328   0.02027
           Y           -0.01286   0.99971  -0.02054
           Z           -0.02054   0.02028   0.99958
 This molecule is an asymmetric top.
 Rotational symmetry number  1.
 Warning -- assumption of classical behavior for rotation
           may cause significant error
 Rotational temperatures (Kelvin)      0.06669     0.03204     0.02815
 Rotational constants (GHZ):           1.38964     0.66756     0.58661
 Zero-point vibrational energy     689951.4 (Joules/Mol)
                                  164.90233 (Kcal/Mol)
 Warning -- explicit consideration of  20 degrees of freedom as
           vibrations may cause significant error
 Vibrational temperatures:    108.71   131.80   156.57   230.03   284.70
          (Kelvin)            311.64   354.50   406.48   435.65   453.24
                              486.96   495.26   543.73   580.10   618.69
                              656.55   679.54   732.23   804.47   862.16
                             1050.48  1166.80  1234.09  1275.82  1297.73
                             1316.62  1364.34  1380.46  1396.53  1417.63
                             1519.07  1527.93  1569.54  1576.95  1611.12
                             1640.11  1650.10  1664.49  1722.56  1770.56
                             1813.69  1847.38  1873.72  1900.45  1920.95
                             1926.28  1954.91  1965.44  1989.82  2002.14
                             2014.30  2039.60  2059.92  2080.93  2090.36
                             2178.66  2181.79  2184.92  2189.66  2196.30
                             2205.44  2210.53  2215.84  4274.45  4354.47
                             4362.52  4365.74  4384.03  4384.87  4389.48
                             4395.86  4418.29  4434.84  4437.17  4453.83
                             4479.20  4485.40  4493.19  4525.20  4533.02
                             5263.67

 Zero-point correction=                           0.262789 (Hartree/Particle)
 Thermal correction to Energy=                    0.275040
 Thermal correction to Enthalpy=                  0.275984
 Thermal correction to Gibbs Free Energy=         0.225339
 Sum of electronic and zero-point Energies=           -827.007284
 Sum of electronic and thermal Energies=              -826.995032
 Sum of electronic and thermal Enthalpies=            -826.994088
 Sum of electronic and thermal Free Energies=         -827.044734

                     E (Thermal)             CV                S
                      KCal/Mol        Cal/Mol-Kelvin    Cal/Mol-Kelvin
 Total                  172.590             47.850            106.593
 Electronic               0.000              0.000              0.000
 Translational            0.889              2.981             41.371
 Rotational               0.889              2.981             30.758
 Vibrational            170.813             41.888             34.464
 Vibration     1          0.599              1.965              4.003
 Vibration     2          0.602              1.955              3.625
 Vibration     3          0.606              1.942              3.290
 Vibration     4          0.622              1.891              2.551
 Vibration     5          0.637              1.843              2.153
 Vibration     6          0.645              1.816              1.987
 Vibration     7          0.661              1.769              1.756
 Vibration     8          0.682              1.706              1.518
 Vibration     9          0.694              1.668              1.401
 Vibration    10          0.702              1.645              1.336
 Vibration    11          0.719              1.599              1.219
 Vibration    12          0.723              1.587              1.193
 Vibration    13          0.748              1.517              1.048
 Vibration    14          0.769              1.463              0.951
 Vibration    15          0.791              1.405              0.859
 Vibration    16          0.815              1.347              0.777
 Vibration    17          0.829              1.311              0.731
 Vibration    18          0.864              1.230              0.636
 Vibration    19          0.915              1.120              0.526
 Vibration    20          0.957              1.033              0.451

                           ! Non-Optimized Parameters !
 Normal termination of Gaussian 16 at Tue Dec  8 19:21:20 2020.

 ----------------------------------------------------------------------
 # B3LYP/6-311++G(d,p) empiricaldispersion=gd3bj scf=xqc pop=npa geom=c
 heck
 ----------------------------------------------------------------------

 --------------------------------------
 CID_60878810_JID_1082_Energie_neutraal
 --------------------------------------
 Structure from the checkpoint file:  "JID_1082.chk"
 Charge =  0 Multiplicity = 1

 SCF Done:  E(RB3LYP) =  -827.426268096     A.U. after   13 cycles
 Normal termination of Gaussian 16 at Tue Dec  8 19:24:35 2020.

 ----------------------------------------------------------------------
 # B3LYP/6-311++G(d,p) empiricaldispersion=gd3bj scf=xqc pop=npa geom=c
 heck
 ----------------------------------------------------------------------

 ------------------------------------
 CID_60878810_JID_1082_Energie_kation
 ------------------------------------
 Structure from the checkpoint file:  "JID_1082.chk"
 Charge =  1 Multiplicity = 2

 SCF Done:  E(UB3LYP) =  -827.115973084     A.U. after   19 cycles
 Normal termination of Gaussian 16 at Tue Dec  8 19:31:22 2020.
 Gaussian 16:  ES64L-G16RevA.03 25-Dec-2016

 ----------------------------------------------------------------------
 # B3LYP/6-311++G(d,p) empiricaldispersion=gd3bj scf=xqc pop=npa geom=c
 heck
 ----------------------------------------------------------------------

 -----------------------------------
 CID_60878810_JID_1082_Energie_anion
 -----------------------------------
 Structure from the checkpoint file:  "JID_1082.chk"
 Charge = -1 Multiplicity = 2

                         Standard orientation:
 ---------------------------------------------------------------------
 Center     Atomic      Atomic             Coordinates (Angstroms)
 Number     Number       Type             X           Y           Z
 ---------------------------------------------------------------------
      1          6           0        2.726802    0.974934    0.793753
      2          6           0        2.397297   -0.412510    0.232953
      3          6           0        1.915624   -1.379630    1.314754
      4         16           0        1.335520   -0.343239   -1.294849
      5          6           0       -0.441232   -0.165991   -0.794412
      6          6           0       -1.107557   -1.462042   -0.312483
      7          6           0       -2.614983   -1.250184   -0.104887
      8          6           0       -2.881816   -0.088383    0.860659
      9          6           0       -2.207315    1.197401    0.369751
     10          6           0       -0.703174    1.005465    0.165653
     11          8           0       -0.171460    2.226793   -0.318157
     12          1           0        1.838866    1.485337    1.175906
     13          1           0        3.175523    1.610250    0.024078
     14          1           0        3.445622    0.881634    1.617887
     15          1           0        3.314863   -0.827336   -0.202477
     16          1           0        1.030371   -0.996470    1.830800
     17          1           0        1.678279   -2.362682    0.899379
     18          1           0        2.704160   -1.504506    2.067156
     19          1           0       -0.887191    0.110652   -1.760283
     20          1           0       -0.657945   -1.785761    0.631581
     21          1           0       -0.920900   -2.257689   -1.041108
     22          1           0       -3.071621   -2.174832    0.268417
     23          1           0       -3.088252   -1.032573   -1.073005
     24          1           0       -2.494968   -0.349337    1.856424
     25          1           0       -3.959720    0.073976    0.977238
     26          1           0       -2.362707    2.022726    1.073821
     27          1           0       -2.641201    1.510541   -0.589238
     28          1           0       -0.253530    0.753965    1.141575
     29          1           0        0.651836    2.005219   -0.789762
 ---------------------------------------------------------------------

 SCF Done:  E(UB3LYP) =  -827.410931528     A.U. after   28 cycles

 The electronic state is 2-A.
 Alpha  occ. eigenvalues --  -88.73940 -19.02264 -10.12601 -10.11058 -10.10819
 Alpha  occ. eigenvalues --  -10.07042 -10.06927 -10.06815 -10.06794 -10.06538
 Alpha  occ. eigenvalues --  -10.06245  -7.82560  -5.78950  -5.78552  -5.77971
 Alpha  occ. eigenvalues --   -0.92929  -0.74336  -0.71416  -0.66394  -0.64134
 Alpha  occ. eigenvalues --   -0.59379  -0.59004  -0.51774  -0.51165  -0.47092
 Alpha  occ. eigenvalues --   -0.46181  -0.41728  -0.37169  -0.36191  -0.35670
 Alpha  occ. eigenvalues --   -0.35206  -0.33414  -0.32657  -0.31591  -0.30163
 Alpha  occ. eigenvalues --   -0.29187  -0.28421  -0.27705  -0.26066  -0.25421
 Alpha  occ. eigenvalues --   -0.25189  -0.24740  -0.23426  -0.22120  -0.21422
 Alpha  occ. eigenvalues --   -0.18974  -0.17935  -0.13466   0.04573
 Alpha virt. eigenvalues --    0.06324   0.07766   0.07898   0.08961   0.09099
 Alpha virt. eigenvalues --    0.09421   0.10646   0.10859   0.11257   0.11553
 Alpha virt. eigenvalues --    0.12251   0.12811   0.13021   0.13320   0.14281

  Beta  occ. eigenvalues --  -88.73936 -19.02258 -10.12592 -10.11048 -10.10813
  Beta  occ. eigenvalues --  -10.07025 -10.06919 -10.06791 -10.06769 -10.06511
  Beta  occ. eigenvalues --  -10.06198  -7.82557  -5.78944  -5.78546  -5.77969
  Beta  occ. eigenvalues --   -0.92918  -0.74309  -0.71379  -0.66362  -0.64100
  Beta  occ. eigenvalues --   -0.59310  -0.58959  -0.51721  -0.51120  -0.47032
  Beta  occ. eigenvalues --   -0.46139  -0.41697  -0.37119  -0.36148  -0.35633
  Beta  occ. eigenvalues --   -0.35169  -0.33380  -0.32622  -0.31549  -0.30130
  Beta  occ. eigenvalues --   -0.29149  -0.28378  -0.27665  -0.26035  -0.25393
  Beta  occ. eigenvalues --   -0.25153  -0.24700  -0.23387  -0.22085  -0.21390
  Beta  occ. eigenvalues --   -0.18944  -0.17922  -0.13452
  Beta virt. eigenvalues --    0.06936   0.07393   0.08137   0.08480   0.09496
  Beta virt. eigenvalues --    0.09804   0.09995   0.10952   0.11058   0.11675
  Beta virt. eigenvalues --    0.12183   0.12545   0.13044   0.13120   0.13713

 Mulliken charges and spin densities:
               1          2
     1  C    0.501048  -1.083239
     2  C   -1.188524   1.097711
     3  C    1.634062  -2.198153
     4  S    0.337951  -0.337966
     5  C    0.868929  -0.294631
     6  C   -0.831102   0.359085
     7  C    0.128779  -0.595400
     8  C    1.077984  -1.456061
     9  C   -0.089463  -0.295917
    10  C   -1.137637   0.484894
    11  O   -0.151883   0.008236
    12  H   -0.155099   0.331894
    13  H   -0.044415   0.156703
    14  H   -0.277401   0.426136
    15  H   -0.368657   0.628492
    16  H   -0.416384   0.571164
    17  H   -0.279314   0.430248
    18  H   -0.606325   0.772010
    19  H    0.189291   0.104450
    20  H    0.525977  -0.394530
    21  H   -0.199560   0.354596
    22  H   -0.826038   1.020265
    23  H    0.151893  -0.041787
    24  H   -0.081315   0.201210
    25  H   -0.393434   0.582067
    26  H    0.031714   0.143282
    27  H    0.059781   0.082586
    28  H    0.256898  -0.035943
    29  H    0.282243  -0.021401
 Sum of Mulliken charges =  -1.00000   1.00000

 Dipole moment (field-independent basis, Debye):
    X=             -0.9496    Y=              3.6239    Z=             -4.5392  Tot=              5.8855
 Quadrupole moment (field-independent basis, Debye-Ang):
   XX=           -151.1182   YY=           -124.5644   ZZ=           -116.0674
   XY=             -0.7999   XZ=             -3.1358   YZ=              4.4373

 Summary of Natural Population Analysis:

                                       Natural Population
                Natural  -----------------------------------------------
    Atom  No    Charge         Core      Valence    Rydberg      Total
 -----------------------------------------------------------------------
      C    1   -0.29312      0.99962     2.28553    0.00797     3.29312
      C    2   -0.16666      0.99958     2.15323    0.01385     3.16666
      C    3   -0.29072      0.99963     2.28359    0.00751     3.29072
      S    4    0.07905      4.99959     2.90439    0.01697     7.92095
      C    5   -0.17286      0.99951     2.15956    0.01379     3.17286
      C    6   -0.19860      0.99959     2.18817    0.01084     3.19860
      C    7   -0.18758      0.99963     2.17887    0.00909     3.18758
      C    8   -0.19173      0.99963     2.18315    0.00895     3.19173
      C    9   -0.19208      0.99961     2.18222    0.01026     3.19208
      C   10    0.05619      0.99948     1.92991    0.01442     2.94381
      O   11   -0.37761      0.99989     3.37127    0.00644     4.37761
      H   12    0.10216      0.00000     0.39640    0.00144     0.39784
      H   13    0.09965      0.00000     0.39921    0.00114     0.40035
      H   14    0.10382      0.00000     0.39474    0.00145     0.39618
      H   15    0.10447      0.00000     0.39403    0.00150     0.39553
      H   16    0.09782      0.00000     0.40022    0.00197     0.40218
      H   17    0.10544      0.00000     0.39311    0.00145     0.39456
      H   18    0.10641      0.00000     0.39116    0.00244     0.39359
      H   19    0.10476      0.00000     0.39385    0.00139     0.39524
      H   20    0.10195      0.00000     0.39606    0.00200     0.39805
      H   21    0.10455      0.00000     0.39423    0.00122     0.39545
      H   22    0.10463      0.00000     0.39341    0.00195     0.39537
      H   23    0.09073      0.00000     0.40801    0.00126     0.40927
      H   24    0.09662      0.00000     0.40173    0.00164     0.40338
      H   25    0.10103      0.00000     0.39765    0.00132     0.39897
      H   26    0.10356      0.00000     0.39551    0.00093     0.39644
      H   27    0.09581      0.00000     0.40284    0.00135     0.40419
      H   28    0.07786      0.00000     0.41956    0.00258     0.42214
      H   29    0.23447      0.00000     0.26229    0.00324     0.26553
 =======================================================================
   * Total *    0.00000     14.99575    32.85390    0.15036    48.00000

 Normal termination of Gaussian 16 at Tue Dec  8 19:40:59 2020.
