 Gaussian 16, Revision A.03,

 -----------------------------------------------------------
 # opt freq B3LYP/6-31G(d) empiricaldispersion=gd3bj scf=xqc
 -----------------------------------------------------------

 ------------------------------
 CID_82655601_JID_3442_neutraal
 ------------------------------
 Symbolic Z-matrix:
 Charge =  0 Multiplicity = 1

 SCF Done:  E(RB3LYP) =  -613.724901334     A.U. after   13 cycles
 SCF Done:  E(RB3LYP) =  -613.730595392     A.U. after   11 cycles
 SCF Done:  E(RB3LYP) =  -613.731922758     A.U. after   11 cycles
 SCF Done:  E(RB3LYP) =  -613.733927579     A.U. after   11 cycles
 SCF Done:  E(RB3LYP) =  -613.734864322     A.U. after   11 cycles
 SCF Done:  E(RB3LYP) =  -613.734917302     A.U. after   11 cycles
 SCF Done:  E(RB3LYP) =  -613.735169042     A.U. after   10 cycles
 SCF Done:  E(RB3LYP) =  -613.735244807     A.U. after   10 cycles
 SCF Done:  E(RB3LYP) =  -613.735243984     A.U. after    9 cycles
 SCF Done:  E(RB3LYP) =  -613.735246720     A.U. after    8 cycles
 SCF Done:  E(RB3LYP) =  -613.735246709     A.U. after    7 cycles
 SCF Done:  E(RB3LYP) =  -613.735246881     A.U. after    7 cycles
 Optimization completed.
    -- Stationary point found.
 Normal termination of Gaussian 16 at Wed Dec  9 23:17:18 2020.

 --------------------------------------------------------------------
 #N Geom=AllCheck Guess=TCheck SCRF=Check GenChk RB3LYP/6-31G(d) Freq
 --------------------------------------------------------------------

 Structure from the checkpoint file:  "JID_3442.chk"
 ------------------------------
 CID_82655601_JID_3442_neutraal
 ------------------------------
 Charge =  0 Multiplicity = 1

 SCF Done:  E(RB3LYP) =  -613.735246881     A.U. after    1 cycles

  Exact polarizability: 137.741   0.905  97.373   1.412  -2.150 101.183
 Approx polarizability: 156.897   0.922 145.452   2.970  -2.894 151.866

                      1                      2                      3
                      A                      A                      A
 Frequencies --     43.4782                55.1727                85.3046
 Red. masses --      3.7533                 3.7067                 3.1500
 Frc consts  --      0.0042                 0.0066                 0.0135
 IR Inten    --      1.6882                 0.1044                 1.3574

                      4                      5                      6
                      A                      A                      A
 Frequencies --    108.0933               173.3533               198.6974
 Red. masses --      3.5089                 2.2242                 2.6995
 Frc consts  --      0.0242                 0.0394                 0.0628
 IR Inten    --      3.2225                 4.8290                 2.1535

                      7                      8                      9
                      A                      A                      A
 Frequencies --    213.8062               241.9623               267.5535
 Red. masses --      3.4831                 1.3312                 2.0465
 Frc consts  --      0.0938                 0.0459                 0.0863
 IR Inten    --      1.4499                 3.9444                10.3638

                     10                     11                     12
                      A                      A                      A
 Frequencies --    294.9135               306.8697               330.2964
 Red. masses --      3.5009                 1.2106                 2.4345
 Frc consts  --      0.1794                 0.0672                 0.1565
 IR Inten    --      4.2560                63.1809                 1.4690

                     13                     14                     15
                      A                      A                      A
 Frequencies --    345.4410               369.0998               424.0411
 Red. masses --      2.2698                 2.2050                 1.7976
 Frc consts  --      0.1596                 0.1770                 0.1904
 IR Inten    --      3.6738                 9.8232                 1.4705

                     16                     17                     18
                      A                      A                      A
 Frequencies --    450.8420               506.1205               515.8906
 Red. masses --      2.1800                 4.4926                 3.1677
 Frc consts  --      0.2611                 0.6780                 0.4967
 IR Inten    --      1.8493                 9.5902                 7.2140

                     19                     20                     21
                      A                      A                      A
 Frequencies --    570.1601               603.9983               711.2286
 Red. masses --      3.4092                 5.5937                 3.6621
 Frc consts  --      0.6530                 1.2023                 1.0914
 IR Inten    --      8.9578                 3.3913                 9.9044

                     22                     23                     24
                      A                      A                      A
 Frequencies --    787.7747               796.8126               892.6922
 Red. masses --      2.3588                 1.9548                 2.1202
 Frc consts  --      0.8625                 0.7313                 0.9955
 IR Inten    --      4.8452                 2.6181                48.2851

                     25                     26                     27
                      A                      A                      A
 Frequencies --    898.6102               924.3909               939.4475
 Red. masses --      1.8128                 2.1542                 1.7445
 Frc consts  --      0.8624                 1.0845                 0.9071
 IR Inten    --     63.5752                18.0001                16.9171

                     28                     29                     30
                      A                      A                      A
 Frequencies --    947.0952               987.1649               993.9400
 Red. masses --      1.7905                 2.2891                 2.4295
 Frc consts  --      0.9463                 1.3143                 1.4141
 IR Inten    --      1.1426                 4.1458                19.7463

                     31                     32                     33
                      A                      A                      A
 Frequencies --   1003.9316              1008.3486              1028.1400
 Red. masses --      2.3269                 2.2451                 1.9077
 Frc consts  --      1.3818                 1.3450                 1.1881
 IR Inten    --     13.2577                25.0807                18.0226

                     34                     35                     36
                      A                      A                      A
 Frequencies --   1068.9026              1079.4250              1107.1496
 Red. masses --      8.1301                 2.1356                 2.4881
 Frc consts  --      5.4730                 1.4661                 1.7969
 IR Inten    --     50.3128                37.4792                15.0157

                     37                     38                     39
                      A                      A                      A
 Frequencies --   1115.6813              1131.9707              1138.9635
 Red. masses --      2.4185                 1.3405                 1.0968
 Frc consts  --      1.7737                 1.0120                 0.8383
 IR Inten    --     19.9865                13.6422                 6.9779

                     40                     41                     42
                      A                      A                      A
 Frequencies --   1140.7146              1172.6444              1195.3408
 Red. masses --      2.3046                 2.9572                 2.4991
 Frc consts  --      1.7669                 2.3958                 2.1039
 IR Inten    --     46.3935               177.6366                60.3078

                     43                     44                     45
                      A                      A                      A
 Frequencies --   1204.5792              1208.6994              1238.9750
 Red. masses --      1.4191                 1.5463                 1.8701
 Frc consts  --      1.2132                 1.3310                 1.6914
 IR Inten    --     14.5643                16.6507                12.6653

                     46                     47                     48
                      A                      A                      A
 Frequencies --   1252.5203              1269.4608              1286.9982
 Red. masses --      1.5781                 1.3287                 1.7787
 Frc consts  --      1.4587                 1.2616                 1.7359
 IR Inten    --      3.5993                12.0012                 1.1085

                     49                     50                     51
                      A                      A                      A
 Frequencies --   1309.4505              1329.4296              1342.2562
 Red. masses --      1.5002                 2.1382                 1.5777
 Frc consts  --      1.5155                 2.2265                 1.6747
 IR Inten    --      3.5845                19.4281                32.4900

                     52                     53                     54
                      A                      A                      A
 Frequencies --   1362.9888              1376.3212              1378.9810
 Red. masses --      1.3576                 1.1645                 1.5828
 Frc consts  --      1.4860                 1.2996                 1.7733
 IR Inten    --      0.2144                11.3157                 1.3383

                     55                     56                     57
                      A                      A                      A
 Frequencies --   1388.0959              1429.9495              1434.9978
 Red. masses --      1.4131                 1.4807                 1.2819
 Frc consts  --      1.6042                 1.7839                 1.5553
 IR Inten    --      0.8821                49.6703                 1.9889

                     58                     59                     60
                      A                      A                      A
 Frequencies --   1445.4905              1455.7292              1475.5083
 Red. masses --      1.4337                 1.5323                 1.1800
 Frc consts  --      1.7650                 1.9132                 1.5136
 IR Inten    --     20.0330                21.6816                 4.8998

                     61                     62                     63
                      A                      A                      A
 Frequencies --   1504.1640              1515.3117              1521.6332
 Red. masses --      1.1033                 1.0517                 1.0918
 Frc consts  --      1.4708                 1.4228                 1.4895
 IR Inten    --      3.7149                17.0833                 3.4964

                     64                     65                     66
                      A                      A                      A
 Frequencies --   1527.3615              1528.0705              1534.8425
 Red. masses --      1.0670                 1.0679                 1.0898
 Frc consts  --      1.4665                 1.4692                 1.5127
 IR Inten    --      2.4422                 0.8219                 3.4249

                     67                     68                     69
                      A                      A                      A
 Frequencies --   1536.1103              1558.7519              1701.0645
 Red. masses --      1.0892                 1.1150                 1.0860
 Frc consts  --      1.5143                 1.5961                 1.8515
 IR Inten    --      3.3111                 7.9123                31.0827

                     70                     71                     72
                      A                      A                      A
 Frequencies --   2932.7725              2958.1302              2958.5534
 Red. masses --      1.0612                 1.0705                 1.0796
 Frc consts  --      5.3779                 5.5191                 5.5678
 IR Inten    --     79.1833                55.3681                26.3799

                     73                     74                     75
                      A                      A                      A
 Frequencies --   2970.6901              2981.2629              2983.7469
 Red. masses --      1.0711                 1.0698                 1.0731
 Frc consts  --      5.5695                 5.6023                 5.6288
 IR Inten    --     21.0763               125.8177                66.6429

                     76                     77                     78
                      A                      A                      A
 Frequencies --   3007.4121              3059.0196              3068.6947
 Red. masses --      1.0700                 1.0931                 1.0643
 Frc consts  --      5.7019                 6.0264                 5.9051
 IR Inten    --     55.6515                46.9942                12.0295

                     79                     80                     81
                      A                      A                      A
 Frequencies --   3074.4678              3084.0131              3091.7561
 Red. masses --      1.0705                 1.0892                 1.0940
 Frc consts  --      5.9620                 6.1035                 6.1614
 IR Inten    --     49.0194                50.5808                28.8575

                     82                     83                     84
                      A                      A                      A
 Frequencies --   3109.9012              3117.5727              3120.1685
 Red. masses --      1.0929                 1.1041                 1.1046
 Frc consts  --      6.2279                 6.3227                 6.3357
 IR Inten    --     38.8884                23.8946                30.8256

                     85                     86                     87
                      A                      A                      A
 Frequencies --   3125.7763              3464.7809              3546.9667
 Red. masses --      1.0931                 1.0501                 1.0918
 Frc consts  --      6.2923                 7.4274                 8.0931
 IR Inten    --     19.9571                 2.5454                 0.6421

 - Thermochemistry -
 -------------------
 Temperature   298.150 Kelvin.  Pressure   1.00000 Atm.
 Atom     1 has atomic number  6 and mass  12.00000

 Molecular mass:   186.13683 amu.
 Principal axes and moments of inertia in atomic units:
                           1         2         3
     Eigenvalues --   840.144484745.222404940.58939
           X            0.99998   0.00633   0.00100
           Y           -0.00631   0.99988  -0.01387
           Z           -0.00109   0.01386   0.99990
 This molecule is an asymmetric top.
 Rotational symmetry number  1.
 Warning -- assumption of classical behavior for rotation
           may cause significant error
 Rotational temperatures (Kelvin)      0.10309     0.01825     0.01753
 Rotational constants (GHZ):           2.14813     0.38033     0.36529
 Zero-point vibrational energy     729416.4 (Joules/Mol)
                                  174.33469 (Kcal/Mol)
 Warning -- explicit consideration of  20 degrees of freedom as
           vibrations may cause significant error
 Vibrational temperatures:     62.56    79.38   122.73   155.52   249.42
          (Kelvin)            285.88   307.62   348.13   384.95   424.31
                              441.52   475.22   497.01   531.05   610.10
                              648.66   728.19   742.25   820.33   869.02
                             1023.30  1133.43  1146.44  1284.39  1292.90
                             1329.99  1351.66  1362.66  1420.31  1430.06
                             1444.43  1450.79  1479.26  1537.91  1553.05
                             1592.94  1605.22  1628.65  1638.71  1641.23
                             1687.17  1719.83  1733.12  1739.05  1782.61
                             1802.10  1826.47  1851.70  1884.01  1912.75
                             1931.21  1961.04  1980.22  1984.05  1997.16
                             2057.38  2064.64  2079.74  2094.47  2122.93
                             2164.16  2180.20  2189.29  2197.53  2198.55
                             2208.30  2210.12  2242.70  2447.45  4219.61
                             4256.09  4256.70  4274.16  4289.37  4292.95
                             4327.00  4401.25  4415.17  4423.47  4437.21
                             4448.35  4474.45  4485.49  4489.23  4497.29
                             4985.05  5103.29

 Zero-point correction=                           0.277820 (Hartree/Particle)
 Thermal correction to Energy=                    0.290840
 Thermal correction to Enthalpy=                  0.291784
 Thermal correction to Gibbs Free Energy=         0.238210
 Sum of electronic and zero-point Energies=           -613.457427
 Sum of electronic and thermal Energies=              -613.444407
 Sum of electronic and thermal Enthalpies=            -613.443463
 Sum of electronic and thermal Free Energies=         -613.497037

                     E (Thermal)             CV                S
                      KCal/Mol        Cal/Mol-Kelvin    Cal/Mol-Kelvin
 Total                  182.505             49.953            112.757
 Electronic               0.000              0.000              0.000
 Translational            0.889              2.981             41.570
 Rotational               0.889              2.981             31.355
 Vibrational            180.727             43.992             39.832
 Vibration     1          0.595              1.980              5.094
 Vibration     2          0.596              1.976              4.623
 Vibration     3          0.601              1.959              3.765
 Vibration     4          0.606              1.943              3.303
 Vibration     5          0.627              1.875              2.399
 Vibration     6          0.637              1.842              2.145
 Vibration     7          0.644              1.820              2.011
 Vibration     8          0.658              1.776              1.788
 Vibration     9          0.673              1.733              1.612
 Vibration    10          0.689              1.683              1.446
 Vibration    11          0.697              1.661              1.379
 Vibration    12          0.713              1.615              1.259
 Vibration    13          0.724              1.585              1.187
 Vibration    14          0.741              1.536              1.084
 Vibration    15          0.786              1.418              0.878
 Vibration    16          0.810              1.359              0.793
 Vibration    17          0.861              1.236              0.643
 Vibration    18          0.871              1.215              0.620
 Vibration    19          0.926              1.096              0.504
 Vibration    20          0.962              1.023              0.443

 Optimization completed.
    -- Stationary point found.
 Normal termination of Gaussian 16 at Wed Dec  9 23:25:17 2020.

 ----------------------------------------------------------------------
 # B3LYP/6-311++G(d,p) empiricaldispersion=gd3bj scf=xqc pop=npa geom=c
 heck
 ----------------------------------------------------------------------

 --------------------------------------
 CID_82655601_JID_3442_Energie_neutraal
 --------------------------------------
 Structure from the checkpoint file:  "JID_3442.chk"
 Charge =  0 Multiplicity = 1

 SCF Done:  E(RB3LYP) =  -613.917142161     A.U. after   14 cycles
 Normal termination of Gaussian 16 at Wed Dec  9 23:28:57 2020.

 ----------------------------------------------------------------------
 # B3LYP/6-311++G(d,p) empiricaldispersion=gd3bj scf=xqc pop=npa geom=c
 heck
 ----------------------------------------------------------------------

 ------------------------------------
 CID_82655601_JID_3442_Energie_kation
 ------------------------------------
 Structure from the checkpoint file:  "JID_3442.chk"
 Charge =  1 Multiplicity = 2

 SCF Done:  E(UB3LYP) =  -613.622246425     A.U. after   24 cycles
 Normal termination of Gaussian 16 at Wed Dec  9 23:38:01 2020.
 Gaussian 16:  ES64L-G16RevA.03 25-Dec-2016

 ----------------------------------------------------------------------
 # B3LYP/6-311++G(d,p) empiricaldispersion=gd3bj scf=xqc pop=npa geom=c
 heck
 ----------------------------------------------------------------------

 -----------------------------------
 CID_82655601_JID_3442_Energie_anion
 -----------------------------------
 Structure from the checkpoint file:  "JID_3442.chk"
 Charge = -1 Multiplicity = 2

                         Standard orientation:
 ---------------------------------------------------------------------
 Center     Atomic      Atomic             Coordinates (Angstroms)
 Number     Number       Type             X           Y           Z
 ---------------------------------------------------------------------
      1          6           0        4.426332   -0.382308   -0.656001
      2          7           0        3.065108   -0.672462   -0.265218
      3          6           0        1.970934    0.046290   -0.951056
      4          6           0        1.222454    0.124345    0.401132
      5          6           0        2.595821   -0.178562    1.043626
      6          6           0        0.205070   -1.000851    0.570719
      7          8           0       -0.963114   -0.729690   -0.198570
      8          6           0       -1.541348    0.514309    0.162785
      9          8           0       -0.645874    1.587169   -0.041009
     10          6           0        0.535817    1.437794    0.740731
     11          6           0       -2.769288    0.754308   -0.695486
     12          6           0       -3.717779   -0.446673   -0.742050
     13          7           0       -4.068873   -0.893257    0.614534
     14          1           0        4.594570   -0.724276   -1.683255
     15          1           0        5.122220   -0.919925   -0.001998
     16          1           0        4.671098    0.697530   -0.607642
     17          1           0        1.489608   -0.503019   -1.767402
     18          1           0        2.264585    1.046540   -1.313295
     19          1           0        3.104715    0.745752    1.373128
     20          1           0        2.635974   -0.912445    1.859147
     21          1           0       -0.063601   -1.103916    1.636858
     22          1           0        0.606897   -1.953498    0.217124
     23          1           0       -1.803925    0.472782    1.235598
     24          1           0        0.284820    1.466438    1.815881
     25          1           0        1.170925    2.298623    0.513338
     26          1           0       -3.286888    1.629306   -0.289298
     27          1           0       -2.429110    0.999800   -1.707923
     28          1           0       -4.640474   -0.137353   -1.245989
     29          1           0       -3.261290   -1.236826   -1.357583
     30          1           0       -4.845918   -1.549743    0.562537
     31          1           0       -3.284019   -1.427471    0.985803
 ---------------------------------------------------------------------

 SCF Done:  E(UB3LYP) =  -613.902188386     A.U. after   29 cycles

 The electronic state is 2-A.
 Alpha  occ. eigenvalues --  -19.03913 -19.03720 -14.20889 -14.19404 -10.17309
 Alpha  occ. eigenvalues --  -10.12717 -10.12349 -10.10134 -10.09667 -10.09610
 Alpha  occ. eigenvalues --  -10.09156 -10.08926 -10.07256  -0.98766  -0.91897
 Alpha  occ. eigenvalues --   -0.85253  -0.78608  -0.71526  -0.66615  -0.61479
 Alpha  occ. eigenvalues --   -0.59077  -0.58738  -0.56001  -0.50505  -0.49032
 Alpha  occ. eigenvalues --   -0.45337  -0.42532  -0.41098  -0.40127  -0.39209
 Alpha  occ. eigenvalues --   -0.38554  -0.37365  -0.36016  -0.34410  -0.33755
 Alpha  occ. eigenvalues --   -0.32131  -0.31320  -0.30577  -0.30363  -0.28870
 Alpha  occ. eigenvalues --   -0.27405  -0.26828  -0.25659  -0.25127  -0.23086
 Alpha  occ. eigenvalues --   -0.22666  -0.21977  -0.18475  -0.17543  -0.14839
 Alpha  occ. eigenvalues --   -0.12754   0.04334
 Alpha virt. eigenvalues --    0.05784   0.07135   0.07706   0.08387   0.08631
 Alpha virt. eigenvalues --    0.09142   0.10084   0.10412   0.10646   0.11128
 Alpha virt. eigenvalues --    0.11463   0.12145   0.12603   0.13243   0.14026

  Beta  occ. eigenvalues --  -19.03907 -19.03714 -14.20880 -14.19364 -10.17302
  Beta  occ. eigenvalues --  -10.12701 -10.12330 -10.10108 -10.09654 -10.09594
  Beta  occ. eigenvalues --  -10.09154 -10.08889 -10.07254  -0.98756  -0.91886
  Beta  occ. eigenvalues --   -0.85235  -0.78547  -0.71505  -0.66584  -0.61434
  Beta  occ. eigenvalues --   -0.59042  -0.58693  -0.55956  -0.50447  -0.48991
  Beta  occ. eigenvalues --   -0.45288  -0.42506  -0.41054  -0.40097  -0.39171
  Beta  occ. eigenvalues --   -0.38513  -0.37334  -0.35978  -0.34369  -0.33722
  Beta  occ. eigenvalues --   -0.32101  -0.31295  -0.30548  -0.30332  -0.28842
  Beta  occ. eigenvalues --   -0.27382  -0.26805  -0.25630  -0.25100  -0.23059
  Beta  occ. eigenvalues --   -0.22641  -0.21950  -0.18450  -0.17529  -0.14799
  Beta  occ. eigenvalues --   -0.12699
  Beta virt. eigenvalues --    0.06518   0.06913   0.07815   0.08209   0.08947
  Beta virt. eigenvalues --    0.09110   0.09441   0.10436   0.10771   0.11120
  Beta virt. eigenvalues --    0.11344   0.11822   0.12392   0.12978   0.13536

 Mulliken charges and spin densities:
               1          2
     1  C    1.024085  -1.333739
     2  N   -0.141583   0.206020
     3  C    0.447776  -0.692607
     4  C   -2.034585   2.441503
     5  C    0.820513  -1.363465
     6  C    1.339736  -1.912585
     7  O   -0.034080   0.045225
     8  C   -0.496461  -0.162127
     9  O   -0.024639   0.012632
    10  C    0.003400  -0.363344
    11  C   -0.410746   0.517744
    12  C    0.558039  -1.103650
    13  N   -0.345274  -0.014992
    14  H   -0.235497   0.369577
    15  H   -0.372266   0.511227
    16  H   -0.283408   0.395865
    17  H    0.106078   0.091993
    18  H   -0.032122   0.153989
    19  H   -0.155832   0.284595
    20  H   -0.341127   0.539116
    21  H   -0.183611   0.362033
    22  H   -0.030203   0.215145
    23  H    0.100673   0.076761
    24  H   -0.121967   0.277952
    25  H   -0.057197   0.237672
    26  H    0.102695   0.059337
    27  H    0.108728   0.036891
    28  H   -0.145268   0.303208
    29  H    0.023306   0.137812
    30  H   -0.258541   0.504055
    31  H    0.069380   0.166156
 Sum of Mulliken charges =  -1.00000   1.00000

 Dipole moment (field-independent basis, Debye):
    X=             -1.5874    Y=              2.2555    Z=             -2.0307  Tot=              3.4251
 Quadrupole moment (field-independent basis, Debye-Ang):
   XX=           -184.6443   YY=           -117.4052   ZZ=           -114.7085
   XY=             -7.7340   XZ=              3.7711   YZ=              2.0577

 Summary of Natural Population Analysis:

                                       Natural Population
                Natural  -----------------------------------------------
    Atom  No    Charge         Core      Valence    Rydberg      Total
 -----------------------------------------------------------------------
      C    1   -0.17532      0.99965     2.16696    0.00871     3.17532
      N    2   -0.28073      0.99973     2.76748    0.01352     3.78073
      C    3   -0.07110      0.99959     2.05983    0.01168     3.07110
      C    4   -0.07792      0.99953     2.06324    0.01516     3.07792
      C    5   -0.07276      0.99959     2.06109    0.01208     3.07276
      C    6   -0.00690      0.99950     1.99283    0.01457     3.00690
      O    7   -0.30550      0.99988     3.29702    0.00861     4.30550
      C    8    0.21574      0.99957     1.76494    0.01975     2.78426
      O    9   -0.29999      0.99988     3.29203    0.00808     4.29999
      C   10   -0.00683      0.99950     1.99340    0.01394     3.00683
      C   11   -0.20227      0.99959     2.19349    0.00919     3.20227
      C   12   -0.08961      0.99964     2.07769    0.01229     3.08961
      N   13   -0.42716      0.99977     2.91640    0.01099     3.92716
      H   14    0.09530      0.00000     0.40342    0.00128     0.40470
      H   15    0.09690      0.00000     0.40158    0.00152     0.40310
      H   16    0.08000      0.00000     0.41790    0.00210     0.42000
      H   17    0.09603      0.00000     0.40246    0.00151     0.40397
      H   18    0.08521      0.00000     0.41347    0.00132     0.41479
      H   19    0.08695      0.00000     0.41109    0.00196     0.41305
      H   20    0.09592      0.00000     0.40217    0.00191     0.40408
      H   21    0.08263      0.00000     0.41553    0.00184     0.41737
      H   22    0.09970      0.00000     0.39850    0.00180     0.40030
      H   23    0.07047      0.00000     0.42769    0.00183     0.42953
      H   24    0.08263      0.00000     0.41587    0.00150     0.41737
      H   25    0.09554      0.00000     0.40298    0.00148     0.40446
      H   26    0.10233      0.00000     0.39649    0.00118     0.39767
      H   27    0.10379      0.00000     0.39492    0.00129     0.39621
      H   28    0.08934      0.00000     0.40959    0.00107     0.41066
      H   29    0.08504      0.00000     0.41320    0.00176     0.41496
      H   30    0.17690      0.00000     0.32009    0.00301     0.32310
      H   31    0.17568      0.00000     0.32185    0.00247     0.32432
 =======================================================================
   * Total *   -0.00000     12.99542    37.81519    0.18939    51.00000

 Normal termination of Gaussian 16 at Wed Dec  9 23:48:42 2020.
