 Gaussian 16, Revision A.03,

 -----------------------------------------------------------
 # opt freq B3LYP/6-31G(d) empiricaldispersion=gd3bj scf=xqc
 -----------------------------------------------------------

 -------------------------------
 CID_149944019_JID_7963_neutraal
 -------------------------------
 Symbolic Z-matrix:
 Charge =  0 Multiplicity = 1

 SCF Done:  E(RB3LYP) =  -819.162310000     A.U. after   17 cycles
 SCF Done:  E(RB3LYP) =  -819.178235223     A.U. after   13 cycles
 SCF Done:  E(RB3LYP) =  -819.180467124     A.U. after   15 cycles
 SCF Done:  E(RB3LYP) =  -819.181311769     A.U. after   13 cycles
 SCF Done:  E(RB3LYP) =  -819.181665242     A.U. after   12 cycles
 SCF Done:  E(RB3LYP) =  -819.181652829     A.U. after   13 cycles
 SCF Done:  E(RB3LYP) =  -819.181835343     A.U. after   12 cycles
 SCF Done:  E(RB3LYP) =  -819.181889778     A.U. after   11 cycles
 SCF Done:  E(RB3LYP) =  -819.181973893     A.U. after   12 cycles
 SCF Done:  E(RB3LYP) =  -819.181993218     A.U. after   13 cycles
 SCF Done:  E(RB3LYP) =  -819.184494909     A.U. after   10 cycles
 SCF Done:  E(RB3LYP) =  -819.184496425     A.U. after   10 cycles
 SCF Done:  E(RB3LYP) =  -819.184497180     A.U. after   10 cycles
 SCF Done:  E(RB3LYP) =  -819.184497374     A.U. after    8 cycles
 SCF Done:  E(RB3LYP) =  -819.184497414     A.U. after    7 cycles
 Optimization completed.
    -- Stationary point found.
 Normal termination of Gaussian 16 at Fri Dec 11 13:42:12 2020.

 --------------------------------------------------------------------
 #N Geom=AllCheck Guess=TCheck SCRF=Check GenChk RB3LYP/6-31G(d) Freq
 --------------------------------------------------------------------

 Structure from the checkpoint file:  "JID_7963.chk"
 -------------------------------
 CID_149944019_JID_7963_neutraal
 -------------------------------
 Charge =  0 Multiplicity = 1

 SCF Done:  E(RB3LYP) =  -819.184497414     A.U. after    1 cycles

  Exact polarizability: 205.207  -4.287 135.674   2.263  -1.714 114.766
 Approx polarizability: 284.938  -9.707 182.893   2.521  -3.096 194.691

                      1                      2                      3
                      A                      A                      A
 Frequencies --     13.5971                37.6407                42.2908
 Red. masses --      3.2047                 3.1914                 7.8805
 Frc consts  --      0.0003                 0.0027                 0.0083
 IR Inten    --      0.1123                 0.5690                 0.0652

                      4                      5                      6
                      A                      A                      A
 Frequencies --     56.7609                60.2302                83.0039
 Red. masses --      5.1781                 3.8536                 2.6635
 Frc consts  --      0.0098                 0.0082                 0.0108
 IR Inten    --      0.2330                 0.4081                 1.3145

                      7                      8                      9
                      A                      A                      A
 Frequencies --     89.4985                95.4859               106.9813
 Red. masses --      2.7306                 2.3892                 1.7897
 Frc consts  --      0.0129                 0.0128                 0.0121
 IR Inten    --      0.6365                 0.1870                 0.5087

                     10                     11                     12
                      A                      A                      A
 Frequencies --    135.4028               161.0385               175.5722
 Red. masses --      1.9467                 2.8365                 2.9881
 Frc consts  --      0.0210                 0.0433                 0.0543
 IR Inten    --      0.1300                 1.4218                 1.0099

                     13                     14                     15
                      A                      A                      A
 Frequencies --    195.4806               210.9079               214.3424
 Red. masses --      2.6770                 1.4452                 1.6458
 Frc consts  --      0.0603                 0.0379                 0.0445
 IR Inten    --      0.5115                 0.0965                 1.0232

                     16                     17                     18
                      A                      A                      A
 Frequencies --    216.7021               237.7014               281.9741
 Red. masses --      4.0399                 1.4266                 2.8453
 Frc consts  --      0.1118                 0.0475                 0.1333
 IR Inten    --      1.5925                 0.9697                 0.4659

                     19                     20                     21
                      A                      A                      A
 Frequencies --    289.5278               313.4491               322.9943
 Red. masses --      3.6138                 3.1680                 4.3129
 Frc consts  --      0.1785                 0.1834                 0.2651
 IR Inten    --      4.1533                 2.6423                 0.5764

                     22                     23                     24
                      A                      A                      A
 Frequencies --    353.7683               370.4645               398.9579
 Red. masses --      3.4976                 4.7803                 4.4906
 Frc consts  --      0.2579                 0.3865                 0.4211
 IR Inten    --      1.7313                 3.3572                 1.3595

                     25                     26                     27
                      A                      A                      A
 Frequencies --    446.7813               464.7721               515.1808
 Red. masses --      3.7836                 4.6095                 4.8937
 Frc consts  --      0.4450                 0.5867                 0.7653
 IR Inten    --      0.1059                 1.8699                 4.4154

                     28                     29                     30
                      A                      A                      A
 Frequencies --    536.3018               572.3257               653.4281
 Red. masses --      9.6091                 4.7895                 8.0504
 Frc consts  --      1.6284                 0.9243                 2.0252
 IR Inten    --     10.9816                 0.8909                 4.9396

                     31                     32                     33
                      A                      A                      A
 Frequencies --    730.6025               755.0689               794.6991
 Red. masses --      4.2238                 7.1960                 1.2286
 Frc consts  --      1.3284                 2.4172                 0.4572
 IR Inten    --      0.0565                 3.5521                 5.7545

                     34                     35                     36
                      A                      A                      A
 Frequencies --    796.8364               809.7209               813.3539
 Red. masses --      2.8493                 2.0518                 2.1397
 Frc consts  --      1.0659                 0.7926                 0.8340
 IR Inten    --      8.3567                11.6444                12.4586

                     37                     38                     39
                      A                      A                      A
 Frequencies --    835.5278               909.4842               929.4711
 Red. masses --      1.8653                 8.7285                 1.9249
 Frc consts  --      0.7672                 4.2538                 0.9798
 IR Inten    --      1.6021                78.4075                 6.5885

                     40                     41                     42
                      A                      A                      A
 Frequencies --    953.1888               963.4538               964.9698
 Red. masses --      1.5288                 1.3097                 1.3735
 Frc consts  --      0.8184                 0.7163                 0.7535
 IR Inten    --      8.8981                25.2426                13.3102

                     43                     44                     45
                      A                      A                      A
 Frequencies --    975.0222              1006.6973              1015.1121
 Red. masses --      1.0997                 1.0807                 6.5160
 Frc consts  --      0.6160                 0.6453                 3.9560
 IR Inten    --     30.1866                27.9845               349.9188

                     46                     47                     48
                      A                      A                      A
 Frequencies --   1025.9575              1076.0187              1079.9067
 Red. masses --      2.0852                 1.4967                 2.9470
 Frc consts  --      1.2932                 1.0210                 2.0249
 IR Inten    --      6.0414                 2.6914                46.0131

                     49                     50                     51
                      A                      A                      A
 Frequencies --   1085.0091              1100.0930              1137.1186
 Red. masses --      1.5775                 1.8865                 3.2910
 Frc consts  --      1.0942                 1.3451                 2.5072
 IR Inten    --      1.4313                58.8534                97.1569

                     52                     53                     54
                      A                      A                      A
 Frequencies --   1140.3867              1154.9249              1166.0000
 Red. masses --      3.7865                 7.3689                 3.0040
 Frc consts  --      2.9013                 5.7911                 2.4063
 IR Inten    --    171.7300                58.9437               162.8173

                     55                     56                     57
                      A                      A                      A
 Frequencies --   1182.3093              1201.3673              1253.1161
 Red. masses --      3.1285                 3.5674                 2.9412
 Frc consts  --      2.5766                 3.0336                 2.7212
 IR Inten    --    130.8481               110.8096               419.3757

                     58                     59                     60
                      A                      A                      A
 Frequencies --   1291.6079              1316.9512              1338.4601
 Red. masses --      1.2988                 1.2177                 1.7919
 Frc consts  --      1.2766                 1.2443                 1.8913
 IR Inten    --      4.6534                19.5456               114.5258

                     61                     62                     63
                      A                      A                      A
 Frequencies --   1339.6181              1345.7644              1365.0085
 Red. masses --      1.3158                 1.2764                 1.2810
 Frc consts  --      1.3912                 1.3620                 1.4063
 IR Inten    --      9.6660                 1.0131                 0.7173

                     64                     65                     66
                      A                      A                      A
 Frequencies --   1390.1184              1392.8027              1435.7339
 Red. masses --      1.2212                 1.3892                 1.2275
 Frc consts  --      1.3904                 1.5878                 1.4908
 IR Inten    --     13.0650                 0.2525                 0.9629

                     67                     68                     69
                      A                      A                      A
 Frequencies --   1441.1133              1448.4882              1508.3893
 Red. masses --      1.2560                 1.2596                 1.0449
 Frc consts  --      1.5369                 1.5571                 1.4007
 IR Inten    --      3.0505                 0.7874                 6.3289

                     70                     71                     72
                      A                      A                      A
 Frequencies --   1509.6485              1513.4973              1517.3629
 Red. masses --      1.0448                 1.0709                 1.0580
 Frc consts  --      1.4029                 1.4453                 1.4352
 IR Inten    --      4.8558                 2.6769                17.8205

                     73                     74                     75
                      A                      A                      A
 Frequencies --   1526.5929              1527.8632              1537.4901
 Red. masses --      1.0414                 1.0542                 1.0694
 Frc consts  --      1.4299                 1.4499                 1.4894
 IR Inten    --      7.4701                 3.6077                 3.2470

                     76                     77                     78
                      A                      A                      A
 Frequencies --   1748.4198              1759.7283              1769.5888
 Red. masses --      5.5488                 5.9330                 5.9800
 Frc consts  --      9.9941                10.8248                11.0330
 IR Inten    --     65.0280                74.5555                52.2007

                     79                     80                     81
                      A                      A                      A
 Frequencies --   2192.5086              3024.9176              3031.2384
 Red. masses --     13.9949                 1.0646                 1.0367
 Frc consts  --     39.6371                 5.7396                 5.6122
 IR Inten    --    361.0418                43.5966                42.8070

                     82                     83                     84
                      A                      A                      A
 Frequencies --   3038.8651              3046.4898              3068.0424
 Red. masses --      1.0373                 1.0350                 1.0976
 Frc consts  --      5.6439                 5.6597                 6.0870
 IR Inten    --     22.7587                35.5243                13.4900

                     85                     86                     87
                      A                      A                      A
 Frequencies --   3077.6669              3088.5224              3111.3471
 Red. masses --      1.1009                 1.0998                 1.1006
 Frc consts  --      6.1438                 6.1812                 6.2771
 IR Inten    --     26.6254                14.6323                20.3332

                     88                     89                     90
                      A                      A                      A
 Frequencies --   3113.2929              3122.1148              3127.0931
 Red. masses --      1.1023                 1.1033                 1.1008
 Frc consts  --      6.2948                 6.3366                 6.3423
 IR Inten    --     44.8178                44.1575                14.3276

                     91                     92                     93
                      A                      A                      A
 Frequencies --   3169.4217              3180.7107              3194.2517
 Red. masses --      1.0896                 1.0910                 1.0891
 Frc consts  --      6.4485                 6.5030                 6.5473
 IR Inten    --     13.3007                 5.8722                 6.3594

                     94                     95                     96
                      A                      A                      A
 Frequencies --   3210.5306              3223.4748              3233.2761
 Red. masses --      1.0936                 1.0886                 1.0932
 Frc consts  --      6.6412                 6.6646                 6.7336
 IR Inten    --     13.9869                 9.9820                10.2804

 - Thermochemistry -
 -------------------
 Temperature   298.150 Kelvin.  Pressure   1.00000 Atm.
 Atom     1 has atomic number  6 and mass  12.00000

 Molecular mass:   239.12699 amu.
 Principal axes and moments of inertia in atomic units:
                           1         2         3
     Eigenvalues --  2855.111456319.566928149.53106
           X            0.99939   0.03382  -0.00922
           Y           -0.03380   0.99943   0.00237
           Z            0.00929  -0.00206   0.99995
 This molecule is an asymmetric top.
 Rotational symmetry number  1.
 Warning -- assumption of classical behavior for rotation
           may cause significant error
 Rotational temperatures (Kelvin)      0.03034     0.01371     0.01063
 Rotational constants (GHZ):           0.63211     0.28558     0.22145
 Zero-point vibrational energy     722460.7 (Joules/Mol)
                                  172.67225 (Kcal/Mol)
 Warning -- explicit consideration of  29 degrees of freedom as
           vibrations may cause significant error
 Vibrational temperatures:     19.56    54.16    60.85    81.67    86.66
          (Kelvin)            119.42   128.77   137.38   153.92   194.81
                              231.70   252.61   281.25   303.45   308.39
                              311.79   342.00   405.70   416.57   450.98
                              464.72   508.99   533.02   574.01   642.82
                              668.70   741.23   771.62   823.45   940.14
                             1051.17  1086.38  1143.39  1146.47  1165.01
                             1170.23  1202.14  1308.54  1337.30  1371.43
                             1386.20  1388.38  1402.84  1448.41  1460.52
                             1476.12  1548.15  1553.74  1561.09  1582.79
                             1636.06  1640.76  1661.68  1677.61  1701.08
                             1728.50  1802.95  1858.34  1894.80  1925.75
                             1927.41  1936.25  1963.94  2000.07  2003.93
                             2065.70  2073.44  2084.05  2170.24  2172.05
                             2177.59  2183.15  2196.43  2198.25  2212.11
                             2515.59  2531.86  2546.04  3154.53  4352.18
                             4361.28  4372.25  4383.22  4414.23  4428.08
                             4443.69  4476.53  4479.33  4492.03  4499.19
                             4560.09  4576.33  4595.82  4619.24  4637.86
                             4651.96

 Zero-point correction=                           0.275171 (Hartree/Particle)
 Thermal correction to Energy=                    0.295062
 Thermal correction to Enthalpy=                  0.296006
 Thermal correction to Gibbs Free Energy=         0.224452
 Sum of electronic and zero-point Energies=           -818.909327
 Sum of electronic and thermal Energies=              -818.889435
 Sum of electronic and thermal Enthalpies=            -818.888491
 Sum of electronic and thermal Free Energies=         -818.960045

                     E (Thermal)             CV                S
                      KCal/Mol        Cal/Mol-Kelvin    Cal/Mol-Kelvin
 Total                  185.154             69.763            150.598
 Electronic               0.000              0.000              0.000
 Translational            0.889              2.981             42.317
 Rotational               0.889              2.981             33.352
 Vibrational            183.377             63.801             74.929
 Vibration     1          0.593              1.986              7.401
 Vibration     2          0.594              1.982              5.380
 Vibration     3          0.595              1.980              5.149
 Vibration     4          0.596              1.975              4.567
 Vibration     5          0.597              1.973              4.450
 Vibration     6          0.600              1.961              3.819
 Vibration     7          0.602              1.957              3.671
 Vibration     8          0.603              1.952              3.544
 Vibration     9          0.606              1.944              3.323
 Vibration    10          0.613              1.918              2.868
 Vibration    11          0.622              1.890              2.538
 Vibration    12          0.628              1.872              2.375
 Vibration    13          0.636              1.846              2.175
 Vibration    14          0.643              1.824              2.036
 Vibration    15          0.644              1.819              2.006
 Vibration    16          0.646              1.816              1.986
 Vibration    17          0.656              1.783              1.820
 Vibration    18          0.681              1.707              1.522
 Vibration    19          0.686              1.693              1.477
 Vibration    20          0.701              1.648              1.344
 Vibration    21          0.708              1.629              1.295
 Vibration    22          0.730              1.568              1.149
 Vibration    23          0.742              1.533              1.078
 Vibration    24          0.765              1.472              0.966
 Vibration    25          0.806              1.368              0.806
 Vibration    26          0.822              1.328              0.752
 Vibration    27          0.870              1.216              0.621
 Vibration    28          0.891              1.170              0.573
 Vibration    29          0.929              1.091              0.500

 Optimization completed.
    -- Stationary point found.
 Normal termination of Gaussian 16 at Fri Dec 11 13:53:06 2020.

 ----------------------------------------------------------------------
 # B3LYP/6-311++G(d,p) empiricaldispersion=gd3bj scf=xqc pop=npa geom=c
 heck
 ----------------------------------------------------------------------

 ---------------------------------------
 CID_149944019_JID_7963_Energie_neutraal
 ---------------------------------------
 Structure from the checkpoint file:  "JID_7963.chk"
 Charge =  0 Multiplicity = 1

 SCF Done:  E(RB3LYP) =  -819.417031141     A.U. after   17 cycles
 Normal termination of Gaussian 16 at Fri Dec 11 13:59:16 2020.

 ----------------------------------------------------------------------
 # B3LYP/6-311++G(d,p) empiricaldispersion=gd3bj scf=xqc pop=npa geom=c
 heck
 ----------------------------------------------------------------------

 -------------------------------------
 CID_149944019_JID_7963_Energie_kation
 -------------------------------------
 Structure from the checkpoint file:  "JID_7963.chk"
 Charge =  1 Multiplicity = 2

 SCF Done:  E(UB3LYP) =  -819.123829334     A.U. after   28 cycles
 Normal termination of Gaussian 16 at Fri Dec 11 14:13:38 2020.
 Gaussian 16:  ES64L-G16RevA.03 25-Dec-2016

 ----------------------------------------------------------------------
 # B3LYP/6-311++G(d,p) empiricaldispersion=gd3bj scf=xqc pop=npa geom=c
 heck
 ----------------------------------------------------------------------

 ------------------------------------
 CID_149944019_JID_7963_Energie_anion
 ------------------------------------
 Structure from the checkpoint file:  "JID_7963.chk"
 Charge = -1 Multiplicity = 2

                         Standard orientation:
 ---------------------------------------------------------------------
 Center     Atomic      Atomic             Coordinates (Angstroms)
 Number     Number       Type             X           Y           Z
 ---------------------------------------------------------------------
      1          6           0       -5.213615   -0.575154   -0.037755
      2          6           0       -4.126104   -1.640152   -0.250060
      3          6           0       -2.880157   -1.067854   -0.863642
      4          6           0       -1.703643   -1.052109   -0.245762
      5          8           0       -0.594755   -0.499068   -0.868362
      6          6           0        0.527826   -0.290811   -0.075747
      7          6           0        1.560807    0.409348   -0.909688
      8          6           0        2.507295    1.199268   -0.403607
      9          6           0        3.604218    1.832701   -1.201822
     10          8           0        0.245348    0.318286    1.155569
     11          6           0       -0.347748    1.563406    1.206805
     12          6           0       -0.851842    2.297438    0.215527
     13          6           0       -1.477169    3.640963    0.456435
     14          8           0        0.959622   -1.630304    0.265060
     15          7           0        2.080961   -1.606659    1.165949
     16          7           0        3.113606   -1.873660    0.495792
     17          7           0        4.132886   -2.130341    0.055168
     18          1           0       -4.858515    0.209148    0.639509
     19          1           0       -6.121414   -1.015983    0.389543
     20          1           0       -5.486214   -0.097235   -0.986220
     21          1           0       -3.880870   -2.113682    0.709057
     22          1           0       -4.526082   -2.436213   -0.894591
     23          1           0       -2.957426   -0.622420   -1.854543
     24          1           0       -1.525062   -1.458973    0.742988
     25          1           0        1.522007    0.163722   -1.967798
     26          1           0        2.496676    1.402977    0.665618
     27          1           0        3.587576    2.924732   -1.093064
     28          1           0        4.586390    1.494763   -0.845839
     29          1           0        3.523663    1.589719   -2.265858
     30          1           0       -0.368587    1.890015    2.242004
     31          1           0       -0.827949    1.930670   -0.804677
     32          1           0       -0.954777    4.431548   -0.098647
     33          1           0       -2.523373    3.657837    0.123610
     34          1           0       -1.459153    3.910411    1.518300
 ---------------------------------------------------------------------

 SCF Done:  E(UB3LYP) =  -819.425305962     A.U. after   33 cycles
 SCF Done:  E(UB3LYP) =  -819.425305962     a.u. after    1 cycles

 The electronic state is 2-A.
 Alpha  occ. eigenvalues --  -19.05284 -19.05168 -19.02027 -14.27156 -14.22465
 Alpha  occ. eigenvalues --  -14.19282 -10.22393 -10.12469 -10.11955 -10.08253
 Alpha  occ. eigenvalues --  -10.07908 -10.07614 -10.07482 -10.07035 -10.06691
 Alpha  occ. eigenvalues --  -10.06613 -10.06331  -1.02155  -0.97135  -0.94257
 Alpha  occ. eigenvalues --   -0.90360  -0.76025  -0.70983  -0.69934  -0.69210
 Alpha  occ. eigenvalues --   -0.64944  -0.61439  -0.59524  -0.55493  -0.52625
 Alpha  occ. eigenvalues --   -0.49865  -0.47533  -0.45326  -0.43533  -0.42457
 Alpha  occ. eigenvalues --   -0.40800  -0.37336  -0.36468  -0.34937  -0.34641
 Alpha  occ. eigenvalues --   -0.33992  -0.33349  -0.32765  -0.32176  -0.32046
 Alpha  occ. eigenvalues --   -0.31057  -0.30361  -0.29663  -0.29110  -0.28634
 Alpha  occ. eigenvalues --   -0.28231  -0.27567  -0.26791  -0.26192  -0.26034
 Alpha  occ. eigenvalues --   -0.25151  -0.24487  -0.22844  -0.20883  -0.16637
 Alpha  occ. eigenvalues --   -0.14174  -0.13368  -0.12977  -0.08994   0.04471
 Alpha virt. eigenvalues --    0.05661   0.06485   0.07611   0.08206   0.08883
 Alpha virt. eigenvalues --    0.09271   0.09583   0.09830   0.10572   0.10657
 Alpha virt. eigenvalues --    0.11089   0.11948   0.12095   0.12409   0.12541

  Beta  occ. eigenvalues --  -19.05272 -19.05165 -19.01692 -14.26677 -14.22455
  Beta  occ. eigenvalues --  -14.18478 -10.22386 -10.12466 -10.11943 -10.08249
  Beta  occ. eigenvalues --  -10.07893 -10.07613 -10.07454 -10.07010 -10.06688
  Beta  occ. eigenvalues --  -10.06618 -10.06331  -1.02002  -0.96296  -0.94237
  Beta  occ. eigenvalues --   -0.89548  -0.75417  -0.70903  -0.69895  -0.69186
  Beta  occ. eigenvalues --   -0.64868  -0.61403  -0.59500  -0.55421  -0.52580
  Beta  occ. eigenvalues --   -0.49800  -0.47206  -0.45229  -0.43451  -0.42244
  Beta  occ. eigenvalues --   -0.40771  -0.37256  -0.36382  -0.34874  -0.33680
  Beta  occ. eigenvalues --   -0.33368  -0.32819  -0.32643  -0.32098  -0.31944
  Beta  occ. eigenvalues --   -0.31003  -0.30083  -0.29557  -0.28608  -0.28254
  Beta  occ. eigenvalues --   -0.27970  -0.26786  -0.26565  -0.26036  -0.25966
  Beta  occ. eigenvalues --   -0.25131  -0.24444  -0.22688  -0.19335  -0.16423
  Beta  occ. eigenvalues --   -0.13826  -0.13267  -0.12897  -0.08678
  Beta virt. eigenvalues --    0.06073   0.06705   0.07594   0.08260   0.08889
  Beta virt. eigenvalues --    0.09297   0.09558   0.09853   0.10530   0.10596
  Beta virt. eigenvalues --    0.11046   0.11922   0.12017   0.12398   0.12551

 Mulliken charges and spin densities:
               1          2
     1  C    0.365500  -0.948651
     2  C   -0.790329   0.520174
     3  C    0.403519   0.002790
     4  C   -0.012261  -0.290388
     5  O    0.079321  -0.009307
     6  C   -1.977533   0.072772
     7  C    1.014045   0.023701
     8  C   -0.081153   0.025919
     9  C   -0.579322  -0.064096
    10  O    0.053210   0.001902
    11  C   -0.154627  -0.017811
    12  C   -0.144116   0.293885
    13  C   -0.010988  -0.600912
    14  O    0.012492   0.027998
    15  N   -0.594443  -0.041793
    16  N    0.509910   0.159449
    17  N   -0.314059   0.513802
    18  H    0.059886   0.081925
    19  H   -0.177483   0.297982
    20  H   -0.161627   0.292675
    21  H    0.082943   0.055289
    22  H    0.070751   0.045978
    23  H    0.108644   0.063504
    24  H    0.215141   0.009559
    25  H    0.198489   0.002499
    26  H    0.171754  -0.002025
    27  H    0.090318   0.036258
    28  H    0.151301  -0.003689
    29  H    0.108103   0.027860
    30  H    0.161548   0.012023
    31  H    0.152039  -0.002851
    32  H    0.012740   0.117673
    33  H   -0.033727   0.173528
    34  H    0.010015   0.122374
 Sum of Mulliken charges =  -1.00000   1.00000

 Dipole moment (field-independent basis, Debye):
    X=             -1.9079    Y=              4.5647    Z=             -0.8746  Tot=              5.0241
 Quadrupole moment (field-independent basis, Debye-Ang):
   XX=           -185.5871   YY=           -137.3361   ZZ=           -115.5363
   XY=             22.2560   XZ=             -4.0009   YZ=              2.2653

 Summary of Natural Population Analysis:

                                       Natural Population
                Natural  -----------------------------------------------
    Atom  No    Charge         Core      Valence    Rydberg      Total
 -----------------------------------------------------------------------
      C    1   -0.28311      0.99967     2.27856    0.00488     3.28311
      C    2   -0.20118      0.99964     2.19203    0.00951     3.20118
      C    3   -0.13590      0.99954     2.12583    0.01054     3.13590
      C    4    0.08019      0.99937     1.90694    0.01349     2.91981
      O    5   -0.28573      0.99984     3.27646    0.00944     4.28573
      C    6    0.42196      0.99955     1.55226    0.02623     2.57804
      C    7   -0.12920      0.99944     2.11815    0.01161     3.12920
      C    8   -0.06580      0.99953     2.05704    0.00923     3.06580
      C    9   -0.29892      0.99965     2.29452    0.00474     3.29892
      O   10   -0.28331      0.99984     3.27416    0.00931     4.28331
      C   11    0.07554      0.99939     1.91054    0.01453     2.92446
      C   12   -0.14568      0.99954     2.13738    0.00875     3.14568
      C   13   -0.29417      0.99966     2.28880    0.00570     3.29417
      O   14   -0.20759      0.99987     3.19928    0.00844     4.20759
      N   15   -0.10109      0.99973     2.58480    0.01656     3.60109
      N   16    0.13050      0.99971     2.35399    0.01580     3.36950
      N   17    0.06038      0.99981     2.42601    0.01379     3.43962
      H   18    0.09911      0.00000     0.39977    0.00111     0.40089
      H   19    0.09528      0.00000     0.40354    0.00119     0.40472
      H   20    0.09556      0.00000     0.40322    0.00122     0.40444
      H   21    0.09647      0.00000     0.40242    0.00111     0.40353
      H   22    0.09467      0.00000     0.40424    0.00108     0.40533
      H   23    0.09563      0.00000     0.40318    0.00118     0.40437
      H   24    0.09585      0.00000     0.40283    0.00133     0.40415
      H   25    0.10266      0.00000     0.39631    0.00103     0.39734
      H   26    0.09927      0.00000     0.39964    0.00109     0.40073
      H   27    0.09853      0.00000     0.40035    0.00112     0.40147
      H   28    0.10623      0.00000     0.39283    0.00095     0.39377
      H   29    0.09855      0.00000     0.40032    0.00113     0.40145
      H   30    0.08510      0.00000     0.41390    0.00100     0.41490
      H   31    0.10478      0.00000     0.39382    0.00140     0.39522
      H   32    0.09766      0.00000     0.40132    0.00102     0.40234
      H   33    0.10073      0.00000     0.39817    0.00110     0.39927
      H   34    0.09703      0.00000     0.40210    0.00087     0.40297
 =======================================================================
   * Total *    0.00000     16.99378    46.79473    0.21149    64.00000

 Normal termination of Gaussian 16 at Fri Dec 11 14:30:29 2020.
