 Gaussian 16, Revision A.03,

 -----------------------------------------------------------
 # opt freq B3LYP/6-31G(d) empiricaldispersion=gd3bj scf=xqc
 -----------------------------------------------------------

 -------------------------------
 CID_153169121_JID_1268_neutraal
 -------------------------------
 Symbolic Z-matrix:
 Charge =  0 Multiplicity = 1

 SCF Done:  E(RB3LYP) =  -495.607527622     A.U. after   15 cycles
 SCF Done:  E(RB3LYP) =  -495.610977413     A.U. after   12 cycles
 SCF Done:  E(RB3LYP) =  -495.611442701     A.U. after   12 cycles
 SCF Done:  E(RB3LYP) =  -495.611508901     A.U. after   12 cycles
 SCF Done:  E(RB3LYP) =  -495.611589908     A.U. after   10 cycles
 SCF Done:  E(RB3LYP) =  -495.611604998     A.U. after   10 cycles
 SCF Done:  E(RB3LYP) =  -495.611607294     A.U. after    9 cycles
 SCF Done:  E(RB3LYP) =  -495.611608122     A.U. after    8 cycles
 SCF Done:  E(RB3LYP) =  -495.611608505     A.U. after    8 cycles
 Optimization completed.
    -- Stationary point found.
 Normal termination of Gaussian 16 at Tue Dec  8 19:33:48 2020.

 --------------------------------------------------------------------
 #N Geom=AllCheck Guess=TCheck SCRF=Check GenChk RB3LYP/6-31G(d) Freq
 --------------------------------------------------------------------

 Structure from the checkpoint file:  "JID_1268.chk"
 -------------------------------
 CID_153169121_JID_1268_neutraal
 -------------------------------
 Charge =  0 Multiplicity = 1

 SCF Done:  E(RB3LYP) =  -495.611608505     A.U. after    1 cycles

  Exact polarizability: 115.296  -4.025 106.922   4.283   5.690  59.151
 Approx polarizability: 178.070   0.518 173.409   8.205  14.407  92.444

                      1                      2                      3
                      A                      A                      A
 Frequencies --     79.5645               142.9222               160.0688
 Red. masses --      4.3366                 3.8465                 4.4388
 Frc consts  --      0.0162                 0.0463                 0.0670
 IR Inten    --      4.0336                 1.9912                 3.5460

                      4                      5                      6
                      A                      A                      A
 Frequencies --    217.8462               263.4986               304.4719
 Red. masses --      3.1512                 4.4830                 2.7355
 Frc consts  --      0.0881                 0.1834                 0.1494
 IR Inten    --      3.6207                 5.9486                11.4428

                      7                      8                      9
                      A                      A                      A
 Frequencies --    368.1928               407.1525               459.9237
 Red. masses --      1.2187                 2.8325                 3.9463
 Frc consts  --      0.0973                 0.2766                 0.4918
 IR Inten    --     60.6347                 6.4103                 2.3979

                     10                     11                     12
                      A                      A                      A
 Frequencies --    507.9037               511.5695               555.3092
 Red. masses --      1.3411                 3.4344                 3.6320
 Frc consts  --      0.2038                 0.5295                 0.6599
 IR Inten    --    100.0771                17.8676                 5.7823

                     13                     14                     15
                      A                      A                      A
 Frequencies --    593.5089               675.9469               699.6582
 Red. masses --      4.1562                 3.6688                 5.1001
 Frc consts  --      0.8626                 0.9876                 1.4710
 IR Inten    --     22.1423                12.2591                22.0727

                     16                     17                     18
                      A                      A                      A
 Frequencies --    737.8925               750.2396               778.3974
 Red. masses --      4.1463                 1.9675                 2.6291
 Frc consts  --      1.3301                 0.6525                 0.9386
 IR Inten    --      4.2970                27.1991                 2.7802

                     19                     20                     21
                      A                      A                      A
 Frequencies --    832.9097               849.8634               902.6361
 Red. masses --      3.8900                 1.6270                 2.6654
 Frc consts  --      1.5900                 0.6924                 1.2795
 IR Inten    --     13.0229               205.8395                 2.4327

                     22                     23                     24
                      A                      A                      A
 Frequencies --    938.3494               990.9350              1003.3604
 Red. masses --      1.4669                 1.3611                 1.5203
 Frc consts  --      0.7610                 0.7875                 0.9018
 IR Inten    --      5.6231                 8.6462                 2.5716

                     25                     26                     27
                      A                      A                      A
 Frequencies --   1011.3089              1046.3147              1075.9310
 Red. masses --      2.1932                 2.5150                 2.0895
 Frc consts  --      1.3216                 1.6223                 1.4251
 IR Inten    --     16.3217                 7.8084                13.5444

                     28                     29                     30
                      A                      A                      A
 Frequencies --   1090.5672              1119.3343              1127.4640
 Red. masses --      2.5578                 2.6724                 2.3392
 Frc consts  --      1.7923                 1.9727                 1.7519
 IR Inten    --     10.1969                 9.5748                 9.7495

                     31                     32                     33
                      A                      A                      A
 Frequencies --   1195.0695              1209.5802              1236.4931
 Red. masses --      1.4874                 1.1803                 1.1704
 Frc consts  --      1.2516                 1.0175                 1.0543
 IR Inten    --     10.6345                10.9478                 3.4960

                     34                     35                     36
                      A                      A                      A
 Frequencies --   1281.5561              1295.7817              1328.9167
 Red. masses --      2.0901                 1.2978                 1.4051
 Frc consts  --      2.0226                 1.2839                 1.4621
 IR Inten    --    131.9523                 6.2812                13.3304

                     37                     38                     39
                      A                      A                      A
 Frequencies --   1341.1228              1350.2679              1393.3111
 Red. masses --      2.0894                 1.6174                 1.8924
 Frc consts  --      2.2142                 1.7375                 2.1645
 IR Inten    --     29.5985                14.2234                 9.4640

                     40                     41                     42
                      A                      A                      A
 Frequencies --   1417.7302              1437.6255              1460.3347
 Red. masses --      1.2951                 1.6392                 1.7786
 Frc consts  --      1.5337                 1.9961                 2.2348
 IR Inten    --      3.0040                 9.7692                32.3043

                     43                     44                     45
                      A                      A                      A
 Frequencies --   1553.9336              1649.3106              1688.1340
 Red. masses --      1.0948                 7.2429                 1.1015
 Frc consts  --      1.5576                11.6082                 1.8495
 IR Inten    --      9.8764                20.2384                18.5370

                     46                     47                     48
                      A                      A                      A
 Frequencies --   1742.6313              1816.7124              2998.2809
 Red. masses --      7.0736                10.1543                 1.0826
 Frc consts  --     12.6561                19.7457                 5.7339
 IR Inten    --     24.8696               383.5960                10.2179

                     49                     50                     51
                      A                      A                      A
 Frequencies --   3022.4434              3060.4774              3090.5916
 Red. masses --      1.0676                 1.0855                 1.0963
 Frc consts  --      5.7460                 5.9903                 6.1699
 IR Inten    --     66.4377                33.4007                43.3176

                     52                     53                     54
                      A                      A                      A
 Frequencies --   3184.8851              3204.5974              3211.5992
 Red. masses --      1.0862                 1.0911                 1.0967
 Frc consts  --      6.4917                 6.6018                 6.6649
 IR Inten    --      8.8422                 9.8712                20.9718

                     55                     56                     57
                      A                      A                      A
 Frequencies --   3473.1532              3567.2693              3632.1010
 Red. masses --      1.0482                 1.0941                 1.0777
 Frc consts  --      7.4497                 8.2030                 8.3766
 IR Inten    --      1.9477                 0.2579                38.3687

 - Thermochemistry -
 -------------------
 Temperature   298.150 Kelvin.  Pressure   1.00000 Atm.
 Atom     1 has atomic number  6 and mass  12.00000

 Molecular mass:   150.07931 amu.
 Principal axes and moments of inertia in atomic units:
                           1         2         3
     Eigenvalues --   950.521201777.730562409.95108
           X            0.99952  -0.03086  -0.00202
           Y            0.03086   0.99952   0.00101
           Z            0.00199  -0.00107   1.00000
 This molecule is an asymmetric top.
 Rotational symmetry number  1.
 Warning -- assumption of classical behavior for rotation
           may cause significant error
 Rotational temperatures (Kelvin)      0.09112     0.04872     0.03594
 Rotational constants (GHZ):           1.89869     1.01519     0.74887
 Zero-point vibrational energy     460843.1 (Joules/Mol)
                                  110.14415 (Kcal/Mol)
 Warning -- explicit consideration of  13 degrees of freedom as
           vibrations may cause significant error
 Vibrational temperatures:    114.48   205.63   230.30   313.43   379.12
          (Kelvin)            438.07   529.75   585.80   661.73   730.76
                              736.03   798.97   853.93   972.54  1006.65
                             1061.66  1079.43  1119.94  1198.37  1222.76
                             1298.69  1350.08  1425.73  1443.61  1455.05
                             1505.41  1548.02  1569.08  1610.47  1622.17
                             1719.44  1740.32  1779.04  1843.87  1864.34
                             1912.01  1929.58  1942.73  2004.66  2039.80
                             2068.42  2101.10  2235.76  2372.99  2428.85
                             2507.26  2613.84  4313.86  4348.62  4403.34
                             4446.67  4582.34  4610.70  4620.77  4997.09
                             5132.50  5225.78

 Zero-point correction=                           0.175526 (Hartree/Particle)
 Thermal correction to Energy=                    0.184639
 Thermal correction to Enthalpy=                  0.185583
 Thermal correction to Gibbs Free Energy=         0.141430
 Sum of electronic and zero-point Energies=           -495.436083
 Sum of electronic and thermal Energies=              -495.426970
 Sum of electronic and thermal Enthalpies=            -495.426026
 Sum of electronic and thermal Free Energies=         -495.470178

                     E (Thermal)             CV                S
                      KCal/Mol        Cal/Mol-Kelvin    Cal/Mol-Kelvin
 Total                  115.863             36.349             92.927
 Electronic               0.000              0.000              0.000
 Translational            0.889              2.981             40.928
 Rotational               0.889              2.981             29.789
 Vibrational            114.085             30.387             22.210
 Vibration     1          0.600              1.963              3.902
 Vibration     2          0.616              1.910              2.764
 Vibration     3          0.622              1.891              2.549
 Vibration     4          0.646              1.814              1.977
 Vibration     5          0.670              1.740              1.638
 Vibration     6          0.695              1.665              1.392
 Vibration     7          0.741              1.538              1.087
 Vibration     8          0.772              1.455              0.937
 Vibration     9          0.818              1.339              0.766
 Vibration    10          0.863              1.232              0.639
 Vibration    11          0.867              1.224              0.630
 Vibration    12          0.911              1.128              0.533
 Vibration    13          0.951              1.046              0.461

                           ! Non-Optimized Parameters !
 Normal termination of Gaussian 16 at Tue Dec  8 19:38:04 2020.

 ----------------------------------------------------------------------
 # B3LYP/6-311++G(d,p) empiricaldispersion=gd3bj scf=xqc pop=npa geom=c
 heck
 ----------------------------------------------------------------------

 ---------------------------------------
 CID_153169121_JID_1268_Energie_neutraal
 ---------------------------------------
 Structure from the checkpoint file:  "JID_1268.chk"
 Charge =  0 Multiplicity = 1

 SCF Done:  E(RB3LYP) =  -495.759952808     A.U. after   16 cycles
 Normal termination of Gaussian 16 at Tue Dec  8 19:39:36 2020.

 ----------------------------------------------------------------------
 # B3LYP/6-311++G(d,p) empiricaldispersion=gd3bj scf=xqc pop=npa geom=c
 heck
 ----------------------------------------------------------------------

 -------------------------------------
 CID_153169121_JID_1268_Energie_kation
 -------------------------------------
 Structure from the checkpoint file:  "JID_1268.chk"
 Charge =  1 Multiplicity = 2

 SCF Done:  E(UB3LYP) =  -495.449955898     A.U. after   29 cycles
 Normal termination of Gaussian 16 at Tue Dec  8 19:43:20 2020.
 Gaussian 16:  ES64L-G16RevA.03 25-Dec-2016

 ----------------------------------------------------------------------
 # B3LYP/6-311++G(d,p) empiricaldispersion=gd3bj scf=xqc pop=npa geom=c
 heck
 ----------------------------------------------------------------------

 ------------------------------------
 CID_153169121_JID_1268_Energie_anion
 ------------------------------------
 Structure from the checkpoint file:  "JID_1268.chk"
 Charge = -1 Multiplicity = 2

                         Standard orientation:
 ---------------------------------------------------------------------
 Center     Atomic      Atomic             Coordinates (Angstroms)
 Number     Number       Type             X           Y           Z
 ---------------------------------------------------------------------
      1          6           0        0.874112   -1.710056   -0.366179
      2          6           0       -0.173695   -0.621814   -0.704499
      3          6           0       -1.626667   -0.816303   -0.202172
      4          6           0       -2.357271    0.512606   -0.326097
      5          6           0       -1.718928    1.689611   -0.175721
      6          6           0       -0.275971    1.743103    0.053414
      7          6           0        0.448750    0.636042   -0.165815
      8          6           0        1.888994    0.407816    0.101260
      9          8           0        2.735367    1.207365    0.471443
     10          7           0        2.092901   -0.934948   -0.154722
     11          7           0       -1.826130   -1.274030    1.175512
     12          1           0        1.000349   -2.437385   -1.174501
     13          1           0        0.591687   -2.257801    0.544060
     14          1           0       -0.239011   -0.519195   -1.799488
     15          1           0       -2.112665   -1.557115   -0.848051
     16          1           0       -3.439782    0.474199   -0.403616
     17          1           0       -2.281154    2.619831   -0.170366
     18          1           0        0.194828    2.651342    0.419430
     19          1           0        2.975054   -1.360164    0.094925
     20          1           0       -1.447632   -2.208442    1.314687
     21          1           0       -1.347961   -0.647381    1.820693
 ---------------------------------------------------------------------

 SCF Done:  E(UB3LYP) =  -495.771887331     A.U. after   28 cycles

 The electronic state is 2-A.
 Alpha  occ. eigenvalues --  -18.93004 -14.18729 -14.16136 -10.10612 -10.07619
 Alpha  occ. eigenvalues --  -10.06544 -10.03845 -10.01701 -10.00788 -10.00694
 Alpha  occ. eigenvalues --  -10.00094  -0.88042  -0.79164  -0.75694  -0.67481
 Alpha  occ. eigenvalues --   -0.61259  -0.58956  -0.54664  -0.49076  -0.45117
 Alpha  occ. eigenvalues --   -0.41929  -0.37003  -0.35802  -0.35351  -0.33425
 Alpha  occ. eigenvalues --   -0.32450  -0.30474  -0.27575  -0.26877  -0.25823
 Alpha  occ. eigenvalues --   -0.25027  -0.24079  -0.23634  -0.19499  -0.18417
 Alpha  occ. eigenvalues --   -0.16569  -0.12086  -0.11554  -0.09891  -0.07771
 Alpha  occ. eigenvalues --    0.04404
 Alpha virt. eigenvalues --    0.08198   0.09811   0.09866   0.10463   0.11912
 Alpha virt. eigenvalues --    0.12547   0.12905   0.13622   0.14492   0.15202
 Alpha virt. eigenvalues --    0.16710   0.17212   0.18537   0.18798   0.19036

  Beta  occ. eigenvalues --  -18.92858 -14.18661 -14.16064 -10.10516 -10.07577
  Beta  occ. eigenvalues --  -10.06558 -10.03867 -10.01708 -10.00446 -10.00400
  Beta  occ. eigenvalues --   -9.99898  -0.87776  -0.78979  -0.75532  -0.67089
  Beta  occ. eigenvalues --   -0.60977  -0.58444  -0.54395  -0.48742  -0.44876
  Beta  occ. eigenvalues --   -0.41583  -0.36786  -0.35613  -0.35136  -0.33212
  Beta  occ. eigenvalues --   -0.32200  -0.30265  -0.27389  -0.26681  -0.25592
  Beta  occ. eigenvalues --   -0.24507  -0.23661  -0.23479  -0.19296  -0.18230
  Beta  occ. eigenvalues --   -0.15143  -0.11722  -0.11173  -0.09677  -0.06082
  Beta virt. eigenvalues --    0.07983   0.09728   0.10053   0.10298   0.10775
  Beta virt. eigenvalues --    0.11931   0.12557   0.12914   0.13653   0.14503
  Beta virt. eigenvalues --    0.15261   0.17035   0.17888   0.18499   0.18875

 Mulliken charges and spin densities:
               1          2
     1  C    0.296759  -1.068958
     2  C   -0.723354   1.178232
     3  C    0.559681  -0.721104
     4  C   -0.347263   0.523285
     5  C   -0.395069  -0.126700
     6  C   -0.635212   0.479465
     7  C    0.316126  -0.351909
     8  C    0.292048   0.010922
     9  O   -0.471080   0.056011
    10  N   -0.272511   0.091299
    11  N   -0.288597  -0.074277
    12  H   -0.143837   0.294878
    13  H   -0.110979   0.245221
    14  H    0.037977   0.140260
    15  H    0.060831   0.106910
    16  H    0.112056  -0.012515
    17  H    0.093535   0.000441
    18  H    0.142318  -0.003626
    19  H    0.266244   0.003820
    20  H    0.014441   0.195741
    21  H    0.195885   0.032604
 Sum of Mulliken charges =  -1.00000   1.00000

 Dipole moment (field-independent basis, Debye):
    X=             -0.6244    Y=             -2.2808    Z=             -0.6044  Tot=              2.4408
 Quadrupole moment (field-independent basis, Debye-Ang):
   XX=           -100.2265   YY=            -86.6081   ZZ=            -78.8181
   XY=            -11.1955   XZ=              1.1681   YZ=              0.5844

 Summary of Natural Population Analysis:

                                       Natural Population
                Natural  -----------------------------------------------
    Atom  No    Charge         Core      Valence    Rydberg      Total
 -----------------------------------------------------------------------
      C    1   -0.07809      0.99962     2.06778    0.01069     3.07809
      C    2   -0.12576      0.99956     2.11457    0.01164     3.12576
      C    3   -0.02785      0.99958     2.01300    0.01527     3.02785
      C    4   -0.00952      0.99954     1.99962    0.01036     3.00952
      C    5   -0.12674      0.99954     2.11823    0.00898     3.12674
      C    6   -0.04242      0.99947     2.03406    0.00888     3.04242
      C    7   -0.03588      0.99944     2.02407    0.01237     3.03588
      C    8    0.34290      0.99959     1.63377    0.02374     2.65710
      O    9   -0.32406      0.99987     3.31849    0.00570     4.32406
      N   10   -0.32010      0.99969     2.81110    0.00932     3.82010
      N   11   -0.42101      0.99976     2.91070    0.01054     3.92101
      H   12    0.08682      0.00000     0.41193    0.00124     0.41318
      H   13    0.08379      0.00000     0.41406    0.00216     0.41621
      H   14    0.10539      0.00000     0.39329    0.00132     0.39461
      H   15    0.08982      0.00000     0.40838    0.00181     0.41018
      H   16    0.08509      0.00000     0.41386    0.00105     0.41491
      H   17    0.08950      0.00000     0.40941    0.00109     0.41050
      H   18    0.09635      0.00000     0.40220    0.00146     0.40365
      H   19    0.18429      0.00000     0.31300    0.00271     0.31571
      H   20    0.17126      0.00000     0.32645    0.00229     0.32874
      H   21    0.17621      0.00000     0.32219    0.00160     0.32379
 =======================================================================
   * Total *    0.00000     10.99566    28.86014    0.14421    40.00000

 Normal termination of Gaussian 16 at Tue Dec  8 19:47:32 2020.
