 Gaussian 16, Revision A.03,

 -----------------------------------------------------------
 # opt freq B3LYP/6-31G(d) empiricaldispersion=gd3bj scf=xqc
 -----------------------------------------------------------

 -------------------------------
 CID_62751517_JID_10194_neutraal
 -------------------------------
 Symbolic Z-matrix:
 Charge =  0 Multiplicity = 1

 SCF Done:  E(RB3LYP) =  -1186.07229026     A.U. after   15 cycles
 SCF Done:  E(RB3LYP) =  -1186.07994977     A.U. after   12 cycles
 SCF Done:  E(RB3LYP) =  -1186.08183395     A.U. after   12 cycles
 SCF Done:  E(RB3LYP) =  -1186.08248453     A.U. after   12 cycles
 SCF Done:  E(RB3LYP) =  -1186.08270883     A.U. after   12 cycles
 SCF Done:  E(RB3LYP) =  -1186.08297502     A.U. after   11 cycles
 SCF Done:  E(RB3LYP) =  -1186.08340578     A.U. after   13 cycles
 SCF Done:  E(RB3LYP) =  -1186.08388228     A.U. after   15 cycles
 SCF Done:  E(RB3LYP) =  -1186.08504069     A.U. after   12 cycles
 SCF Done:  E(RB3LYP) =  -1186.08532597     A.U. after   13 cycles
 SCF Done:  E(RB3LYP) =  -1186.08770463     A.U. after    8 cycles
 SCF Done:  E(RB3LYP) =  -1186.08770482     A.U. after    9 cycles
 SCF Done:  E(RB3LYP) =  -1186.08770488     A.U. after    7 cycles
 SCF Done:  E(RB3LYP) =  -1186.08770485     A.U. after    7 cycles
 SCF Done:  E(RB3LYP) =  -1186.08770488     A.U. after    7 cycles
 Optimization completed.
    -- Stationary point found.
 Normal termination of Gaussian 16 at Sun Dec 13 20:40:23 2020.

 --------------------------------------------------------------------
 #N Geom=AllCheck Guess=TCheck SCRF=Check GenChk RB3LYP/6-31G(d) Freq
 --------------------------------------------------------------------

 Structure from the checkpoint file:  "JID_10194.chk"
 -------------------------------
 CID_62751517_JID_10194_neutraal
 -------------------------------
 Charge =  0 Multiplicity = 1

 SCF Done:  E(RB3LYP) =  -1186.08770488     A.U. after    1 cycles

  Exact polarizability: 239.860 -21.353 172.627 -15.467 -13.186 180.324
 Approx polarizability: 330.523 -46.517 281.284 -38.130 -39.221 298.233

                      1                      2                      3
                      A                      A                      A
 Frequencies --     19.7504                25.1081                35.8604
 Red. masses --      4.2378                 4.3601                 4.0908
 Frc consts  --      0.0010                 0.0016                 0.0031
 IR Inten    --      0.1903                 0.1138                 0.1602

                      4                      5                      6
                      A                      A                      A
 Frequencies --     49.9987                63.3412                68.1136
 Red. masses --      5.2767                 3.8846                 3.5261
 Frc consts  --      0.0078                 0.0092                 0.0096
 IR Inten    --      0.0439                 0.0201                 1.6543

                      7                      8                      9
                      A                      A                      A
 Frequencies --     75.4289                98.5386               116.1347
 Red. masses --      3.5753                 2.9118                 4.7181
 Frc consts  --      0.0120                 0.0167                 0.0375
 IR Inten    --      0.3147                 0.0909                 0.9734

                     10                     11                     12
                      A                      A                      A
 Frequencies --    134.3809               194.5124               212.3278
 Red. masses --      2.1781                 1.9517                 3.3323
 Frc consts  --      0.0232                 0.0435                 0.0885
 IR Inten    --      1.9700                 0.2168                 1.0468

                     13                     14                     15
                      A                      A                      A
 Frequencies --    223.9184               227.3167               240.8973
 Red. masses --      2.4374                 1.5858                 1.6308
 Frc consts  --      0.0720                 0.0483                 0.0558
 IR Inten    --      3.7551                 0.2330                 1.2526

                     16                     17                     18
                      A                      A                      A
 Frequencies --    259.6442               280.9494               289.9599
 Red. masses --      5.0581                 1.8619                 2.0029
 Frc consts  --      0.2009                 0.0866                 0.0992
 IR Inten    --      0.1802                 4.2833                 5.8059

                     19                     20                     21
                      A                      A                      A
 Frequencies --    305.7096               337.1402               361.6953
 Red. masses --      1.5724                 2.6472                 3.0423
 Frc consts  --      0.0866                 0.1773                 0.2345
 IR Inten    --     33.8989                 1.6349                 3.2617

                     22                     23                     24
                      A                      A                      A
 Frequencies --    378.6007               397.1013               415.6558
 Red. masses --      3.9660                 2.8884                 3.0094
 Frc consts  --      0.3349                 0.2684                 0.3063
 IR Inten    --      9.3265                 3.2413                 0.8408

                     25                     26                     27
                      A                      A                      A
 Frequencies --    425.3812               453.4589               516.3545
 Red. masses --      2.6501                 3.9222                 3.0722
 Frc consts  --      0.2825                 0.4752                 0.4826
 IR Inten    --      2.9043                 1.9586                 2.1363

                     28                     29                     30
                      A                      A                      A
 Frequencies --    550.3126               572.2370               578.4075
 Red. masses --      3.4069                 3.6078                 3.6735
 Frc consts  --      0.6079                 0.6961                 0.7241
 IR Inten    --     12.0141                 5.8301                19.9553

                     31                     32                     33
                      A                      A                      A
 Frequencies --    593.7167               628.4491               637.6319
 Red. masses --      3.2440                 3.8171                 6.2676
 Frc consts  --      0.6737                 0.8882                 1.5014
 IR Inten    --      9.5829                 6.1103                 0.3719

                     34                     35                     36
                      A                      A                      A
 Frequencies --    685.5557               686.9431               714.8743
 Red. masses --      3.6871                 1.6364                 1.8262
 Frc consts  --      1.0210                 0.4550                 0.5499
 IR Inten    --      4.0649                16.3157                30.5878

                     37                     38                     39
                      A                      A                      A
 Frequencies --    740.6155               768.5636               776.4349
 Red. masses --      5.8226                 2.7865                 1.4007
 Frc consts  --      1.8817                 0.9698                 0.4975
 IR Inten    --     17.6001                19.0805                 4.4003

                     40                     41                     42
                      A                      A                      A
 Frequencies --    778.7445               809.8315               842.6440
 Red. masses --      2.3295                 1.1972                 3.6474
 Frc consts  --      0.8324                 0.4626                 1.5259
 IR Inten    --     17.2922                 8.5899                 4.8548

                     43                     44                     45
                      A                      A                      A
 Frequencies --    860.2894               870.1684               880.6276
 Red. masses --      1.2528                 2.7738                 1.7515
 Frc consts  --      0.5463                 1.2374                 0.8003
 IR Inten    --      2.5576                 3.3945                 3.6031

                     46                     47                     48
                      A                      A                      A
 Frequencies --    904.9079               919.3215               940.3086
 Red. masses --      1.6174                 1.3715                 1.6891
 Frc consts  --      0.7803                 0.6829                 0.8799
 IR Inten    --    180.5814                 4.5863                 5.0284

                     49                     50                     51
                      A                      A                      A
 Frequencies --    965.3006               978.8614               980.7983
 Red. masses --      1.3493                 2.4234                 2.2275
 Frc consts  --      0.7408                 1.3681                 1.2625
 IR Inten    --      1.1211                 6.7010                 5.8496

                     52                     53                     54
                      A                      A                      A
 Frequencies --    992.3232               999.6318              1016.3965
 Red. masses --      1.3261                 2.0105                 3.1078
 Frc consts  --      0.7693                 1.1837                 1.8916
 IR Inten    --      6.4570                43.3198                 8.2052

                     55                     56                     57
                      A                      A                      A
 Frequencies --   1022.8197              1063.1571              1064.5703
 Red. masses --      6.0588                 2.1676                 2.3048
 Frc consts  --      3.7345                 1.4435                 1.5389
 IR Inten    --      0.5961                 1.3547                 6.1779

                     58                     59                     60
                      A                      A                      A
 Frequencies --   1099.5487              1106.4081              1119.5440
 Red. masses --      2.0325                 1.9072                 1.8968
 Frc consts  --      1.4478                 1.3755                 1.4007
 IR Inten    --     10.6845                 7.0371                 8.7892

                     61                     62                     63
                      A                      A                      A
 Frequencies --   1132.4970              1136.9916              1154.8180
 Red. masses --      1.6849                 1.6417                 1.4064
 Frc consts  --      1.2732                 1.2504                 1.1051
 IR Inten    --     29.7621                 8.1854                 0.6845

                     64                     65                     66
                      A                      A                      A
 Frequencies --   1160.4736              1185.8352              1192.8028
 Red. masses --      1.9285                 1.7859                 1.0995
 Frc consts  --      1.5302                 1.4797                 0.9217
 IR Inten    --     69.9048                 7.1000                 0.1394

                     67                     68                     69
                      A                      A                      A
 Frequencies --   1216.7094              1224.7197              1239.2949
 Red. masses --      1.1383                 2.6128                 2.0650
 Frc consts  --      0.9928                 2.3090                 1.8686
 IR Inten    --      2.6400                 3.3898                 9.3296

                     70                     71                     72
                      A                      A                      A
 Frequencies --   1247.9207              1292.3558              1312.6443
 Red. masses --      1.4539                 1.8088                 1.2015
 Frc consts  --      1.3340                 1.7799                 1.2198
 IR Inten    --      8.0343                81.5675                 0.5432

                     73                     74                     75
                      A                      A                      A
 Frequencies --   1328.8887              1337.7600              1359.9796
 Red. masses --      1.8796                 1.4833                 1.4581
 Frc consts  --      1.9557                 1.5640                 1.5889
 IR Inten    --     18.6563                18.2537                10.8887

                     76                     77                     78
                      A                      A                      A
 Frequencies --   1368.9680              1371.8473              1384.6141
 Red. masses --      2.9423                 1.6813                 2.1664
 Frc consts  --      3.2488                 1.8643                 2.4470
 IR Inten    --      8.7477                20.3396                54.4687

                     79                     80                     81
                      A                      A                      A
 Frequencies --   1395.7603              1399.5204              1417.7745
 Red. masses --      1.3604                 1.5038                 1.4929
 Frc consts  --      1.5615                 1.7354                 1.7681
 IR Inten    --     27.1838                 2.3143                27.4664

                     82                     83                     84
                      A                      A                      A
 Frequencies --   1425.3467              1436.9126              1439.6559
 Red. masses --      1.3031                 1.5847                 1.2787
 Frc consts  --      1.5599                 1.9278                 1.5615
 IR Inten    --      7.3541                20.5506                19.0199

                     85                     86                     87
                      A                      A                      A
 Frequencies --   1445.4576              1503.3056              1505.2498
 Red. masses --      1.2829                 1.6268                 1.3153
 Frc consts  --      1.5792                 2.1661                 1.7559
 IR Inten    --      7.9762                12.8100                 2.5481

                     88                     89                     90
                      A                      A                      A
 Frequencies --   1506.1729              1513.5837              1519.1859
 Red. masses --      1.0977                 1.0719                 1.0713
 Frc consts  --      1.4672                 1.4468                 1.4568
 IR Inten    --     17.2428                 1.3117                 9.6107

                     91                     92                     93
                      A                      A                      A
 Frequencies --   1523.9586              1526.9923              1536.0979
 Red. masses --      1.0482                 1.0678                 1.0815
 Frc consts  --      1.4343                 1.4670                 1.5036
 IR Inten    --      0.2689                14.3773                15.8026

                     94                     95                     96
                      A                      A                      A
 Frequencies --   1537.6144              1547.3125              1599.4584
 Red. masses --      1.0675                 2.1788                 6.5347
 Frc consts  --      1.4870                 3.0735                 9.8496
 IR Inten    --      8.0023                 7.1848               117.8005

                     97                     98                     99
                      A                      A                      A
 Frequencies --   1619.0918              1647.5116              1667.3999
 Red. masses --      5.5870                 5.4806                 5.5348
 Frc consts  --      8.6292                 8.7647                 9.0664
 IR Inten    --    408.3607                 1.5535                 1.7569

                    100                    101                    102
                      A                      A                      A
 Frequencies --   1697.9018              3030.5440              3044.5715
 Red. masses --      1.0907                 1.0622                 1.0684
 Frc consts  --      1.8527                 5.7477                 5.8349
 IR Inten    --     20.6315                21.4954                62.2250

                    103                    104                    105
                      A                      A                      A
 Frequencies --   3047.6984              3056.2089              3056.7425
 Red. masses --      1.0609                 1.0374                 1.0430
 Frc consts  --      5.8057                 5.7092                 5.7421
 IR Inten    --     19.9641                32.5443                20.4874

                    106                    107                    108
                      A                      A                      A
 Frequencies --   3057.4413              3065.3570              3066.4846
 Red. masses --      1.0545                 1.1005                 1.0831
 Frc consts  --      5.8080                 6.0925                 6.0006
 IR Inten    --     19.8898                33.8241                18.4955

                    109                    110                    111
                      A                      A                      A
 Frequencies --   3097.1333              3098.4442              3122.7366
 Red. masses --      1.1023                 1.1036                 1.1024
 Frc consts  --      6.2299                 6.2422                 6.3337
 IR Inten    --     16.0676                23.4136                55.1486

                    112                    113                    114
                      A                      A                      A
 Frequencies --   3124.1890              3129.6473              3140.6868
 Red. masses --      1.1026                 1.1026                 1.1029
 Frc consts  --      6.3408                 6.3627                 6.4096
 IR Inten    --     29.0316                21.5523                30.2280

                    115                    116                    117
                      A                      A                      A
 Frequencies --   3145.2386              3172.9449              3182.1176
 Red. masses --      1.0952                 1.0847                 1.0869
 Frc consts  --      6.3832                 6.4338                 6.4842
 IR Inten    --      9.1756                 6.0377                 1.7206

                    118                    119                    120
                      A                      A                      A
 Frequencies --   3191.4711              3204.2383              3213.4375
 Red. masses --      1.0917                 1.0950                 1.0941
 Frc consts  --      6.5513                 6.6240                 6.6563
 IR Inten    --     34.8970                34.6205                 6.6562

                    121                    122                    123
                      A                      A                      A
 Frequencies --   3281.6072              3458.7636              3545.0759
 Red. masses --      1.0948                 1.0493                 1.0921
 Frc consts  --      6.9461                 7.3956                 8.0864
 IR Inten    --      1.5816                 2.5705                 0.3198

 - Thermochemistry -
 -------------------
 Temperature   298.150 Kelvin.  Pressure   1.00000 Atm.
 Atom     1 has atomic number  6 and mass  12.00000

 Molecular mass:   289.16127 amu.
 Principal axes and moments of inertia in atomic units:
                           1         2         3
     Eigenvalues --  3663.111729540.193839823.98302
           X            0.99991  -0.00915  -0.00963
           Y            0.00963   0.99866   0.05078
           Z            0.00915  -0.05087   0.99866
 This molecule is an asymmetric top.
 Rotational symmetry number  1.
 Warning -- assumption of classical behavior for rotation
           may cause significant error
 Rotational temperatures (Kelvin)      0.02364     0.00908     0.00882
 Rotational constants (GHZ):           0.49268     0.18917     0.18371
 Zero-point vibrational energy     974659.8 (Joules/Mol)
                                  232.94928 (Kcal/Mol)
 Warning -- explicit consideration of  31 degrees of freedom as
           vibrations may cause significant error
 Vibrational temperatures:     28.42    36.12    51.60    71.94    91.13
          (Kelvin)             98.00   108.53   141.78   167.09   193.34
                              279.86   305.49   322.17   327.06   346.60
                              373.57   404.22   417.19   439.85   485.07
                              520.40   544.72   571.34   598.04   612.03
                              652.43   742.92   791.78   823.32   832.20
                              854.23   904.20   917.41   986.36   988.36
                             1028.54  1065.58  1105.79  1117.12  1120.44
                             1165.17  1212.38  1237.76  1251.98  1267.03
                             1301.96  1322.70  1352.89  1388.85  1408.36
                             1411.15  1427.73  1438.25  1462.37  1471.61
                             1529.65  1531.68  1582.01  1591.87  1610.77
                             1629.41  1635.88  1661.53  1669.66  1706.15
                             1716.18  1750.57  1762.10  1783.07  1795.48
                             1859.41  1888.60  1911.97  1924.74  1956.71
                             1969.64  1973.78  1992.15  2008.19  2013.60
                             2039.86  2050.76  2067.40  2071.34  2079.69
                             2162.92  2165.72  2167.05  2177.71  2185.77
                             2192.64  2197.00  2210.10  2212.28  2226.24
                             2301.26  2329.51  2370.40  2399.02  2442.90
                             4360.28  4380.46  4384.96  4397.20  4397.97
                             4398.98  4410.37  4411.99  4456.08  4457.97
                             4492.92  4495.01  4502.86  4518.75  4525.30
                             4565.16  4578.36  4591.82  4610.18  4623.42
                             4721.50  4976.39  5100.57

 Zero-point correction=                           0.371228 (Hartree/Particle)
 Thermal correction to Energy=                    0.391798
 Thermal correction to Enthalpy=                  0.392742
 Thermal correction to Gibbs Free Energy=         0.319807
 Sum of electronic and zero-point Energies=          -1185.716477
 Sum of electronic and thermal Energies=             -1185.695907
 Sum of electronic and thermal Enthalpies=           -1185.694963
 Sum of electronic and thermal Free Energies=        -1185.767898

                     E (Thermal)             CV                S
                      KCal/Mol        Cal/Mol-Kelvin    Cal/Mol-Kelvin
 Total                  245.857             77.816            153.505
 Electronic               0.000              0.000              0.000
 Translational            0.889              2.981             42.883
 Rotational               0.889              2.981             34.195
 Vibrational            244.079             71.854             76.427
 Vibration     1          0.593              1.986              6.659
 Vibration     2          0.593              1.985              6.183
 Vibration     3          0.594              1.982              5.476
 Vibration     4          0.595              1.978              4.817
 Vibration     5          0.597              1.972              4.350
 Vibration     6          0.598              1.969              4.207
 Vibration     7          0.599              1.965              4.006
 Vibration     8          0.604              1.950              3.483
 Vibration     9          0.608              1.936              3.164
 Vibration    10          0.613              1.919              2.882
 Vibration    11          0.635              1.848              2.184
 Vibration    12          0.643              1.822              2.024
 Vibration    13          0.649              1.805              1.927
 Vibration    14          0.651              1.799              1.900
 Vibration    15          0.658              1.778              1.796
 Vibration    16          0.668              1.746              1.664
 Vibration    17          0.681              1.709              1.528
 Vibration    18          0.686              1.692              1.474
 Vibration    19          0.696              1.663              1.385
 Vibration    20          0.718              1.601              1.226
 Vibration    21          0.736              1.551              1.115
 Vibration    22          0.749              1.516              1.045
 Vibration    23          0.764              1.476              0.973
 Vibration    24          0.779              1.436              0.907
 Vibration    25          0.787              1.415              0.874
 Vibration    26          0.812              1.353              0.785
 Vibration    27          0.871              1.214              0.618
 Vibration    28          0.906              1.139              0.544
 Vibration    29          0.928              1.091              0.500
 Vibration    30          0.935              1.078              0.488
 Vibration    31          0.951              1.045              0.461

 Optimization completed.
    -- Stationary point found.
 Normal termination of Gaussian 16 at Sun Dec 13 21:08:45 2020.

 ----------------------------------------------------------------------
 # B3LYP/6-311++G(d,p) empiricaldispersion=gd3bj scf=xqc pop=npa geom=c
 heck
 ----------------------------------------------------------------------

 ---------------------------------------
 CID_62751517_JID_10194_Energie_neutraal
 ---------------------------------------
 Structure from the checkpoint file:  "JID_10194.chk"
 Charge =  0 Multiplicity = 1

 SCF Done:  E(RB3LYP) =  -1186.32935342     A.U. after   17 cycles
 Normal termination of Gaussian 16 at Sun Dec 13 21:24:13 2020.

 ----------------------------------------------------------------------
 # B3LYP/6-311++G(d,p) empiricaldispersion=gd3bj scf=xqc pop=npa geom=c
 heck
 ----------------------------------------------------------------------

 -------------------------------------
 CID_62751517_JID_10194_Energie_kation
 -------------------------------------
 Structure from the checkpoint file:  "JID_10194.chk"
 Charge =  1 Multiplicity = 2

 SCF Done:  E(UB3LYP) =  -1186.07108798     A.U. after   29 cycles
 Normal termination of Gaussian 16 at Sun Dec 13 22:01:23 2020.
 Gaussian 16:  ES64L-G16RevA.03 25-Dec-2016

 ----------------------------------------------------------------------
 # B3LYP/6-311++G(d,p) empiricaldispersion=gd3bj scf=xqc pop=npa geom=c
 heck
 ----------------------------------------------------------------------

 ------------------------------------
 CID_62751517_JID_10194_Energie_anion
 ------------------------------------
 Structure from the checkpoint file:  "JID_10194.chk"
 Charge = -1 Multiplicity = 2

                         Standard orientation:
 ---------------------------------------------------------------------
 Center     Atomic      Atomic             Coordinates (Angstroms)
 Number     Number       Type             X           Y           Z
 ---------------------------------------------------------------------
      1          6           0       -1.457146    2.701051    1.077832
      2          6           0       -2.899358    2.621071    0.575129
      3          6           0       -3.118162    1.508249   -0.457236
      4          7           0       -2.814699    0.174515    0.064840
      5          6           0       -3.838914   -0.514857    0.837801
      6          6           0       -4.805680   -1.332653   -0.024179
      7          6           0       -1.676791   -0.458309   -0.335405
      8          7           0       -0.758234    0.077645   -1.098331
      9          6           0        0.290100   -0.800592   -1.321054
     10          6           0        0.179174   -2.020020   -0.730041
     11         16           0       -1.318265   -2.128202    0.173947
     12          6           0        1.462238   -0.319357   -2.119720
     13          6           0        2.219843    0.838518   -1.427354
     14          6           0        2.747598    0.400251   -0.065649
     15          6           0        1.940257    0.536006    1.070487
     16          6           0        2.378138    0.092725    2.317044
     17          6           0        3.637329   -0.495375    2.449341
     18          6           0        4.451532   -0.634503    1.325049
     19          6           0        4.007257   -0.189324    0.079284
     20          7           0        3.214270    1.358129   -2.372160
     21          1           0       -1.171019    1.770239    1.578442
     22          1           0       -1.332525    3.521566    1.792704
     23          1           0       -0.759704    2.856284    0.248174
     24          1           0       -3.581031    2.475308    1.424564
     25          1           0       -3.192081    3.571018    0.107997
     26          1           0       -4.161112    1.512308   -0.799819
     27          1           0       -2.478389    1.669071   -1.326755
     28          1           0       -3.348833   -1.155957    1.580111
     29          1           0       -4.386417    0.245340    1.404560
     30          1           0       -4.269348   -2.107788   -0.579484
     31          1           0       -5.561474   -1.818301    0.603163
     32          1           0       -5.322396   -0.690333   -0.745389
     33          1           0        0.882429   -2.839696   -0.735055
     34          1           0        2.157130   -1.151379   -2.289459
     35          1           0        1.129207    0.046420   -3.097854
     36          1           0        1.488132    1.637612   -1.261696
     37          1           0        0.956585    0.983755    0.967152
     38          1           0        1.736033    0.207639    3.186342
     39          1           0        3.982475   -0.839069    3.420562
     40          1           0        5.435097   -1.087799    1.417085
     41          1           0        4.654740   -0.295965   -0.787538
     42          1           0        3.790111    2.059432   -1.908144
     43          1           0        3.850777    0.612217   -2.651240
 ---------------------------------------------------------------------

 SCF Done:  E(UB3LYP) =  -1186.31748946     A.U. after   33 cycles
 SCF Done:  E(UB3LYP) =  -1186.31748946     a.u. after    1 cycles

 The electronic state is 2-A.
 Alpha  occ. eigenvalues --  -88.78602 -14.25715 -14.21164 -14.20636 -10.17991
 Alpha  occ. eigenvalues --  -10.12425 -10.11896 -10.11622 -10.11478 -10.09843
 Alpha  occ. eigenvalues --  -10.09184 -10.08927 -10.08894 -10.08866 -10.08809
 Alpha  occ. eigenvalues --  -10.08650 -10.08393 -10.08230 -10.07759 -10.07027
 Alpha  occ. eigenvalues --   -7.87229  -5.83537  -5.83186  -5.82760  -0.90042
 Alpha  occ. eigenvalues --   -0.84105  -0.81224  -0.76626  -0.71038  -0.70115
 Alpha  occ. eigenvalues --   -0.69355  -0.67209  -0.65997  -0.65684  -0.61880
 Alpha  occ. eigenvalues --   -0.58988  -0.55883  -0.54336  -0.52040  -0.51382
 Alpha  occ. eigenvalues --   -0.49285  -0.48240  -0.44867  -0.43387  -0.42615
 Alpha  occ. eigenvalues --   -0.40675  -0.40209  -0.38266  -0.37555  -0.37020
 Alpha  occ. eigenvalues --   -0.36368  -0.35728  -0.35437  -0.33793  -0.33606
 Alpha  occ. eigenvalues --   -0.32995  -0.32907  -0.32339  -0.31253  -0.30797
 Alpha  occ. eigenvalues --   -0.29912  -0.28992  -0.28123  -0.27621  -0.26989
 Alpha  occ. eigenvalues --   -0.26934  -0.26313  -0.25941  -0.25469  -0.25305
 Alpha  occ. eigenvalues --   -0.25008  -0.20647  -0.18658  -0.18223  -0.17329
 Alpha  occ. eigenvalues --   -0.16821  -0.15524  -0.11154   0.03793
 Alpha virt. eigenvalues --    0.04857   0.06321   0.06489   0.07010   0.07073
 Alpha virt. eigenvalues --    0.07182   0.07286   0.07742   0.08258   0.08643
 Alpha virt. eigenvalues --    0.08952   0.09429   0.09482   0.09781   0.10287

  Beta  occ. eigenvalues --  -88.78599 -14.25716 -14.21145 -14.20635 -10.17991
  Beta  occ. eigenvalues --  -10.12399 -10.11893 -10.11622 -10.11462 -10.09840
  Beta  occ. eigenvalues --  -10.09185 -10.08916 -10.08888 -10.08860 -10.08803
  Beta  occ. eigenvalues --  -10.08632 -10.08392 -10.08207 -10.07724 -10.07015
  Beta  occ. eigenvalues --   -7.87226  -5.83535  -5.83182  -5.82758  -0.90037
  Beta  occ. eigenvalues --   -0.84097  -0.81196  -0.76608  -0.71019  -0.70097
  Beta  occ. eigenvalues --   -0.69332  -0.67181  -0.65975  -0.65661  -0.61859
  Beta  occ. eigenvalues --   -0.58956  -0.55828  -0.54313  -0.52014  -0.51340
  Beta  occ. eigenvalues --   -0.49262  -0.48212  -0.44838  -0.43356  -0.42601
  Beta  occ. eigenvalues --   -0.40651  -0.40178  -0.38242  -0.37531  -0.36992
  Beta  occ. eigenvalues --   -0.36340  -0.35702  -0.35408  -0.33764  -0.33575
  Beta  occ. eigenvalues --   -0.32980  -0.32886  -0.32320  -0.31235  -0.30770
  Beta  occ. eigenvalues --   -0.29889  -0.28957  -0.28108  -0.27596  -0.26961
  Beta  occ. eigenvalues --   -0.26905  -0.26285  -0.25921  -0.25449  -0.25286
  Beta  occ. eigenvalues --   -0.24983  -0.20636  -0.18654  -0.18215  -0.17318
  Beta  occ. eigenvalues --   -0.16810  -0.15510  -0.11148
  Beta virt. eigenvalues --    0.05653   0.06094   0.06739   0.06869   0.07032
  Beta virt. eigenvalues --    0.07086   0.07357   0.07643   0.08106   0.08411
  Beta virt. eigenvalues --    0.08942   0.09254   0.09610   0.09812   0.10066

 Mulliken charges and spin densities:
               1          2
     1  C   -0.333577   0.005868
     2  C    0.141129  -0.513712
     3  C    0.314938  -0.534769
     4  N    0.420132   0.036663
     5  C   -0.282198   0.204357
     6  C    1.007360  -1.417898
     7  C   -0.702389   0.236723
     8  N   -0.013812  -0.003500
     9  C    0.637816  -0.313117
    10  C   -0.609254   0.276013
    11  S    0.031144  -0.345900
    12  C   -0.335337  -0.360702
    13  C    0.326048  -1.018872
    14  C    0.145167   0.478779
    15  C   -0.342536   0.558789
    16  C   -0.409460   0.167820
    17  C    0.476848  -0.864220
    18  C    0.211358  -0.646273
    19  C   -0.176227  -0.078513
    20  N   -0.173330  -0.011440
    21  H    0.081006   0.070376
    22  H   -0.064718   0.219095
    23  H    0.210598  -0.051093
    24  H   -0.021812   0.159000
    25  H   -0.153621   0.292936
    26  H   -0.220215   0.386226
    27  H    0.237593  -0.041944
    28  H   -0.118180   0.243027
    29  H   -0.531825   0.708390
    30  H   -0.109010   0.238865
    31  H   -0.313393   0.463761
    32  H   -0.096330   0.241804
    33  H    0.028116   0.186367
    34  H    0.077906   0.080097
    35  H    0.183279   0.012472
    36  H    0.231920   0.096756
    37  H    0.125655  -0.148283
    38  H   -0.115396   0.285938
    39  H    0.004002   0.150365
    40  H   -0.491900   0.668614
    41  H   -0.468697   0.593992
    42  H    0.117140   0.117084
    43  H    0.074064   0.170061
 Sum of Mulliken charges =  -1.00000   1.00000

 Dipole moment (field-independent basis, Debye):
    X=              1.8567    Y=             -0.8629    Z=             -1.1939  Tot=              2.3701
 Quadrupole moment (field-independent basis, Debye-Ang):
   XX=           -255.2048   YY=           -169.2799   ZZ=           -173.2188
   XY=              4.3468   XZ=              9.2111   YZ=              2.0464

 Summary of Natural Population Analysis:

                                       Natural Population
                Natural  -----------------------------------------------
    Atom  No    Charge         Core      Valence    Rydberg      Total
 -----------------------------------------------------------------------
      C    1   -0.28752      0.99966     2.28209    0.00577     3.28752
      C    2   -0.19362      0.99963     2.18637    0.00762     3.19362
      C    3   -0.08228      0.99960     2.07141    0.01127     3.08228
      N    4   -0.25760      0.99961     2.74400    0.01399     3.75760
      C    5   -0.08520      0.99962     2.07465    0.01093     3.08520
      C    6   -0.29242      0.99966     2.28770    0.00506     3.29242
      C    7    0.15905      0.99955     1.82191    0.01949     2.84095
      N    8   -0.29230      0.99962     2.78255    0.01013     3.79230
      C    9    0.07253      0.99948     1.91377    0.01421     2.92747
      C   10   -0.21575      0.99942     2.20730    0.00903     3.21575
      S   11    0.15425      4.99947     2.82774    0.01854     7.84575
      C   12   -0.19645      0.99956     2.18730    0.00958     3.19645
      C   13   -0.01825      0.99955     2.00640    0.01229     3.01825
      C   14   -0.02147      0.99948     2.01030    0.01169     3.02147
      C   15   -0.10057      0.99951     2.09129    0.00977     3.10057
      C   16   -0.09747      0.99956     2.08876    0.00915     3.09747
      C   17   -0.10605      0.99956     2.09719    0.00930     3.10605
      C   18   -0.09976      0.99956     2.08950    0.01070     3.09976
      C   19   -0.10618      0.99950     2.09526    0.01141     3.10618
      N   20   -0.41593      0.99978     2.90705    0.00910     3.91593
      H   21    0.09811      0.00000     0.40039    0.00150     0.40189
      H   22    0.09802      0.00000     0.40117    0.00081     0.40198
      H   23    0.09944      0.00000     0.39941    0.00115     0.40056
      H   24    0.09593      0.00000     0.40244    0.00163     0.40407
      H   25    0.09651      0.00000     0.40247    0.00102     0.40349
      H   26    0.09710      0.00000     0.40162    0.00127     0.40290
      H   27    0.11036      0.00000     0.38779    0.00185     0.38964
      H   28    0.09885      0.00000     0.39947    0.00168     0.40115
      H   29    0.10308      0.00000     0.39482    0.00210     0.39692
      H   30    0.10035      0.00000     0.39851    0.00115     0.39965
      H   31    0.10313      0.00000     0.39546    0.00141     0.39687
      H   32    0.09997      0.00000     0.39890    0.00112     0.40003
      H   33    0.11249      0.00000     0.38645    0.00106     0.38751
      H   34    0.10050      0.00000     0.39841    0.00109     0.39950
      H   35    0.11163      0.00000     0.38712    0.00125     0.38837
      H   36    0.10026      0.00000     0.39744    0.00231     0.39974
      H   37    0.10688      0.00000     0.39106    0.00205     0.39312
      H   38    0.10096      0.00000     0.39811    0.00094     0.39904
      H   39    0.09993      0.00000     0.39923    0.00084     0.40007
      H   40    0.10142      0.00000     0.39729    0.00128     0.39858
      H   41    0.10030      0.00000     0.39765    0.00206     0.39970
      H   42    0.17604      0.00000     0.32247    0.00148     0.32396
      H   43    0.17172      0.00000     0.32647    0.00181     0.32828
 =======================================================================
   * Total *   -0.00000     23.99138    53.75671    0.25191    78.00000

 Normal termination of Gaussian 16 at Sun Dec 13 22:43:39 2020.
