 Gaussian 16, Revision A.03,

 -----------------------------------------------------------
 # opt freq B3LYP/6-31G(d) empiricaldispersion=gd3bj scf=xqc
 -----------------------------------------------------------

 ------------------------------
 CID_80355238_JID_2460_neutraal
 ------------------------------
 Symbolic Z-matrix:
 Charge =  0 Multiplicity = 1

 SCF Done:  E(RB3LYP) =  -555.750277549     A.U. after   14 cycles
 SCF Done:  E(RB3LYP) =  -555.755892815     A.U. after   12 cycles
 SCF Done:  E(RB3LYP) =  -555.757205219     A.U. after   12 cycles
 SCF Done:  E(RB3LYP) =  -555.758300905     A.U. after   12 cycles
 SCF Done:  E(RB3LYP) =  -555.759264682     A.U. after   12 cycles
 SCF Done:  E(RB3LYP) =  -555.759806615     A.U. after   12 cycles
 SCF Done:  E(RB3LYP) =  -555.759755792     A.U. after   12 cycles
 SCF Done:  E(RB3LYP) =  -555.759987595     A.U. after   11 cycles
 SCF Done:  E(RB3LYP) =  -555.760187681     A.U. after   10 cycles
 SCF Done:  E(RB3LYP) =  -555.760311275     A.U. after   11 cycles
 SCF Done:  E(RB3LYP) =  -555.770823844     A.U. after    9 cycles
 SCF Done:  E(RB3LYP) =  -555.770838906     A.U. after    9 cycles
 SCF Done:  E(RB3LYP) =  -555.770847705     A.U. after    9 cycles
 SCF Done:  E(RB3LYP) =  -555.770850647     A.U. after    8 cycles
 SCF Done:  E(RB3LYP) =  -555.770851278     A.U. after    7 cycles
 SCF Done:  E(RB3LYP) =  -555.770851342     A.U. after    7 cycles
 Optimization completed.
    -- Stationary point found.
 Normal termination of Gaussian 16 at Wed Dec  9 17:54:58 2020.

 --------------------------------------------------------------------
 #N Geom=AllCheck Guess=TCheck SCRF=Check GenChk RB3LYP/6-31G(d) Freq
 --------------------------------------------------------------------

 Structure from the checkpoint file:  "JID_2460.chk"
 ------------------------------
 CID_80355238_JID_2460_neutraal
 ------------------------------
 Charge =  0 Multiplicity = 1

 SCF Done:  E(RB3LYP) =  -555.770851342     A.U. after    1 cycles

  Exact polarizability: 131.079   5.141 105.295   0.538  -4.701  95.547
 Approx polarizability: 174.634   8.895 145.304   6.751  -9.555 137.558

                      1                      2                      3
                      A                      A                      A
 Frequencies --     41.4602                59.7753                60.9041
 Red. masses --      3.4706                 2.6134                 3.5170
 Frc consts  --      0.0035                 0.0055                 0.0077
 IR Inten    --      1.5063                 0.4213                 1.5002

                      4                      5                      6
                      A                      A                      A
 Frequencies --     96.0509               122.2234               129.8373
 Red. masses --      3.7692                 2.6309                 3.3300
 Frc consts  --      0.0205                 0.0232                 0.0331
 IR Inten    --      0.5207                 3.1685                 0.1898

                      7                      8                      9
                      A                      A                      A
 Frequencies --    154.4246               163.4258               206.5076
 Red. masses --      2.1280                 1.9440                 1.0699
 Frc consts  --      0.0299                 0.0306                 0.0269
 IR Inten    --      5.0061                 1.4767                29.0848

                     10                     11                     12
                      A                      A                      A
 Frequencies --    234.4734               243.6981               267.0569
 Red. masses --      2.2412                 1.4310                 1.9127
 Frc consts  --      0.0726                 0.0501                 0.0804
 IR Inten    --      3.6091                 5.7238                13.1322

                     13                     14                     15
                      A                      A                      A
 Frequencies --    281.3272               303.1026               328.0560
 Red. masses --      2.3973                 2.7144                 2.0137
 Frc consts  --      0.1118                 0.1469                 0.1277
 IR Inten    --      2.0178                 0.9629                 5.0404

                     16                     17                     18
                      A                      A                      A
 Frequencies --    346.2676               377.0316               460.0461
 Red. masses --      2.4352                 2.7878                 2.4211
 Frc consts  --      0.1720                 0.2335                 0.3019
 IR Inten    --      3.2174                 3.4129                10.6834

                     19                     20                     21
                      A                      A                      A
 Frequencies --    498.7589               526.7891               618.4367
 Red. masses --      2.8310                 2.7201                 3.9029
 Frc consts  --      0.4149                 0.4447                 0.8795
 IR Inten    --      7.5118                 0.3594                33.3519

                     22                     23                     24
                      A                      A                      A
 Frequencies --    687.2802               757.3301               774.1177
 Red. masses --      2.2849                 1.7612                 1.3426
 Frc consts  --      0.6359                 0.5951                 0.4740
 IR Inten    --     57.9881                64.3337                84.1660

                     25                     26                     27
                      A                      A                      A
 Frequencies --    802.3361               851.6598               885.6143
 Red. masses --      1.8095                 2.0699                 2.6637
 Frc consts  --      0.6863                 0.8846                 1.2309
 IR Inten    --     11.2542                16.5273                 3.6291

                     28                     29                     30
                      A                      A                      A
 Frequencies --    901.8887               925.1516               937.4091
 Red. masses --      2.2363                 1.5023                 1.7973
 Frc consts  --      1.0717                 0.7576                 0.9305
 IR Inten    --     14.1132                 8.5829                 5.0410

                     31                     32                     33
                      A                      A                      A
 Frequencies --   1002.2713              1041.1670              1062.8632
 Red. masses --      2.2186                 1.8306                 2.2601
 Frc consts  --      1.3131                 1.1692                 1.5043
 IR Inten    --     41.7279                 3.6048                27.1577

                     34                     35                     36
                      A                      A                      A
 Frequencies --   1072.2591              1105.5598              1110.9866
 Red. masses --      1.9463                 2.3928                 2.0812
 Frc consts  --      1.3184                 1.7231                 1.5135
 IR Inten    --      4.5321                19.1708                16.7707

                     37                     38                     39
                      A                      A                      A
 Frequencies --   1146.5772              1157.1590              1174.5942
 Red. masses --      2.3920                 4.1770                 1.8149
 Frc consts  --      1.8527                 3.2954                 1.4753
 IR Inten    --      2.4346               121.5327                 3.5684

                     40                     41                     42
                      A                      A                      A
 Frequencies --   1185.3549              1196.1822              1235.7154
 Red. masses --      1.5775                 1.2694                 1.6600
 Frc consts  --      1.3060                 1.0701                 1.4934
 IR Inten    --     12.1534                 2.5192                28.8267

                     43                     44                     45
                      A                      A                      A
 Frequencies --   1254.2374              1261.9312              1284.5813
 Red. masses --      1.6711                 1.2993                 1.2294
 Frc consts  --      1.5488                 1.2191                 1.1952
 IR Inten    --     60.3701                 6.0552                 3.8995

                     46                     47                     48
                      A                      A                      A
 Frequencies --   1316.3649              1318.2194              1334.2400
 Red. masses --      1.2200                 1.1867                 1.6407
 Frc consts  --      1.2455                 1.2150                 1.7209
 IR Inten    --     23.6895                 1.3739                36.8702

                     49                     50                     51
                      A                      A                      A
 Frequencies --   1380.7318              1388.2169              1392.3920
 Red. masses --      1.3848                 1.2559                 1.3896
 Frc consts  --      1.5555                 1.4260                 1.5873
 IR Inten    --     15.1453                14.0725                 8.2660

                     52                     53                     54
                      A                      A                      A
 Frequencies --   1400.2981              1410.4646              1435.4511
 Red. masses --      1.4129                 1.4252                 1.2878
 Frc consts  --      1.6323                 1.6705                 1.5635
 IR Inten    --     23.9312                 2.3701                 6.7450

                     55                     56                     57
                      A                      A                      A
 Frequencies --   1443.1823              1502.6308              1505.1259
 Red. masses --      1.3601                 1.1742                 1.0814
 Frc consts  --      1.6690                 1.5620                 1.4435
 IR Inten    --     13.3019                 1.0069                 2.2394

                     58                     59                     60
                      A                      A                      A
 Frequencies --   1511.4091              1518.1851              1521.9450
 Red. masses --      1.0861                 1.0479                 1.0736
 Frc consts  --      1.4618                 1.4230                 1.4652
 IR Inten    --      2.0692                 6.1806                14.7061

                     61                     62                     63
                      A                      A                      A
 Frequencies --   1529.6407              1530.7391              1537.3948
 Red. masses --      1.1052                 1.0622                 1.1103
 Frc consts  --      1.5236                 1.4664                 1.5462
 IR Inten    --      4.0737                 3.1787                25.3225

                     64                     65                     66
                      A                      A                      A
 Frequencies --   1538.2102              1546.2812              1561.3210
 Red. masses --      1.0733                 1.1923                 1.1258
 Frc consts  --      1.4963                 1.6796                 1.6169
 IR Inten    --      7.5599                42.0611                 9.1114

                     67                     68                     69
                      A                      A                      A
 Frequencies --   1733.4473              1754.4680              2984.7424
 Red. masses --      2.5351                 1.4700                 1.0619
 Frc consts  --      4.4881                 2.6659                 5.5737
 IR Inten    --    258.6875                36.4846                53.5479

                     70                     71                     72
                      A                      A                      A
 Frequencies --   2993.4575              3006.5244              3024.6693
 Red. masses --      1.0513                 1.0396                 1.1054
 Frc consts  --      5.5505                 5.5364                 5.9586
 IR Inten    --     24.8765                69.8212                56.8535

                     73                     74                     75
                      A                      A                      A
 Frequencies --   3026.0551              3041.0976              3045.2455
 Red. masses --      1.0922                 1.0390                 1.0665
 Frc consts  --      5.8928                 5.6615                 5.8270
 IR Inten    --     28.7301                28.3568                73.4334

                     76                     77                     78
                      A                      A                      A
 Frequencies --   3056.6191              3064.6508              3080.0490
 Red. masses --      1.1060                 1.0621                 1.0999
 Frc consts  --      6.0883                 5.8776                 6.1475
 IR Inten    --     49.2293                37.3117                15.7800

                     79                     80                     81
                      A                      A                      A
 Frequencies --   3086.0129              3105.2327              3108.0615
 Red. masses --      1.0640                 1.0997                 1.1004
 Frc consts  --      5.9704                 6.2478                 6.2628
 IR Inten    --      8.2513                85.8323                 6.9868

                     82                     83                     84
                      A                      A                      A
 Frequencies --   3121.9152              3128.3198              3144.0378
 Red. masses --      1.1021                 1.1043                 1.0983
 Frc consts  --      6.3287                 6.3672                 6.3967
 IR Inten    --     48.6820                24.3485                27.0601

                     85                     86                     87
                      A                      A                      A
 Frequencies --   3397.9359              3482.8647              3544.2592
 Red. masses --      1.0516                 1.0882                 1.0778
 Frc consts  --      7.1537                 7.7771                 7.9772
 IR Inten    --     14.6125                 1.9966               105.8080

 - Thermochemistry -
 -------------------
 Temperature   298.150 Kelvin.  Pressure   1.00000 Atm.
 Atom     1 has atomic number  6 and mass  12.00000

 Molecular mass:   173.15281 amu.
 Principal axes and moments of inertia in atomic units:
                           1         2         3
     Eigenvalues --  1523.469253116.456313567.07031
           X            0.99992   0.01240  -0.00382
           Y           -0.01237   0.99990   0.00628
           Z            0.00389  -0.00623   0.99997
 This molecule is an asymmetric top.
 Rotational symmetry number  1.
 Warning -- assumption of classical behavior for rotation
           may cause significant error
 Rotational temperatures (Kelvin)      0.05685     0.02779     0.02428
 Rotational constants (GHZ):           1.18463     0.57910     0.50594
 Zero-point vibrational energy     741002.8 (Joules/Mol)
                                  177.10391 (Kcal/Mol)
 Warning -- explicit consideration of  21 degrees of freedom as
           vibrations may cause significant error
 Vibrational temperatures:     59.65    86.00    87.63   138.20   175.85
          (Kelvin)            186.81   222.18   235.13   297.12   337.35
                              350.63   384.24   404.77   436.10   472.00
                              498.20   542.46   661.90   717.60   757.93
                              889.79   988.84  1089.63  1113.78  1154.38
                             1225.35  1274.20  1297.62  1331.09  1348.72
                             1442.04  1498.01  1529.22  1542.74  1590.65
                             1598.46  1649.67  1664.89  1689.98  1705.46
                             1721.04  1777.92  1804.57  1815.64  1848.23
                             1893.96  1896.62  1919.67  1986.57  1997.33
                             2003.34  2014.72  2029.34  2065.29  2076.42
                             2161.95  2165.54  2174.58  2184.33  2189.74
                             2200.81  2202.39  2211.97  2213.14  2224.75
                             2246.39  2494.04  2524.29  4294.38  4306.92
                             4325.72  4351.82  4353.82  4375.46  4381.43
                             4397.79  4409.35  4431.50  4440.08  4467.74
                             4471.81  4491.74  4500.95  4523.57  4888.87
                             5011.07  5099.40

 Zero-point correction=                           0.282233 (Hartree/Particle)
 Thermal correction to Energy=                    0.296811
 Thermal correction to Enthalpy=                  0.297755
 Thermal correction to Gibbs Free Energy=         0.240590
 Sum of electronic and zero-point Energies=           -555.488618
 Sum of electronic and thermal Energies=              -555.474041
 Sum of electronic and thermal Enthalpies=            -555.473096
 Sum of electronic and thermal Free Energies=         -555.530261

                     E (Thermal)             CV                S
                      KCal/Mol        Cal/Mol-Kelvin    Cal/Mol-Kelvin
 Total                  186.252             52.523            120.314
 Electronic               0.000              0.000              0.000
 Translational            0.889              2.981             41.354
 Rotational               0.889              2.981             31.205
 Vibrational            184.474             46.562             47.754
 Vibration     1          0.594              1.981              5.188
 Vibration     2          0.597              1.973              4.465
 Vibration     3          0.597              1.973              4.428
 Vibration     4          0.603              1.952              3.533
 Vibration     5          0.610              1.931              3.065
 Vibration     6          0.612              1.923              2.948
 Vibration     7          0.620              1.898              2.617
 Vibration     8          0.623              1.887              2.510
 Vibration     9          0.641              1.831              2.074
 Vibration    10          0.654              1.788              1.844
 Vibration    11          0.659              1.773              1.776
 Vibration    12          0.672              1.734              1.615
 Vibration    13          0.681              1.708              1.526
 Vibration    14          0.695              1.668              1.400
 Vibration    15          0.711              1.619              1.270
 Vibration    16          0.724              1.583              1.183
 Vibration    17          0.748              1.519              1.051
 Vibration    18          0.818              1.339              0.766
 Vibration    19          0.854              1.253              0.661
 Vibration    20          0.882              1.191              0.594
 Vibration    21          0.978              0.993              0.419

 Optimization completed.
    -- Stationary point found.
 Normal termination of Gaussian 16 at Wed Dec  9 18:03:10 2020.

 ----------------------------------------------------------------------
 # B3LYP/6-311++G(d,p) empiricaldispersion=gd3bj scf=xqc pop=npa geom=c
 heck
 ----------------------------------------------------------------------

 --------------------------------------
 CID_80355238_JID_2460_Energie_neutraal
 --------------------------------------
 Structure from the checkpoint file:  "JID_2460.chk"
 Charge =  0 Multiplicity = 1

 SCF Done:  E(RB3LYP) =  -555.940633546     A.U. after   13 cycles
 Normal termination of Gaussian 16 at Wed Dec  9 18:06:40 2020.

 ----------------------------------------------------------------------
 # B3LYP/6-311++G(d,p) empiricaldispersion=gd3bj scf=xqc pop=npa geom=c
 heck
 ----------------------------------------------------------------------

 ------------------------------------
 CID_80355238_JID_2460_Energie_kation
 ------------------------------------
 Structure from the checkpoint file:  "JID_2460.chk"
 Charge =  1 Multiplicity = 2

 SCF Done:  E(UB3LYP) =  -555.647559445     A.U. after   22 cycles
 Normal termination of Gaussian 16 at Wed Dec  9 18:14:46 2020.
 Gaussian 16:  ES64L-G16RevA.03 25-Dec-2016

 ----------------------------------------------------------------------
 # B3LYP/6-311++G(d,p) empiricaldispersion=gd3bj scf=xqc pop=npa geom=c
 heck
 ----------------------------------------------------------------------

 -----------------------------------
 CID_80355238_JID_2460_Energie_anion
 -----------------------------------
 Structure from the checkpoint file:  "JID_2460.chk"
 Charge = -1 Multiplicity = 2

                         Standard orientation:
 ---------------------------------------------------------------------
 Center     Atomic      Atomic             Coordinates (Angstroms)
 Number     Number       Type             X           Y           Z
 ---------------------------------------------------------------------
      1          6           0       -2.428782   -1.356627   -1.414464
      2          6           0       -3.290248   -0.415774   -0.571495
      3          6           0       -2.550882    0.140707    0.653444
      4          7           0       -1.455135    0.992351    0.237170
      5          6           0       -0.275556    0.856400    0.720597
      6          6           0        0.240028   -0.182948    1.703306
      7          6           0        0.616142   -1.513037    1.016457
      8          6           0        1.480573   -1.336595   -0.224835
      9          8           0        2.647471   -0.598149    0.116061
     10          6           0        3.463805   -0.335325   -1.012246
     11          7           0        0.727819    1.716522    0.297658
     12          7           0        0.509734    2.487311   -0.877305
     13          1           0       -1.522614   -0.844705   -1.755611
     14          1           0       -2.969510   -1.713584   -2.297953
     15          1           0       -2.121276   -2.236948   -0.835201
     16          1           0       -3.620884    0.430694   -1.185906
     17          1           0       -4.193376   -0.939006   -0.230331
     18          1           0       -3.257741    0.745391    1.240433
     19          1           0       -2.246814   -0.701086    1.297256
     20          1           0        1.123587    0.224377    2.203042
     21          1           0       -0.504886   -0.370930    2.481201
     22          1           0        1.142218   -2.147326    1.739327
     23          1           0       -0.290456   -2.048076    0.712547
     24          1           0        1.765470   -2.318707   -0.634590
     25          1           0        0.918249   -0.804508   -1.008698
     26          1           0        3.788328   -1.268840   -1.496355
     27          1           0        2.933860    0.283277   -1.752213
     28          1           0        4.342529    0.206331   -0.654248
     29          1           0        1.649846    1.290808    0.305545
     30          1           0       -0.319570    2.076843   -1.319571
     31          1           0        0.195871    3.407087   -0.564408
 ---------------------------------------------------------------------

 SCF Done:  E(UB3LYP) =  -555.923738263     A.U. after   31 cycles

 The electronic state is 2-A.
 Alpha  occ. eigenvalues --  -19.03449 -14.24357 -14.22818 -14.18247 -10.13892
 Alpha  occ. eigenvalues --  -10.11690 -10.11362 -10.09028 -10.08079 -10.07583
 Alpha  occ. eigenvalues --  -10.06455 -10.05469  -0.94516  -0.89544  -0.80308
 Alpha  occ. eigenvalues --   -0.71636  -0.68387  -0.66639  -0.61545  -0.58346
 Alpha  occ. eigenvalues --   -0.56472  -0.50731  -0.49326  -0.44944  -0.41405
 Alpha  occ. eigenvalues --   -0.40881  -0.39983  -0.39103  -0.37337  -0.36191
 Alpha  occ. eigenvalues --   -0.35810  -0.34726  -0.32789  -0.31777  -0.31336
 Alpha  occ. eigenvalues --   -0.30056  -0.28044  -0.26534  -0.25552  -0.24960
 Alpha  occ. eigenvalues --   -0.24298  -0.23744  -0.23370  -0.21979  -0.18631
 Alpha  occ. eigenvalues --   -0.17172  -0.15009  -0.12672   0.04682
 Alpha virt. eigenvalues --    0.06608   0.07255   0.07489   0.08308   0.09038
 Alpha virt. eigenvalues --    0.09816   0.09867   0.10434   0.11076   0.11861
 Alpha virt. eigenvalues --    0.12065   0.12270   0.13043   0.13207   0.13771

  Beta  occ. eigenvalues --  -19.03437 -14.24354 -14.22807 -14.18230 -10.13894
  Beta  occ. eigenvalues --  -10.11664 -10.11323 -10.09013 -10.08068 -10.07560
  Beta  occ. eigenvalues --  -10.06441 -10.05440  -0.94499  -0.89535  -0.80288
  Beta  occ. eigenvalues --   -0.71610  -0.68352  -0.66609  -0.61500  -0.58304
  Beta  occ. eigenvalues --   -0.56398  -0.50677  -0.49265  -0.44909  -0.41374
  Beta  occ. eigenvalues --   -0.40848  -0.39964  -0.39044  -0.37314  -0.36148
  Beta  occ. eigenvalues --   -0.35770  -0.34694  -0.32754  -0.31752  -0.31302
  Beta  occ. eigenvalues --   -0.30024  -0.28009  -0.26494  -0.25510  -0.24924
  Beta  occ. eigenvalues --   -0.24263  -0.23705  -0.23315  -0.21945  -0.18609
  Beta  occ. eigenvalues --   -0.17146  -0.14962  -0.12645
  Beta virt. eigenvalues --    0.06814   0.07459   0.07852   0.08068   0.08769
  Beta virt. eigenvalues --    0.09615   0.10175   0.10351   0.10810   0.11653
  Beta virt. eigenvalues --    0.12067   0.12283   0.12740   0.13358   0.13483

 Mulliken charges and spin densities:
               1          2
     1  C    0.837452  -1.246482
     2  C   -0.455690   0.050303
     3  C    0.129571  -0.360470
     4  N   -0.299802   0.170141
     5  C    0.210662  -0.411628
     6  C   -0.770351   0.304699
     7  C    1.559628  -1.634765
     8  C   -0.659220   0.172550
     9  O   -0.190839   0.041472
    10  C    0.804933  -1.068228
    11  N   -0.070247   0.051350
    12  N   -0.323422  -0.039858
    13  H   -0.242291   0.366200
    14  H   -0.254778   0.411208
    15  H   -0.237797   0.372940
    16  H    0.130857   0.003533
    17  H   -0.215019   0.340845
    18  H   -0.141228   0.304490
    19  H   -0.049697   0.142694
    20  H    0.084964   0.118344
    21  H   -0.244276   0.413781
    22  H   -0.364370   0.576190
    23  H    0.232507  -0.135533
    24  H   -0.782975   0.978316
    25  H    0.407934  -0.269659
    26  H   -0.467285   0.609969
    27  H   -0.089640   0.232386
    28  H   -0.308436   0.447364
    29  H    0.407219  -0.092845
    30  H    0.224304   0.027825
    31  H    0.137333   0.122870
 Sum of Mulliken charges =  -1.00000   1.00000

 Dipole moment (field-independent basis, Debye):
    X=             -1.9425    Y=              5.1842    Z=              1.5215  Tot=              5.7414
 Quadrupole moment (field-independent basis, Debye-Ang):
   XX=           -143.3767   YY=           -125.2741   ZZ=           -115.3216
   XY=              3.8407   XZ=              5.0812   YZ=             -2.8780

 Summary of Natural Population Analysis:

                                       Natural Population
                Natural  -----------------------------------------------
    Atom  No    Charge         Core      Valence    Rydberg      Total
 -----------------------------------------------------------------------
      C    1   -0.28778      0.99966     2.28281    0.00530     3.28778
      C    2   -0.18888      0.99964     2.18079    0.00845     3.18888
      C    3   -0.09474      0.99960     2.08342    0.01172     3.09474
      N    4   -0.29661      0.99962     2.78473    0.01226     3.79661
      C    5    0.22935      0.99956     1.75457    0.01652     2.77065
      C    6   -0.22525      0.99958     2.21626    0.00941     3.22525
      C    7   -0.19554      0.99961     2.18573    0.01020     3.19554
      C    8   -0.01272      0.99958     2.00015    0.01299     3.01272
      O    9   -0.30628      0.99988     3.29697    0.00943     4.30628
      C   10   -0.10008      0.99962     2.09130    0.00916     3.10008
      N   11   -0.24139      0.99965     2.72832    0.01342     3.74139
      N   12   -0.32329      0.99978     2.81340    0.01012     3.82329
      H   13    0.09851      0.00000     0.39980    0.00170     0.40149
      H   14    0.09802      0.00000     0.40102    0.00097     0.40198
      H   15    0.09574      0.00000     0.40269    0.00157     0.40426
      H   16    0.09361      0.00000     0.40508    0.00131     0.40639
      H   17    0.09323      0.00000     0.40564    0.00113     0.40677
      H   18    0.09093      0.00000     0.40782    0.00125     0.40907
      H   19    0.08049      0.00000     0.41731    0.00220     0.41951
      H   20    0.10889      0.00000     0.38917    0.00193     0.39111
      H   21    0.10972      0.00000     0.38909    0.00119     0.39028
      H   22    0.10238      0.00000     0.39601    0.00160     0.39762
      H   23    0.10353      0.00000     0.39449    0.00198     0.39647
      H   24    0.08958      0.00000     0.40787    0.00256     0.41042
      H   25    0.07983      0.00000     0.41803    0.00215     0.42017
      H   26    0.08437      0.00000     0.41333    0.00230     0.41563
      H   27    0.08202      0.00000     0.41647    0.00152     0.41798
      H   28    0.08962      0.00000     0.40919    0.00119     0.41038
      H   29    0.19313      0.00000     0.30251    0.00436     0.30687
      H   30    0.18049      0.00000     0.31702    0.00249     0.31951
      H   31    0.16913      0.00000     0.32887    0.00200     0.33087
 =======================================================================
   * Total *    0.00000     11.99579    35.83983    0.16438    48.00000

 Normal termination of Gaussian 16 at Wed Dec  9 18:26:21 2020.
