 Gaussian 16, Revision A.03,

 -----------------------------------------------------------
 # opt freq B3LYP/6-31G(d) empiricaldispersion=gd3bj scf=xqc
 -----------------------------------------------------------

 -------------------------------
 CID_145269791_JID_2295_neutraal
 -------------------------------
 Symbolic Z-matrix:
 Charge =  0 Multiplicity = 1

 SCF Done:  E(RB3LYP) =  -554.764987542     A.U. after   15 cycles
 SCF Done:  E(RB3LYP) =  -554.771146811     A.U. after   14 cycles
 SCF Done:  E(RB3LYP) =  -554.773024177     A.U. after   14 cycles
 SCF Done:  E(RB3LYP) =  -554.774088624     A.U. after   13 cycles
 SCF Done:  E(RB3LYP) =  -554.773719765     A.U. after   12 cycles
 SCF Done:  E(RB3LYP) =  -554.774518437     A.U. after   12 cycles
 SCF Done:  E(RB3LYP) =  -554.774634080     A.U. after   12 cycles
 SCF Done:  E(RB3LYP) =  -554.774671938     A.U. after   11 cycles
 SCF Done:  E(RB3LYP) =  -554.774688727     A.U. after   10 cycles
 SCF Done:  E(RB3LYP) =  -554.774693372     A.U. after    9 cycles
 SCF Done:  E(RB3LYP) =  -554.774950633     A.U. after   11 cycles
 SCF Done:  E(RB3LYP) =  -554.774957711     A.U. after    9 cycles
 SCF Done:  E(RB3LYP) =  -554.774957886     A.U. after   10 cycles
 SCF Done:  E(RB3LYP) =  -554.774958279     A.U. after    9 cycles
 SCF Done:  E(RB3LYP) =  -554.774958477     A.U. after    8 cycles
 SCF Done:  E(RB3LYP) =  -554.774958480     A.U. after    5 cycles
 Optimization completed.
    -- Stationary point found.
 Normal termination of Gaussian 16 at Wed Dec  9 17:05:17 2020.

 --------------------------------------------------------------------
 #N Geom=AllCheck Guess=TCheck SCRF=Check GenChk RB3LYP/6-31G(d) Freq
 --------------------------------------------------------------------

 Structure from the checkpoint file:  "JID_2295.chk"
 -------------------------------
 CID_145269791_JID_2295_neutraal
 -------------------------------
 Charge =  0 Multiplicity = 1

 SCF Done:  E(RB3LYP) =  -554.774958480     A.U. after    1 cycles

  Exact polarizability: 150.393  -2.532 129.962  -0.305   2.709  51.792
 Approx polarizability: 227.350 -17.429 216.524  -1.611   4.894  79.301

                      1                      2                      3
                      A                      A                      A
 Frequencies --     41.2262                71.5948                92.6225
 Red. masses --      1.0454                 4.0534                 3.7972
 Frc consts  --      0.0010                 0.0122                 0.0192
 IR Inten    --      0.2317                 3.2411                 0.3425

                      4                      5                      6
                      A                      A                      A
 Frequencies --    146.9120               181.6269               198.1194
 Red. masses --      5.0184                 1.0642                 4.3651
 Frc consts  --      0.0638                 0.0207                 0.1009
 IR Inten    --      0.8200                 0.7454                 3.9179

                      7                      8                      9
                      A                      A                      A
 Frequencies --    224.4861               247.1951               284.2044
 Red. masses --      3.7939                 3.7720                 4.0538
 Frc consts  --      0.1126                 0.1358                 0.1929
 IR Inten    --      2.1178                 4.5020                 4.6128

                     10                     11                     12
                      A                      A                      A
 Frequencies --    348.7903               353.9483               377.6711
 Red. masses --      1.4812                 2.8405                 3.8721
 Frc consts  --      0.1062                 0.2097                 0.3254
 IR Inten    --     70.4207                 5.7346                 3.7161

                     13                     14                     15
                      A                      A                      A
 Frequencies --    387.9315               456.6378               541.5792
 Red. masses --      4.0090                 3.0516                 4.2503
 Frc consts  --      0.3555                 0.3749                 0.7345
 IR Inten    --     12.4426                 1.8641                 9.8286

                     16                     17                     18
                      A                      A                      A
 Frequencies --    565.7446               588.1614               592.7702
 Red. masses --      3.7809                 3.8683                 4.7478
 Frc consts  --      0.7130                 0.7884                 0.9829
 IR Inten    --      8.2201                 9.5840                11.7119

                     19                     20                     21
                      A                      A                      A
 Frequencies --    621.3938               707.4037               726.3271
 Red. masses --      3.1642                 4.5656                 3.0726
 Frc consts  --      0.7199                 1.3461                 0.9551
 IR Inten    --      4.3465                10.3080                52.5325

                     22                     23                     24
                      A                      A                      A
 Frequencies --    756.2657               811.0979               826.7232
 Red. masses --      3.6661                 1.3127                 2.0703
 Frc consts  --      1.2354                 0.5088                 0.8337
 IR Inten    --     41.6921                27.6900               146.0572

                     25                     26                     27
                      A                      A                      A
 Frequencies --    892.0747               949.2953               962.7774
 Red. masses --      1.4135                 1.2767                 2.1854
 Frc consts  --      0.6628                 0.6779                 1.1935
 IR Inten    --     10.7381                 0.2896                44.6369

                     28                     29                     30
                      A                      A                      A
 Frequencies --   1000.5450              1046.4654              1052.0616
 Red. masses --      2.2212                 2.7121                 2.0083
 Frc consts  --      1.3101                 1.7499                 1.3096
 IR Inten    --      8.9435                29.3550                12.2749

                     31                     32                     33
                      A                      A                      A
 Frequencies --   1054.5795              1072.9247              1085.7690
 Red. masses --      1.8931                 1.5368                 2.6601
 Frc consts  --      1.2405                 1.0424                 1.8477
 IR Inten    --      1.8755                 6.2213                 7.8928

                     34                     35                     36
                      A                      A                      A
 Frequencies --   1184.9094              1215.1377              1280.5793
 Red. masses --      1.5487                 1.8080                 1.7385
 Frc consts  --      1.2811                 1.5729                 1.6797
 IR Inten    --     26.2712                 3.2392                13.0755

                     37                     38                     39
                      A                      A                      A
 Frequencies --   1302.4990              1338.8762              1375.4497
 Red. masses --      3.7756                 1.7618                 3.9830
 Frc consts  --      3.7740                 1.8607                 4.4396
 IR Inten    --    229.2482                 7.5773                24.9660

                     40                     41                     42
                      A                      A                      A
 Frequencies --   1412.5306              1415.6455              1440.2771
 Red. masses --      1.2536                 1.3741                 1.2536
 Frc consts  --      1.4737                 1.6224                 1.5322
 IR Inten    --     93.3006                10.4145                 0.1819

                     43                     44                     45
                      A                      A                      A
 Frequencies --   1460.6999              1480.6868              1501.7243
 Red. masses --      1.7951                 2.7574                 1.0732
 Frc consts  --      2.2567                 3.5618                 1.4260
 IR Inten    --     31.1059                41.2957                 9.5786

                     46                     47                     48
                      A                      A                      A
 Frequencies --   1511.2370              1513.1735              1526.6299
 Red. masses --      1.0479                 1.0447                 1.2509
 Frc consts  --      1.4101                 1.4093                 1.7177
 IR Inten    --      8.3526                 6.4079                42.2898

                     49                     50                     51
                      A                      A                      A
 Frequencies --   1556.8533              1615.5789              1679.0122
 Red. masses --      2.2634                 3.8151                 5.8859
 Frc consts  --      3.2323                 5.8669                 9.7762
 IR Inten    --     36.4628                80.9309               122.0190

                     52                     53                     54
                      A                      A                      A
 Frequencies --   1724.5888              3046.3305              3058.4589
 Red. masses --      8.1958                 1.0377                 1.0379
 Frc consts  --     14.3619                 5.6737                 5.7204
 IR Inten    --    227.3984                24.9259                 2.9801

                     55                     56                     57
                      A                      A                      A
 Frequencies --   3098.4223              3119.6844              3134.0404
 Red. masses --      1.1005                 1.1004                 1.1010
 Frc consts  --      6.2245                 6.3097                 6.3714
 IR Inten    --     17.4347                 9.9011                17.2757

                     58                     59                     60
                      A                      A                      A
 Frequencies --   3171.4297              3190.4300              3221.0136
 Red. masses --      1.1015                 1.0886                 1.0918
 Frc consts  --      6.5274                 6.5287                 6.6737
 IR Inten    --     11.8165                 9.8614                14.5183

                     61                     62                     63
                      A                      A                      A
 Frequencies --   3234.0654              3479.0710              3713.5856
 Red. masses --      1.0896                 1.0785                 1.0684
 Frc consts  --      6.7147                 7.6912                 8.6813
 IR Inten    --      3.3794                86.0921                43.5178

 - Thermochemistry -
 -------------------
 Temperature   298.150 Kelvin.  Pressure   1.00000 Atm.
 Atom     1 has atomic number  6 and mass  12.00000

 Molecular mass:   165.07898 amu.
 Principal axes and moments of inertia in atomic units:
                           1         2         3
     Eigenvalues --  1423.242942339.818613723.12200
           X            0.99953   0.03081   0.00055
           Y           -0.03081   0.99951   0.00601
           Z           -0.00036  -0.00603   0.99998
 This molecule is an asymmetric top.
 Rotational symmetry number  1.
 Warning -- assumption of classical behavior for rotation
           may cause significant error
 Rotational temperatures (Kelvin)      0.06086     0.03702     0.02326
 Rotational constants (GHZ):           1.26805     0.77132     0.48474
 Zero-point vibrational energy     492081.2 (Joules/Mol)
                                  117.61022 (Kcal/Mol)
 Warning -- explicit consideration of  18 degrees of freedom as
           vibrations may cause significant error
 Vibrational temperatures:     59.32   103.01   133.26   211.37   261.32
          (Kelvin)            285.05   322.99   355.66   408.91   501.83
                              509.25   543.38   558.15   657.00   779.21
                              813.98   846.23   852.86   894.05  1017.80
                             1045.02  1088.10  1166.99  1189.47  1283.50
                             1365.82  1385.22  1439.56  1505.63  1513.68
                             1517.30  1543.70  1562.18  1704.82  1748.31
                             1842.47  1874.01  1926.34  1978.97  2032.32
                             2036.80  2072.24  2101.62  2130.38  2160.65
                             2174.33  2177.12  2196.48  2239.96  2324.46
                             2415.72  2481.30  4382.99  4400.44  4457.94
                             4488.53  4509.19  4562.98  4590.32  4634.32
                             4653.10  5005.61  5343.02

 Zero-point correction=                           0.187424 (Hartree/Particle)
 Thermal correction to Energy=                    0.199301
 Thermal correction to Enthalpy=                  0.200245
 Thermal correction to Gibbs Free Energy=         0.149260
 Sum of electronic and zero-point Energies=           -554.587535
 Sum of electronic and thermal Energies=              -554.575657
 Sum of electronic and thermal Enthalpies=            -554.574713
 Sum of electronic and thermal Free Energies=         -554.625699

                     E (Thermal)             CV                S
                      KCal/Mol        Cal/Mol-Kelvin    Cal/Mol-Kelvin
 Total                  125.063             44.376            107.308
 Electronic               0.000              0.000              0.000
 Translational            0.889              2.981             41.212
 Rotational               0.889              2.981             30.895
 Vibrational            123.286             38.415             35.201
 Vibration     1          0.594              1.981              5.199
 Vibration     2          0.598              1.968              4.109
 Vibration     3          0.602              1.954              3.604
 Vibration     4          0.617              1.906              2.712
 Vibration     5          0.630              1.865              2.312
 Vibration     6          0.637              1.843              2.150
 Vibration     7          0.649              1.804              1.923
 Vibration     8          0.661              1.767              1.750
 Vibration     9          0.683              1.703              1.508
 Vibration    10          0.726              1.578              1.172
 Vibration    11          0.730              1.567              1.149
 Vibration    12          0.748              1.518              1.048
 Vibration    13          0.756              1.496              1.008
 Vibration    14          0.815              1.346              0.776
 Vibration    15          0.897              1.158              0.562
 Vibration    16          0.922              1.105              0.512
 Vibration    17          0.945              1.057              0.470
 Vibration    18          0.950              1.047              0.462

 Optimization completed.
    -- Stationary point found.
 Normal termination of Gaussian 16 at Wed Dec  9 17:10:33 2020.

 ----------------------------------------------------------------------
 # B3LYP/6-311++G(d,p) empiricaldispersion=gd3bj scf=xqc pop=npa geom=c
 heck
 ----------------------------------------------------------------------

 ---------------------------------------
 CID_145269791_JID_2295_Energie_neutraal
 ---------------------------------------
 Structure from the checkpoint file:  "JID_2295.chk"
 Charge =  0 Multiplicity = 1

 SCF Done:  E(RB3LYP) =  -554.939722926     A.U. after   15 cycles
 Normal termination of Gaussian 16 at Wed Dec  9 17:13:11 2020.

 ----------------------------------------------------------------------
 # B3LYP/6-311++G(d,p) empiricaldispersion=gd3bj scf=xqc pop=npa geom=c
 heck
 ----------------------------------------------------------------------

 -------------------------------------
 CID_145269791_JID_2295_Energie_kation
 -------------------------------------
 Structure from the checkpoint file:  "JID_2295.chk"
 Charge =  1 Multiplicity = 2

 SCF Done:  E(UB3LYP) =  -554.650080149     A.U. after   24 cycles
 Normal termination of Gaussian 16 at Wed Dec  9 17:18:38 2020.
 Gaussian 16:  ES64L-G16RevA.03 25-Dec-2016

 ----------------------------------------------------------------------
 # B3LYP/6-311++G(d,p) empiricaldispersion=gd3bj scf=xqc pop=npa geom=c
 heck
 ----------------------------------------------------------------------

 ------------------------------------
 CID_145269791_JID_2295_Energie_anion
 ------------------------------------
 Structure from the checkpoint file:  "JID_2295.chk"
 Charge = -1 Multiplicity = 2

                         Standard orientation:
 ---------------------------------------------------------------------
 Center     Atomic      Atomic             Coordinates (Angstroms)
 Number     Number       Type             X           Y           Z
 ---------------------------------------------------------------------
      1          6           0        3.665176   -0.667692   -0.048400
      2          6           0        2.159967   -0.597190    0.001873
      3          6           0        1.509446    0.628550    0.046198
      4          6           0        0.105674    0.717295    0.090310
      5          6           0       -0.672281   -0.478462    0.056248
      6          6           0        0.016618   -1.708514    0.023794
      7          6           0        1.396408   -1.780162    0.002130
      8          6           0       -2.143291   -0.438946   -0.005600
      9          8           0       -2.776146    0.621814   -0.031649
     10          6           0       -2.918183   -1.746663   -0.059129
     11          7           0       -0.508626    1.947960    0.238147
     12          8           0        0.237053    3.046431   -0.262504
     13          1           0        4.004694   -1.151693   -0.972469
     14          1           0        4.116583    0.327420   -0.003296
     15          1           0        4.059736   -1.259367    0.786521
     16          1           0        2.079367    1.549342    0.037546
     17          1           0       -0.555631   -2.629431    0.004633
     18          1           0        1.893277   -2.745856   -0.023670
     19          1           0       -2.658294   -2.326709   -0.951757
     20          1           0       -2.704450   -2.372284    0.814724
     21          1           0       -3.982814   -1.509905   -0.082258
     22          1           0       -1.472380    1.970666   -0.094331
     23          1           0        0.375824    3.596846    0.526012
 ---------------------------------------------------------------------

 SCF Done:  E(UB3LYP) =  -554.943061820     A.U. after   31 cycles

 The electronic state is 2-A.
 Alpha  occ. eigenvalues --  -19.02968 -18.91247 -14.21107 -10.05731 -10.05357
 Alpha  occ. eigenvalues --  -10.04092 -10.02016 -10.01810 -10.01488 -10.01328
 Alpha  occ. eigenvalues --  -10.00919 -10.00774  -0.94323  -0.85316  -0.73190
 Alpha  occ. eigenvalues --   -0.68387  -0.62910  -0.58427  -0.57498  -0.54376
 Alpha  occ. eigenvalues --   -0.45914  -0.45210  -0.40857  -0.39201  -0.34890
 Alpha  occ. eigenvalues --   -0.33562  -0.32008  -0.30413  -0.29352  -0.28735
 Alpha  occ. eigenvalues --   -0.28581  -0.28365  -0.26413  -0.23604  -0.23459
 Alpha  occ. eigenvalues --   -0.22666  -0.21224  -0.19450  -0.19072  -0.18067
 Alpha  occ. eigenvalues --   -0.15472  -0.10171  -0.08043  -0.06242   0.05623
 Alpha virt. eigenvalues --    0.08368   0.09030   0.09666   0.11136   0.11858
 Alpha virt. eigenvalues --    0.12395   0.13033   0.13662   0.14242   0.14794
 Alpha virt. eigenvalues --    0.15026   0.16759   0.17110   0.17831   0.18039

  Beta  occ. eigenvalues --  -19.02937 -18.90680 -14.21048 -10.05332 -10.05167
  Beta  occ. eigenvalues --  -10.04123 -10.02051 -10.01471 -10.01406 -10.01274
  Beta  occ. eigenvalues --  -10.00966 -10.00737  -0.94219  -0.84279  -0.72928
  Beta  occ. eigenvalues --   -0.68091  -0.62469  -0.58157  -0.57308  -0.54251
  Beta  occ. eigenvalues --   -0.45319  -0.45068  -0.40409  -0.39087  -0.34630
  Beta  occ. eigenvalues --   -0.33245  -0.31784  -0.30216  -0.28956  -0.28464
  Beta  occ. eigenvalues --   -0.28184  -0.28027  -0.26204  -0.23428  -0.23161
  Beta  occ. eigenvalues --   -0.21892  -0.20904  -0.19282  -0.18031  -0.16740
  Beta  occ. eigenvalues --   -0.14817  -0.08735  -0.07507  -0.05506
  Beta virt. eigenvalues --    0.08293   0.09029   0.09608   0.10993   0.11244
  Beta virt. eigenvalues --    0.12297   0.12520   0.13516   0.13649   0.14625
  Beta virt. eigenvalues --    0.14724   0.14941   0.16666   0.17009   0.17928

 Mulliken charges and spin densities:
               1          2
     1  C   -0.498364  -0.067869
     2  C    0.705185   0.171703
     3  C   -0.927120  -0.008159
     4  C   -0.377523   0.195782
     5  C    1.987539  -0.044572
     6  C   -0.983382   0.231317
     7  C   -0.675497  -0.061574
     8  C   -0.249720   0.176460
     9  O   -0.452504   0.194234
    10  C   -0.454035  -0.035575
    11  N   -0.373247   0.007249
    12  O   -0.115606   0.005699
    13  H    0.077712   0.059543
    14  H    0.122146   0.001588
    15  H    0.117405   0.008808
    16  H    0.058429   0.037683
    17  H    0.087935  -0.009051
    18  H    0.107687   0.008319
    19  H    0.082335   0.049309
    20  H    0.101888   0.022260
    21  H    0.156069  -0.002453
    22  H    0.314127   0.014199
    23  H    0.188542   0.045098
 Sum of Mulliken charges =  -1.00000   1.00000

 Dipole moment (field-independent basis, Debye):
    X=              3.1377    Y=             -0.3022    Z=              0.9479  Tot=              3.2916
 Quadrupole moment (field-independent basis, Debye-Ang):
   XX=           -104.8427   YY=            -85.0274   ZZ=            -81.8360
   XY=              4.8114   XZ=              1.6621   YZ=              3.4146

 Summary of Natural Population Analysis:

                                       Natural Population
                Natural  -----------------------------------------------
    Atom  No    Charge         Core      Valence    Rydberg      Total
 -----------------------------------------------------------------------
      C    1   -0.29186      0.99965     2.28781    0.00441     3.29186
      C    2    0.05638      0.99953     1.93554    0.00856     2.94362
      C    3   -0.15064      0.99949     2.14165    0.00950     3.15064
      C    4    0.13358      0.99948     1.85485    0.01210     2.86642
      C    5   -0.09145      0.99945     2.08211    0.00989     3.09145
      C    6   -0.03933      0.99956     2.03194    0.00783     3.03933
      C    7   -0.16207      0.99953     2.15277    0.00977     3.16207
      C    8    0.31495      0.99964     1.66414    0.02127     2.68505
      O    9   -0.27626      0.99987     3.26948    0.00691     4.27626
      C   10   -0.32919      0.99965     2.32520    0.00434     3.32919
      N   11   -0.16510      0.99960     2.65043    0.01507     3.66510
      O   12   -0.29343      0.99990     3.28580    0.00773     4.29343
      H   13    0.09880      0.00000     0.40000    0.00120     0.40120
      H   14    0.09465      0.00000     0.40449    0.00086     0.40535
      H   15    0.09707      0.00000     0.40191    0.00102     0.40293
      H   16    0.09766      0.00000     0.40090    0.00143     0.40234
      H   17    0.09098      0.00000     0.40800    0.00101     0.40902
      H   18    0.08797      0.00000     0.41061    0.00143     0.41203
      H   19    0.09971      0.00000     0.39831    0.00198     0.40029
      H   20    0.09964      0.00000     0.39940    0.00096     0.40036
      H   21    0.10139      0.00000     0.39740    0.00121     0.39861
      H   22    0.20226      0.00000     0.29473    0.00301     0.29774
      H   23    0.22430      0.00000     0.27266    0.00305     0.27570
 =======================================================================
   * Total *    0.00000     11.99533    31.87012    0.13455    44.00000

 Normal termination of Gaussian 16 at Wed Dec  9 17:25:26 2020.
