 Gaussian 16, Revision A.03,

 -----------------------------------------------------------
 # opt freq B3LYP/6-31G(d) empiricaldispersion=gd3bj scf=xqc
 -----------------------------------------------------------

 ------------------------------
 CID_145778341_JID_259_neutraal
 ------------------------------
 Symbolic Z-matrix:
 Charge =  0 Multiplicity = 1

 SCF Done:  E(RB3LYP) =  -463.692708958     A.U. after   14 cycles
 SCF Done:  E(RB3LYP) =  -463.695434326     A.U. after   13 cycles
 SCF Done:  E(RB3LYP) =  -463.696098273     A.U. after   12 cycles
 SCF Done:  E(RB3LYP) =  -463.696820946     A.U. after   11 cycles
 SCF Done:  E(RB3LYP) =  -463.697051413     A.U. after   11 cycles
 SCF Done:  E(RB3LYP) =  -463.697133765     A.U. after   11 cycles
 SCF Done:  E(RB3LYP) =  -463.697198824     A.U. after   11 cycles
 SCF Done:  E(RB3LYP) =  -463.697229871     A.U. after   10 cycles
 SCF Done:  E(RB3LYP) =  -463.697242941     A.U. after   10 cycles
 SCF Done:  E(RB3LYP) =  -463.697246074     A.U. after    9 cycles
 SCF Done:  E(RB3LYP) =  -463.697247947     A.U. after   10 cycles
 SCF Done:  E(RB3LYP) =  -463.697248193     A.U. after    8 cycles
 SCF Done:  E(RB3LYP) =  -463.697248294     A.U. after    8 cycles
 SCF Done:  E(RB3LYP) =  -463.697248354     A.U. after    7 cycles
 Optimization completed.
    -- Stationary point found.

 1\1\GINC-NODE114\FOpt\RB3LYP\6-31G(d)\C8H14O2\VSC10255\08-Dec-2020\0\\
 # opt freq B3LYP/6-31G(d) empiricaldispersion=gd3bj scf=xqc\\CID_14577
 8341_JID_259_neutraal\\0,1\C,0.7015031446,0.0231211442,0.0591802338\C,
 0.2113018145,0.978744791,-1.0321129734\C,0.7532307095,0.6587694545,-2.
 4322191113\C,0.4624569383,-0.7371274925,-3.0201984172\C,-1.0182054038,
 -1.0288737825,-3.164654862\C,-1.6825568765,-1.073277224,-4.3174919705\
 O,-1.5712159433,-1.3242078718,-1.9275507795\C,-2.7977085821,-0.8638150
 493,-1.5265836676\C,-3.5425481279,0.1038095472,-2.0602537242\O,1.14924

 Normal termination of Gaussian 16 at Tue Dec  8 10:23:35 2020.

 --------------------------------------------------------------------
 #N Geom=AllCheck Guess=TCheck SCRF=Check GenChk RB3LYP/6-31G(d) Freq
 --------------------------------------------------------------------

 Structure from the checkpoint file:  "JID_259.chk"
 ------------------------------
 CID_145778341_JID_259_neutraal
 ------------------------------
 Charge =  0 Multiplicity = 1

 SCF Done:  E(RB3LYP) =  -463.697248354     A.U. after    1 cycles

  Exact polarizability:  94.848   1.064  96.122  -7.360   6.100  74.664
 Approx polarizability: 126.645  -1.246 130.454 -19.060  13.472 121.777

                      1                      2                      3
                      A                      A                      A
 Frequencies --     37.1395                63.3186                96.0821
 Red. masses --      3.3754                 4.2012                 2.9474
 Frc consts  --      0.0027                 0.0099                 0.0160
 IR Inten    --      0.3650                 0.1592                 0.2902

                      4                      5                      6
                      A                      A                      A
 Frequencies --    152.0002               161.7772               198.3261
 Red. masses --      2.5004                 1.8856                 2.1022
 Frc consts  --      0.0340                 0.0291                 0.0487
 IR Inten    --      0.6850                 4.3280                 4.1999

                      7                      8                      9
                      A                      A                      A
 Frequencies --    220.2687               246.5511               291.3022
 Red. masses --      4.0111                 1.6210                 1.9930
 Frc consts  --      0.1147                 0.0581                 0.0996
 IR Inten    --      0.6512                 5.1299                26.3942

                     10                     11                     12
                      A                      A                      A
 Frequencies --    314.9031               325.4961               353.4888
 Red. masses --      1.2973                 2.0125                 4.3145
 Frc consts  --      0.0758                 0.1256                 0.3176
 IR Inten    --     67.5865                 6.5854                 2.8191

                     13                     14                     15
                      A                      A                      A
 Frequencies --    395.3034               466.8543               538.5294
 Red. masses --      2.6624                 2.8539                 3.2912
 Frc consts  --      0.2451                 0.3665                 0.5624
 IR Inten    --     10.9588                12.8617                 0.8371

                     16                     17                     18
                      A                      A                      A
 Frequencies --    612.7379               639.6453               706.7230
 Red. masses --      2.4110                 2.7622                 1.5188
 Frc consts  --      0.5333                 0.6659                 0.4469
 IR Inten    --     10.7091                 5.9002                 4.7615

                     19                     20                     21
                      A                      A                      A
 Frequencies --    750.5625               755.7317               842.1906
 Red. masses --      1.1657                 1.4206                 1.6203
 Frc consts  --      0.3869                 0.4780                 0.6771
 IR Inten    --     11.1805                13.6926                 1.5361

                     22                     23                     24
                      A                      A                      A
 Frequencies --    855.9844               881.7330               888.5702
 Red. masses --      1.3852                 1.4253                 2.5095
 Frc consts  --      0.5980                 0.6529                 1.1674
 IR Inten    --     56.2304                14.1383                22.2455

                     25                     26                     27
                      A                      A                      A
 Frequencies --    899.6913               949.9089               997.0954
 Red. masses --      2.7272                 1.5040                 1.7067
 Frc consts  --      1.3006                 0.7996                 0.9997
 IR Inten    --      7.9433                 7.4786                13.4845

                     28                     29                     30
                      A                      A                      A
 Frequencies --   1001.1324              1002.4524              1082.2507
 Red. masses --      1.7430                 1.2287                 3.4378
 Frc consts  --      1.0293                 0.7275                 2.3724
 IR Inten    --     25.2830                11.8987                84.7137

                     31                     32                     33
                      A                      A                      A
 Frequencies --   1090.2022              1120.1817              1155.2816
 Red. masses --      2.1587                 1.7115                 1.8980
 Frc consts  --      1.5116                 1.2653                 1.4925
 IR Inten    --      9.7307                 2.2851                20.7925

                     34                     35                     36
                      A                      A                      A
 Frequencies --   1210.3673              1242.8918              1259.4356
 Red. masses --      2.3314                 1.5134                 2.5219
 Frc consts  --      2.0124                 1.3774                 2.3569
 IR Inten    --     74.3002                14.0962               173.7741

                     37                     38                     39
                      A                      A                      A
 Frequencies --   1286.3415              1339.4526              1375.7527
 Red. masses --      1.3168                 1.1997                 1.3148
 Frc consts  --      1.2838                 1.2682                 1.4662
 IR Inten    --     16.8606                 7.4003                 6.1831

                     40                     41                     42
                      A                      A                      A
 Frequencies --   1383.9617              1401.9604              1407.3732
 Red. masses --      1.4064                 1.3701                 1.3517
 Frc consts  --      1.5871                 1.5866                 1.5774
 IR Inten    --     57.8150                31.9061                 1.7510

                     43                     44                     45
                      A                      A                      A
 Frequencies --   1430.0425              1438.2740              1444.7977
 Red. masses --      1.1886                 1.3432                 1.2657
 Frc consts  --      1.4321                 1.6371                 1.5566
 IR Inten    --      1.1484                15.8693                15.6035

                     46                     47                     48
                      A                      A                      A
 Frequencies --   1454.7202              1512.8841              1526.2153
 Red. masses --      1.1618                 1.0882                 1.0453
 Frc consts  --      1.4485                 1.4675                 1.4345
 IR Inten    --      6.7674                 1.8048                 0.5889

                     49                     50                     51
                      A                      A                      A
 Frequencies --   1535.8477              1547.0394              1708.5714
 Red. masses --      1.0693                 1.0608                 4.3540
 Frc consts  --      1.4860                 1.4958                 7.4886
 IR Inten    --      5.1419                 4.8693               119.2514

                     52                     53                     54
                      A                      A                      A
 Frequencies --   1739.3910              3009.9585              3045.6648
 Red. masses --      5.7598                 1.0648                 1.0604
 Frc consts  --     10.2672                 5.6838                 5.7956
 IR Inten    --     65.1003                27.9344                41.0248

                     55                     56                     57
                      A                      A                      A
 Frequencies --   3048.1330              3062.5622              3080.6843
 Red. masses --      1.0476                 1.0932                 1.0884
 Frc consts  --      5.7346                 6.0409                 6.0860
 IR Inten    --     26.2672                12.7897                31.3123

                     58                     59                     60
                      A                      A                      A
 Frequencies --   3097.5901              3113.6242              3134.4783
 Red. masses --      1.0954                 1.0987                 1.1008
 Frc consts  --      6.1927                 6.2757                 6.3720
 IR Inten    --     11.5836                45.3477                35.5933

                     61                     62                     63
                      A                      A                      A
 Frequencies --   3198.6879              3206.7109              3218.8386
 Red. masses --      1.0584                 1.0593                 1.0948
 Frc consts  --      6.3802                 6.4180                 6.6830
 IR Inten    --      1.9349                 0.0654                13.4440

                     64                     65                     66
                      A                      A                      A
 Frequencies --   3287.7531              3292.9332              3728.3100
 Red. masses --      1.1169                 1.1171                 1.0659
 Frc consts  --      7.1134                 7.1367                 8.7299
 IR Inten    --      8.7410                 0.4886                10.0101

 - Thermochemistry -
 -------------------
 Temperature   298.150 Kelvin.  Pressure   1.00000 Atm.
 Atom     1 has atomic number  6 and mass  12.00000

 Molecular mass:   142.09938 amu.
 Principal axes and moments of inertia in atomic units:
                           1         2         3
     Eigenvalues --  1265.139711521.177102361.40760
           X            0.99316  -0.11640  -0.00974
           Y            0.11657   0.99299   0.01947
           Z            0.00741  -0.02047   0.99976
 This molecule is an asymmetric top.
 Rotational symmetry number  1.
 Warning -- assumption of classical behavior for rotation
           may cause significant error
 Rotational temperatures (Kelvin)      0.06846     0.05694     0.03668
 Rotational constants (GHZ):           1.42652     1.18641     0.76427
 Zero-point vibrational energy     549472.7 (Joules/Mol)
                                  131.32713 (Kcal/Mol)
 Warning -- explicit consideration of  16 degrees of freedom as
           vibrations may cause significant error
 Vibrational temperatures:     53.44    91.10   138.24   218.69   232.76
          (Kelvin)            285.35   316.92   354.73   419.12   453.08
                              468.32   508.59   568.75   671.70   774.82
                              881.59   920.31  1016.82  1079.89  1087.33
                             1211.72  1231.57  1268.62  1278.45  1294.46
                             1366.71  1434.60  1440.41  1442.31  1557.12
                             1568.56  1611.69  1662.19  1741.45  1788.24
                             1812.05  1850.76  1927.17  1979.40  1991.21
                             2017.11  2024.90  2057.51  2069.36  2078.74
                             2093.02  2176.70  2195.88  2209.74  2225.84
                             2458.25  2502.60  4330.66  4382.03  4385.58
                             4406.34  4432.42  4456.74  4479.81  4509.82
                             4602.20  4613.74  4631.19  4730.34  4737.80
                             5364.21

 Zero-point correction=                           0.209283 (Hartree/Particle)
 Thermal correction to Energy=                    0.220995
 Thermal correction to Enthalpy=                  0.221939
 Thermal correction to Gibbs Free Energy=         0.171629
 Sum of electronic and zero-point Energies=           -463.487965
 Sum of electronic and thermal Energies=              -463.476253
 Sum of electronic and thermal Enthalpies=            -463.475309
 Sum of electronic and thermal Free Energies=         -463.525619

                     E (Thermal)             CV                S
                      KCal/Mol        Cal/Mol-Kelvin    Cal/Mol-Kelvin
 Total                  138.677             43.115            105.886
 Electronic               0.000              0.000              0.000
 Translational            0.889              2.981             40.765
 Rotational               0.889              2.981             29.898
 Vibrational            136.899             37.153             35.223
 Vibration     1          0.594              1.982              5.406
 Vibration     2          0.597              1.972              4.351
 Vibration     3          0.603              1.952              3.532
 Vibration     4          0.619              1.900              2.647
 Vibration     5          0.622              1.889              2.529
 Vibration     6          0.637              1.842              2.149
 Vibration     7          0.647              1.810              1.957
 Vibration     8          0.661              1.768              1.755
 Vibration     9          0.687              1.690              1.466
 Vibration    10          0.702              1.645              1.336
 Vibration    11          0.710              1.624              1.282
 Vibration    12          0.730              1.568              1.151
 Vibration    13          0.762              1.480              0.980
 Vibration    14          0.824              1.324              0.746
 Vibration    15          0.894              1.165              0.568
 Vibration    16          0.972              1.005              0.428

 Optimization completed.
    -- Stationary point found.

 1\1\GINC-NODE114\Freq\RB3LYP\6-31G(d)\C8H14O2\VSC10255\08-Dec-2020\0\\
 #N Geom=AllCheck Guess=TCheck SCRF=Check GenChk RB3LYP/6-31G(d) Freq\\
 CID_145778341_JID_259_neutraal\\0,1\C,0.7015031446,0.0231211442,0.0591
 802338\C,0.2113018145,0.978744791,-1.0321129734\C,0.7532307095,0.65876
 94545,-2.4322191113\C,0.4624569383,-0.7371274925,-3.0201984172\C,-1.01
 82054038,-1.0288737825,-3.164654862\C,-1.6825568765,-1.073277224,-4.31
 74919705\O,-1.5712159433,-1.3242078718,-1.9275507795\C,-2.7977085821,-
 0.8638150493,-1.5265836676\C,-3.5425481279,0.1038095472,-2.0602537242\

 Normal termination of Gaussian 16 at Tue Dec  8 10:28:14 2020.

 ----------------------------------------------------------------------
 # B3LYP/6-311++G(d,p) empiricaldispersion=gd3bj scf=xqc pop=npa geom=c
 heck
 ----------------------------------------------------------------------

 --------------------------------------
 CID_145778341_JID_259_Energie_neutraal
 --------------------------------------
 Structure from the checkpoint file:  "JID_259.chk"
 Charge =  0 Multiplicity = 1

 SCF Done:  E(RB3LYP) =  -463.842875574     A.U. after   14 cycles
 Normal termination of Gaussian 16 at Tue Dec  8 10:30:15 2020.

 ----------------------------------------------------------------------
 # B3LYP/6-311++G(d,p) empiricaldispersion=gd3bj scf=xqc pop=npa geom=c
 heck
 ----------------------------------------------------------------------

 ------------------------------------
 CID_145778341_JID_259_Energie_kation
 ------------------------------------
 Structure from the checkpoint file:  "JID_259.chk"
 Charge =  1 Multiplicity = 2

 SCF Done:  E(UB3LYP) =  -463.530247408     A.U. after   21 cycles
 Normal termination of Gaussian 16 at Tue Dec  8 10:36:56 2020.
 Gaussian 16:  ES64L-G16RevA.03 25-Dec-2016

 -----------------------------------
 CID_145778341_JID_259_Energie_anion
 -----------------------------------
 Structure from the checkpoint file:  "JID_259.chk"
 Charge = -1 Multiplicity = 2

                         Standard orientation:
 ---------------------------------------------------------------------
 Center     Atomic      Atomic             Coordinates (Angstroms)
 Number     Number       Type             X           Y           Z
 ---------------------------------------------------------------------
      1          6           0        1.633084   -2.203659   -0.565701
      2          6           0        1.236741   -1.505633    0.738180
      3          6           0        1.589504   -0.012241    0.779507
      4          6           0        0.997380    0.902651   -0.311895
      5          6           0       -0.518514    0.921561   -0.319064
      6          6           0       -1.275076    1.938242    0.088786
      7          8           0       -1.009470   -0.243943   -0.888303
      8          6           0       -2.091446   -0.921754   -0.391391
      9          6           0       -2.687574   -0.791003    0.793270
     10          8           0        1.537703    2.212277   -0.178895
     11          1           0        1.049513   -1.826118   -1.410470
     12          1           0        1.459733   -3.283385   -0.497977
     13          1           0        2.696165   -2.050503   -0.790278
     14          1           0        0.167115   -1.646806    0.924806
     15          1           0        1.757540   -1.986291    1.576826
     16          1           0        1.279737    0.400187    1.752259
     17          1           0        2.679133    0.105434    0.714960
     18          1           0        1.324829    0.552703   -1.297284
     19          1           0       -2.356958    1.903124    0.059490
     20          1           0       -0.799307    2.850561    0.424389
     21          1           0       -2.397742   -1.668071   -1.117683
     22          1           0       -3.509877   -1.453334    1.037060
     23          1           0       -2.390170   -0.052776    1.527057
     24          1           0        1.509822    2.439616    0.764266
 ---------------------------------------------------------------------

 SCF Done:  E(UB3LYP) =  -463.825380851     A.U. after   33 cycles
 SCF Done:  E(UB3LYP) =  -463.825380851     a.u. after    1 cycles

 The electronic state is 2-A.
 Alpha  occ. eigenvalues --  -19.06951 -19.02327 -10.13550 -10.13464 -10.12832
 Alpha  occ. eigenvalues --  -10.06558 -10.06010 -10.05977 -10.05912 -10.05146
 Alpha  occ. eigenvalues --   -0.98555  -0.92818  -0.70663  -0.68046  -0.65032
 Alpha  occ. eigenvalues --   -0.61047  -0.56072  -0.53349  -0.48012  -0.44240
 Alpha  occ. eigenvalues --   -0.40995  -0.40547  -0.38527  -0.35804  -0.34978
 Alpha  occ. eigenvalues --   -0.33390  -0.31684  -0.30738  -0.30423  -0.29165
 Alpha  occ. eigenvalues --   -0.27246  -0.26837  -0.25675  -0.23429  -0.22883
 Alpha  occ. eigenvalues --   -0.21970  -0.18397  -0.17072  -0.13197   0.04819
 Alpha virt. eigenvalues --    0.06744   0.07367   0.08343   0.08540   0.09442
 Alpha virt. eigenvalues --    0.09719   0.10396   0.10832   0.11756   0.12207
 Alpha virt. eigenvalues --    0.12844   0.13142   0.14154   0.14579   0.14994

  Beta  occ. eigenvalues --  -19.06952 -19.02294 -10.13554 -10.13447 -10.12828
  Beta  occ. eigenvalues --  -10.06526 -10.05986 -10.05958 -10.05879 -10.05121
  Beta  occ. eigenvalues --   -0.98551  -0.92755  -0.70631  -0.68008  -0.64999
  Beta  occ. eigenvalues --   -0.60998  -0.56016  -0.53298  -0.47943  -0.44186
  Beta  occ. eigenvalues --   -0.40961  -0.40495  -0.38471  -0.35749  -0.34944
  Beta  occ. eigenvalues --   -0.33353  -0.31645  -0.30700  -0.30394  -0.29132
  Beta  occ. eigenvalues --   -0.27211  -0.26804  -0.25643  -0.23380  -0.22852
  Beta  occ. eigenvalues --   -0.21927  -0.18364  -0.17045  -0.13165
  Beta virt. eigenvalues --    0.07264   0.07931   0.08214   0.08613   0.09066
  Beta virt. eigenvalues --    0.10071   0.10308   0.10956   0.11393   0.11962
  Beta virt. eigenvalues --    0.12686   0.13092   0.13591   0.14481   0.14961

 Mulliken charges and spin densities:
               1          2
     1  C    1.027322  -1.651491
     2  C   -1.371402   1.226800
     3  C    1.810463  -2.006976
     4  C    0.216461  -0.636278
     5  C   -1.422756   1.581208
     6  C    1.135571  -1.530525
     7  O   -0.035231   0.004344
     8  C   -0.179198   0.118538
     9  C    0.821194  -1.201334
    10  O   -0.194809  -0.013908
    11  H   -0.054557   0.218822
    12  H   -0.321993   0.459390
    13  H   -0.002060   0.130726
    14  H    0.329499  -0.186242
    15  H   -0.664543   0.842330
    16  H   -0.529418   0.681135
    17  H   -0.013319   0.187317
    18  H    0.043141   0.178648
    19  H    0.137666   0.002788
    20  H   -0.252991   0.386391
    21  H   -0.806589   0.989249
    22  H   -0.387245   0.533008
    23  H   -0.183774   0.323489
    24  H   -0.101432   0.362571
 Sum of Mulliken charges =  -1.00000   1.00000

 Dipole moment (field-independent basis, Debye):
    X=             -0.0763    Y=              2.1051    Z=             -2.1072  Tot=              2.9795
 Quadrupole moment (field-independent basis, Debye-Ang):
   XX=           -113.8705   YY=           -115.7839   ZZ=            -96.8920
   XY=             -6.8218   XZ=             -5.2546   YZ=             -2.4226

 Summary of Natural Population Analysis:

                                       Natural Population
                Natural  -----------------------------------------------
    Atom  No    Charge         Core      Valence    Rydberg      Total
 -----------------------------------------------------------------------
      C    1   -0.28783      0.99966     2.28232    0.00585     3.28783
      C    2   -0.19422      0.99963     2.18631    0.00828     3.19422
      C    3   -0.19487      0.99961     2.18533    0.00993     3.19487
      C    4    0.04390      0.99950     1.94252    0.01408     2.95610
      C    5    0.15636      0.99937     1.82888    0.01539     2.84364
      C    6   -0.23166      0.99949     2.22384    0.00832     3.23166
      O    7   -0.28138      0.99985     3.26859    0.01294     4.28138
      C    8    0.08566      0.99945     1.89938    0.01551     2.91434
      C    9   -0.24990      0.99958     2.24282    0.00750     3.24990
      O   10   -0.36621      0.99990     3.35971    0.00660     4.36621
      H   11    0.09907      0.00000     0.39943    0.00150     0.40093
      H   12    0.10008      0.00000     0.39879    0.00112     0.39992
      H   13    0.09327      0.00000     0.40571    0.00103     0.40673
      H   14    0.10006      0.00000     0.39764    0.00230     0.39994
      H   15    0.09654      0.00000     0.40192    0.00154     0.40346
      H   16    0.09928      0.00000     0.39782    0.00290     0.40072
      H   17    0.10026      0.00000     0.39836    0.00138     0.39974
      H   18    0.09390      0.00000     0.40380    0.00230     0.40610
      H   19    0.10236      0.00000     0.39667    0.00098     0.39764
      H   20    0.10685      0.00000     0.39185    0.00131     0.39315
      H   21    0.09193      0.00000     0.40635    0.00172     0.40807
      H   22    0.10415      0.00000     0.39441    0.00143     0.39585
      H   23    0.10205      0.00000     0.39645    0.00149     0.39795
      H   24    0.23033      0.00000     0.26476    0.00490     0.26967
 =======================================================================
   * Total *    0.00000      9.99604    28.87365    0.13030    39.00000

 Normal termination of Gaussian 16 at Tue Dec  8 10:45:44 2020.
