 Gaussian 16, Revision A.03,

 -----------------------------------------------------------
 # opt freq B3LYP/6-31G(d) empiricaldispersion=gd3bj scf=xqc
 -----------------------------------------------------------

 ------------------------------
 CID_22057580_JID_6272_neutraal
 ------------------------------
 Symbolic Z-matrix:
 Charge =  0 Multiplicity = 1

 SCF Done:  E(RB3LYP) =  -1163.61041847     A.U. after   15 cycles
 SCF Done:  E(RB3LYP) =  -1163.62143761     A.U. after   13 cycles
 SCF Done:  E(RB3LYP) =  -1163.62173207     A.U. after   14 cycles
 SCF Done:  E(RB3LYP) =  -1163.62292368     A.U. after   13 cycles
 SCF Done:  E(RB3LYP) =  -1163.62571504     A.U. after   13 cycles
 SCF Done:  E(RB3LYP) =  -1163.62698845     A.U. after   13 cycles
 SCF Done:  E(RB3LYP) =  -1163.62843465     A.U. after   15 cycles
 SCF Done:  E(RB3LYP) =  -1163.62976888     A.U. after   15 cycles
 SCF Done:  E(RB3LYP) =  -1163.63021809     A.U. after   13 cycles
 SCF Done:  E(RB3LYP) =  -1163.63090961     A.U. after   13 cycles
 SCF Done:  E(RB3LYP) =  -1163.65077505     A.U. after    9 cycles
 SCF Done:  E(RB3LYP) =  -1163.65077609     A.U. after    8 cycles
 SCF Done:  E(RB3LYP) =  -1163.65077687     A.U. after    9 cycles
 SCF Done:  E(RB3LYP) =  -1163.65077720     A.U. after    8 cycles
 SCF Done:  E(RB3LYP) =  -1163.65077725     A.U. after    7 cycles
 Optimization completed.
    -- Stationary point found.
 Normal termination of Gaussian 16 at Sun Dec 13 13:34:18 2020.

 --------------------------------------------------------------------
 #N Geom=AllCheck Guess=TCheck SCRF=Check GenChk RB3LYP/6-31G(d) Freq
 --------------------------------------------------------------------

 Structure from the checkpoint file:  "JID_6272.chk"
 ------------------------------
 CID_22057580_JID_6272_neutraal
 ------------------------------
 Charge =  0 Multiplicity = 1

 SCF Done:  E(RB3LYP) =  -1163.65077725     A.U. after    1 cycles

  Exact polarizability: 173.118 -11.426 132.208  -0.882  -0.613 111.049
 Approx polarizability: 213.956 -18.296 202.526  -0.245  -1.353 165.535

                      1                      2                      3
                      A                      A                      A
 Frequencies --     13.2586                29.8757                35.0203
 Red. masses --      5.5019                 4.4618                 6.7856
 Frc consts  --      0.0006                 0.0023                 0.0049
 IR Inten    --      1.5504                 1.7773                 1.4763

                      4                      5                      6
                      A                      A                      A
 Frequencies --     59.0769                64.0003                76.5151
 Red. masses --      4.6239                 8.6685                 7.5850
 Frc consts  --      0.0095                 0.0209                 0.0262
 IR Inten    --      3.8140                 2.0727                 1.4128

                      7                      8                      9
                      A                      A                      A
 Frequencies --    104.6320               113.8316               125.6676
 Red. masses --      3.7772                 4.0982                 6.5119
 Frc consts  --      0.0244                 0.0313                 0.0606
 IR Inten    --      1.5985                 0.4401                 0.6595

                     10                     11                     12
                      A                      A                      A
 Frequencies --    158.0751               178.5611               202.2601
 Red. masses --      4.5728                 3.0289                 1.3054
 Frc consts  --      0.0673                 0.0569                 0.0315
 IR Inten    --     17.3362                24.8333                39.6012

                     13                     14                     15
                      A                      A                      A
 Frequencies --    209.8048               237.5319               254.5508
 Red. masses --      1.4751                 3.2103                 2.0801
 Frc consts  --      0.0383                 0.1067                 0.0794
 IR Inten    --      5.9957                 7.5777                13.9151

                     16                     17                     18
                      A                      A                      A
 Frequencies --    257.7200               278.6218               311.5287
 Red. masses --      3.3188                 1.0368                 1.7134
 Frc consts  --      0.1299                 0.0474                 0.0980
 IR Inten    --     67.5700                 1.9525                 2.4488

                     19                     20                     21
                      A                      A                      A
 Frequencies --    329.7663               338.5859               345.2350
 Red. masses --      2.6439                 1.8895                 1.2194
 Frc consts  --      0.1694                 0.1276                 0.0856
 IR Inten    --     30.1968                18.0962                 8.0245

                     22                     23                     24
                      A                      A                      A
 Frequencies --    353.2614               390.9493               396.3800
 Red. masses --      2.7824                 2.4378                 2.5270
 Frc consts  --      0.2046                 0.2195                 0.2339
 IR Inten    --      4.1190                 4.9746                12.0542

                     25                     26                     27
                      A                      A                      A
 Frequencies --    437.7871               439.6509               454.4138
 Red. masses --      2.5848                 3.4978                 2.2794
 Frc consts  --      0.2919                 0.3983                 0.2773
 IR Inten    --      1.9198                 3.7751                 2.2937

                     28                     29                     30
                      A                      A                      A
 Frequencies --    524.3347               552.6202               605.1906
 Red. masses --      2.6554                 3.9142                 3.3827
 Frc consts  --      0.4301                 0.7043                 0.7300
 IR Inten    --      0.0978                27.1777                 6.7491

                     31                     32                     33
                      A                      A                      A
 Frequencies --    647.2488               667.5639               743.8558
 Red. masses --      4.2775                 3.4110                 5.5821
 Frc consts  --      1.0558                 0.8956                 1.8198
 IR Inten    --      1.1267                15.1235                14.8774

                     34                     35                     36
                      A                      A                      A
 Frequencies --    752.0865               784.5777               792.6904
 Red. masses --      5.4734                 1.7993                 4.6016
 Frc consts  --      1.8241                 0.6526                 1.7036
 IR Inten    --      9.2651                15.8218                 6.1958

                     37                     38                     39
                      A                      A                      A
 Frequencies --    853.6454               897.5323               906.4028
 Red. masses --      1.4503                 3.3559                 2.4956
 Frc consts  --      0.6227                 1.5928                 1.2080
 IR Inten    --      9.0766                44.6211               190.9400

                     40                     41                     42
                      A                      A                      A
 Frequencies --    930.2953               944.6574               968.1550
 Red. masses --      3.8510                 2.8945                 1.9974
 Frc consts  --      1.9637                 1.5219                 1.1031
 IR Inten    --     22.9221                28.5726                30.6879

                     43                     44                     45
                      A                      A                      A
 Frequencies --    989.7309               993.1859              1004.5962
 Red. masses --      2.3926                 2.3727                 1.8876
 Frc consts  --      1.3809                 1.3790                 1.1224
 IR Inten    --     20.1170                10.6418                36.2336

                     46                     47                     48
                      A                      A                      A
 Frequencies --   1020.4111              1072.9614              1090.3685
 Red. masses --      1.9012                 1.0821                 1.6294
 Frc consts  --      1.1663                 0.7340                 1.1414
 IR Inten    --      7.5725                76.4043                27.4162

                     49                     50                     51
                      A                      A                      A
 Frequencies --   1099.6415              1153.0170              1159.9868
 Red. masses --      1.1908                 1.2822                 1.3235
 Frc consts  --      0.8484                 1.0043                 1.0493
 IR Inten    --      1.7317                 4.7057                 2.6262

                     52                     53                     54
                      A                      A                      A
 Frequencies --   1165.4873              1183.6977              1232.3031
 Red. masses --      2.1775                 1.2331                 1.2369
 Frc consts  --      1.7427                 1.0180                 1.1066
 IR Inten    --     29.5002                 5.7673                14.2062

                     55                     56                     57
                      A                      A                      A
 Frequencies --   1238.7969              1264.1604              1286.8116
 Red. masses --      1.2836                 1.5025                 1.6867
 Frc consts  --      1.1606                 1.4147                 1.6456
 IR Inten    --      0.1381                54.2174                10.8055

                     58                     59                     60
                      A                      A                      A
 Frequencies --   1315.7215              1321.5593              1334.9436
 Red. masses --      1.8970                 1.4590                 2.2483
 Frc consts  --      1.9349                 1.5014                 2.3606
 IR Inten    --     13.0852                47.6862               161.1576

                     61                     62                     63
                      A                      A                      A
 Frequencies --   1352.1108              1355.6580              1379.8332
 Red. masses --      1.6524                 1.2123                 2.9537
 Frc consts  --      1.7799                 1.3127                 3.3133
 IR Inten    --     22.0612                16.2353               158.0475

                     64                     65                     66
                      A                      A                      A
 Frequencies --   1392.5636              1420.8773              1438.5582
 Red. masses --      1.4777                 1.6309                 1.3138
 Frc consts  --      1.6884                 1.9400                 1.6019
 IR Inten    --      8.7603                42.1565                10.1539

                     67                     68                     69
                      A                      A                      A
 Frequencies --   1442.0315              1458.9189              1476.9028
 Red. masses --      1.1925                 1.1641                 1.1204
 Frc consts  --      1.4611                 1.4598                 1.4399
 IR Inten    --     37.8969                31.6084                 6.5094

                     70                     71                     72
                      A                      A                      A
 Frequencies --   1494.1090              1496.9350              1504.9295
 Red. masses --      1.0810                 1.0764                 1.1026
 Frc consts  --      1.4217                 1.4211                 1.4713
 IR Inten    --      9.7173                34.9715                63.3513

                     73                     74                     75
                      A                      A                      A
 Frequencies --   1511.4197              1512.3154              1524.0896
 Red. masses --      1.1799                 1.4033                 1.0539
 Frc consts  --      1.5880                 1.8910                 1.4424
 IR Inten    --      7.5722                16.7918                 4.3299

                     76                     77                     78
                      A                      A                      A
 Frequencies --   1533.1678              1535.9784              1550.1598
 Red. masses --      1.0582                 1.0808                 1.0536
 Frc consts  --      1.4655                 1.5023                 1.4917
 IR Inten    --     10.2344                18.9034                 9.3293

                     79                     80                     81
                      A                      A                      A
 Frequencies --   1574.1512              1708.7589              1709.5383
 Red. masses --      1.0501                 5.7891                 1.1191
 Frc consts  --      1.5332                 9.9592                 1.9270
 IR Inten    --     27.7230               246.6639                37.0985

                     82                     83                     84
                      A                      A                      A
 Frequencies --   1775.4528              2450.6209              2668.6257
 Red. masses --      9.5700                 1.1240                 1.0385
 Frc consts  --     17.7737                 3.9772                 4.3575
 IR Inten    --    974.4249              2788.9738                21.7396

                     85                     86                     87
                      A                      A                      A
 Frequencies --   3024.5560              3076.4619              3086.6069
 Red. masses --      1.0684                 1.0298                 1.0316
 Frc consts  --      5.7586                 5.7427                 5.7907
 IR Inten    --     25.8957                23.9722                13.0880

                     88                     89                     90
                      A                      A                      A
 Frequencies --   3088.1786              3094.6327              3095.3159
 Red. masses --      1.0620                 1.0840                 1.0359
 Frc consts  --      5.9671                 6.1167                 5.8477
 IR Inten    --     27.5733                 1.2162                41.5671

                     91                     92                     93
                      A                      A                      A
 Frequencies --   3101.4363              3104.5857              3149.7454
 Red. masses --      1.0626                 1.0941                 1.1041
 Frc consts  --      6.0222                 6.2129                 6.4538
 IR Inten    --     27.4696                17.5375                 3.9183

                     94                     95                     96
                      A                      A                      A
 Frequencies --   3171.5355              3176.3912              3186.4324
 Red. masses --      1.1076                 1.1066                 1.1096
 Frc consts  --      6.5643                 6.5780                 6.6378
 IR Inten    --      1.9351                19.1379                15.5245

                     97                     98                     99
                      A                      A                      A
 Frequencies --   3191.3697              3195.2011              3215.0404
 Red. masses --      1.1071                 1.1079                 1.1001
 Frc consts  --      6.6433                 6.6639                 6.6997
 IR Inten    --      5.3751                 1.5559                10.3566

                    100                    101                    102
                      A                      A                      A
 Frequencies --   3219.8755              3463.3551              3546.0322
 Red. masses --      1.1084                 1.0505                 1.0904
 Frc consts  --      6.7706                 7.4242                 8.0780
 IR Inten    --     18.8761                 2.1453                 2.6971

 - Thermochemistry -
 -------------------
 Temperature   298.150 Kelvin.  Pressure   1.00000 Atm.
 Atom     1 has atomic number  6 and mass  12.00000

 Molecular mass:   252.11438 amu.
 Principal axes and moments of inertia in atomic units:
                           1         2         3
     Eigenvalues --  1838.84093********************
           X            0.99994  -0.01098   0.00170
           Y            0.01098   0.99994  -0.00261
           Z           -0.00167   0.00263   1.00000
 This molecule is an asymmetric top.
 Rotational symmetry number  1.
 Warning -- assumption of classical behavior for rotation
           may cause significant error
 Rotational temperatures (Kelvin)      0.04710     0.00818     0.00748
 Rotational constants (GHZ):           0.98146     0.17042     0.15575
 Zero-point vibrational energy     802390.8 (Joules/Mol)
                                  191.77599 (Kcal/Mol)
 Warning -- explicit consideration of  30 degrees of freedom as
           vibrations may cause significant error
 Vibrational temperatures:     19.08    42.98    50.39    85.00    92.08
          (Kelvin)            110.09   150.54   163.78   180.81   227.43
                              256.91   291.01   301.86   341.76   366.24
                              370.80   400.87   448.22   474.46   487.15
                              496.72   508.26   562.49   570.30   629.88
                              632.56   653.80   754.40   795.10   870.73
                              931.25   960.48  1070.24  1082.08  1128.83
                             1140.50  1228.21  1291.35  1304.11  1338.49
                             1359.15  1392.96  1424.00  1428.97  1445.39
                             1468.14  1543.75  1568.80  1582.14  1658.93
                             1668.96  1676.88  1703.08  1773.01  1782.35
                             1818.84  1851.43  1893.03  1901.43  1920.69
                             1945.39  1950.49  1985.27  2003.59  2044.33
                             2069.76  2074.76  2099.06  2124.93  2149.69
                             2153.76  2165.26  2174.60  2175.88  2192.82
                             2205.89  2209.93  2230.33  2264.85  2458.52
                             2459.64  2554.48  3525.90  3839.56  4351.66
                             4426.34  4440.94  4443.20  4452.49  4453.47
                             4462.28  4466.81  4531.78  4563.13  4570.12
                             4584.57  4591.67  4597.18  4625.73  4632.68
                             4983.00  5101.95

 Zero-point correction=                           0.305614 (Hartree/Particle)
 Thermal correction to Energy=                    0.325166
 Thermal correction to Enthalpy=                  0.326110
 Thermal correction to Gibbs Free Energy=         0.255259
 Sum of electronic and zero-point Energies=          -1163.345163
 Sum of electronic and thermal Energies=             -1163.325611
 Sum of electronic and thermal Enthalpies=           -1163.324667
 Sum of electronic and thermal Free Energies=        -1163.395518

                     E (Thermal)             CV                S
                      KCal/Mol        Cal/Mol-Kelvin    Cal/Mol-Kelvin
 Total                  204.045             70.144            149.119
 Electronic               0.000              0.000              0.000
 Translational            0.889              2.981             42.474
 Rotational               0.889              2.981             33.778
 Vibrational            202.267             64.182             72.867
 Vibration     1          0.593              1.987              7.451
 Vibration     2          0.594              1.984              5.838
 Vibration     3          0.594              1.982              5.523
 Vibration     4          0.596              1.974              4.488
 Vibration     5          0.597              1.971              4.330
 Vibration     6          0.599              1.965              3.978
 Vibration     7          0.605              1.946              3.366
 Vibration     8          0.607              1.938              3.203
 Vibration     9          0.611              1.927              3.011
 Vibration    10          0.621              1.894              2.573
 Vibration    11          0.629              1.869              2.343
 Vibration    12          0.639              1.837              2.112
 Vibration    13          0.642              1.826              2.045
 Vibration    14          0.656              1.783              1.821
 Vibration    15          0.665              1.755              1.699
 Vibration    16          0.667              1.750              1.677
 Vibration    17          0.679              1.713              1.542
 Vibration    18          0.700              1.652              1.354
 Vibration    19          0.713              1.616              1.261
 Vibration    20          0.719              1.598              1.219
 Vibration    21          0.724              1.585              1.188
 Vibration    22          0.729              1.569              1.152
 Vibration    23          0.759              1.490              0.997
 Vibration    24          0.763              1.478              0.976
 Vibration    25          0.798              1.388              0.834
 Vibration    26          0.800              1.384              0.828
 Vibration    27          0.813              1.351              0.783
 Vibration    28          0.879              1.196              0.600
 Vibration    29          0.908              1.134              0.539
 Vibration    30          0.964              1.021              0.441

 Optimization completed.
    -- Stationary point found.
 Normal termination of Gaussian 16 at Sun Dec 13 13:45:23 2020.

 ----------------------------------------------------------------------
 # B3LYP/6-311++G(d,p) empiricaldispersion=gd3bj scf=xqc pop=npa geom=c
 heck
 ----------------------------------------------------------------------

 --------------------------------------
 CID_22057580_JID_6272_Energie_neutraal
 --------------------------------------
 Structure from the checkpoint file:  "JID_6272.chk"
 Charge =  0 Multiplicity = 1

 SCF Done:  E(RB3LYP) =  -1163.92978104     A.U. after   15 cycles
 Normal termination of Gaussian 16 at Sun Dec 13 13:51:33 2020.

 ----------------------------------------------------------------------
 # B3LYP/6-311++G(d,p) empiricaldispersion=gd3bj scf=xqc pop=npa geom=c
 heck
 ----------------------------------------------------------------------

 ------------------------------------
 CID_22057580_JID_6272_Energie_kation
 ------------------------------------
 Structure from the checkpoint file:  "JID_6272.chk"
 Charge =  1 Multiplicity = 2

 SCF Done:  E(UB3LYP) =  -1163.63168080     A.U. after   33 cycles
 SCF Done:  E(UB3LYP) =  -1163.63168080     a.u. after    2 cycles
 Normal termination of Gaussian 16 at Sun Dec 13 14:25:28 2020.
 Gaussian 16:  ES64L-G16RevA.03 25-Dec-2016

 ----------------------------------------------------------------------
 # B3LYP/6-311++G(d,p) empiricaldispersion=gd3bj scf=xqc pop=npa geom=c
 heck
 ----------------------------------------------------------------------

 -----------------------------------
 CID_22057580_JID_6272_Energie_anion
 -----------------------------------
 Structure from the checkpoint file:  "JID_6272.chk"
 Charge = -1 Multiplicity = 2

                         Standard orientation:
 ---------------------------------------------------------------------
 Center     Atomic      Atomic             Coordinates (Angstroms)
 Number     Number       Type             X           Y           Z
 ---------------------------------------------------------------------
      1          6           0       -3.142892    0.840792   -1.277109
      2          7           0       -3.390521    0.809974    0.210957
      3          6           0       -2.915027    2.100330    0.801857
      4          6           0       -4.856508    0.621390    0.474142
      5          6           0       -2.589549   -0.327656    0.842778
      6          6           0       -2.697293   -1.668025    0.052510
      7          8           0       -1.611379   -2.306356   -0.013317
      8          8           0       -3.814309   -1.973286   -0.399713
      9          6           0        2.994754    0.298510    0.903446
     10          6           0        4.491965    0.599652    0.873199
     11         16           0        5.497877   -0.621102   -0.070652
     12          6           0        2.342156    0.377723   -0.491222
     13          6           0        0.874647   -0.039506   -0.373977
     14          8           0       -0.037492    0.787593   -0.478315
     15          8           0        0.723201   -1.313331   -0.111557
     16          7           0        2.519052    1.714152   -1.055576
     17          1           0       -3.626006    1.731923   -1.682697
     18          1           0       -3.569753   -0.066824   -1.698629
     19          1           0       -2.063511    0.871127   -1.427411
     20          1           0       -3.513264    2.918779    0.395260
     21          1           0       -3.035435    2.054113    1.885587
     22          1           0       -1.862964    2.224751    0.542689
     23          1           0       -5.102042   -0.384053    0.128785
     24          1           0       -5.026986    0.716686    1.548426
     25          1           0       -5.410461    1.393409   -0.064021
     26          1           0       -1.562236    0.022601    0.870363
     27          1           0       -2.979105   -0.452347    1.857275
     28          1           0        2.511587    1.037950    1.559575
     29          1           0        2.804139   -0.689615    1.335413
     30          1           0        4.657609    1.548426    0.357307
     31          1           0        4.892923    0.681316    1.887277
     32          1           0        5.203531   -1.694093    0.696482
     33          1           0        2.849503   -0.349737   -1.132633
     34          1           0       -0.269572   -1.633065   -0.043265
     35          1           0        2.394140    1.669121   -2.065175
     36          1           0        1.748489    2.292064   -0.718371
 ---------------------------------------------------------------------

 SCF Done:  E(UB3LYP) =  -1163.93368897     A.U. after   27 cycles

 The electronic state is 2-A.
 Alpha  occ. eigenvalues --  -88.77256 -19.05699 -19.02320 -18.98466 -18.97310
 Alpha  occ. eigenvalues --  -14.35060 -14.21777 -10.21399 -10.17480 -10.13015
 Alpha  occ. eigenvalues --  -10.12942 -10.12609 -10.12420 -10.12188 -10.12090
 Alpha  occ. eigenvalues --  -10.10364  -7.85932  -5.82313  -5.81956  -5.81314
 Alpha  occ. eigenvalues --   -1.00749  -0.94898  -0.92365  -0.91820  -0.86175
 Alpha  occ. eigenvalues --   -0.81724  -0.73104  -0.66109  -0.65951  -0.65720
 Alpha  occ. eigenvalues --   -0.65583  -0.60172  -0.54228  -0.53162  -0.50041
 Alpha  occ. eigenvalues --   -0.45215  -0.44339  -0.43289  -0.43130  -0.41897
 Alpha  occ. eigenvalues --   -0.40658  -0.39374  -0.37741  -0.36880  -0.36423
 Alpha  occ. eigenvalues --   -0.35833  -0.35542  -0.33603  -0.33166  -0.33033
 Alpha  occ. eigenvalues --   -0.32460  -0.31799  -0.31367  -0.31139  -0.31017
 Alpha  occ. eigenvalues --   -0.29767  -0.28666  -0.28296  -0.27962  -0.27364
 Alpha  occ. eigenvalues --   -0.24906  -0.22876  -0.19565  -0.18175  -0.17191
 Alpha  occ. eigenvalues --   -0.16931  -0.16214  -0.14889   0.03177
 Alpha virt. eigenvalues --    0.05164   0.06632   0.06832   0.07168   0.07909
 Alpha virt. eigenvalues --    0.08496   0.08616   0.08871   0.09574   0.10025
 Alpha virt. eigenvalues --    0.10274   0.10410   0.11322   0.11733   0.12101

  Beta  occ. eigenvalues --  -88.77254 -19.05698 -19.02310 -18.98464 -18.97305
  Beta  occ. eigenvalues --  -14.35054 -14.21766 -10.21397 -10.17479 -10.13013
  Beta  occ. eigenvalues --  -10.12938 -10.12525 -10.12397 -10.12150 -10.12034
  Beta  occ. eigenvalues --  -10.10357  -7.85930  -5.82310  -5.81954  -5.81313
  Beta  occ. eigenvalues --   -1.00744  -0.94889  -0.92350  -0.91808  -0.86167
  Beta  occ. eigenvalues --   -0.81709  -0.73093  -0.66094  -0.65893  -0.65642
  Beta  occ. eigenvalues --   -0.65505  -0.60160  -0.54119  -0.53151  -0.50027
  Beta  occ. eigenvalues --   -0.45186  -0.44320  -0.43211  -0.43063  -0.41884
  Beta  occ. eigenvalues --   -0.40641  -0.39337  -0.37725  -0.36849  -0.36408
  Beta  occ. eigenvalues --   -0.35810  -0.35524  -0.33531  -0.33134  -0.33019
  Beta  occ. eigenvalues --   -0.32417  -0.31771  -0.31296  -0.31101  -0.30960
  Beta  occ. eigenvalues --   -0.29726  -0.28653  -0.28282  -0.27946  -0.27354
  Beta  occ. eigenvalues --   -0.24895  -0.22870  -0.19553  -0.18164  -0.17185
  Beta  occ. eigenvalues --   -0.16924  -0.16207  -0.14872
  Beta virt. eigenvalues --    0.05099   0.06395   0.06854   0.07142   0.08141
  Beta virt. eigenvalues --    0.08470   0.08696   0.08833   0.09175   0.09958
  Beta virt. eigenvalues --    0.10283   0.10539   0.10757   0.11711   0.11773

 Mulliken charges and spin densities:
               1          2
     1  C    0.298726  -0.625752
     2  N   -0.441987   0.299844
     3  C    1.337865  -1.628198
     4  C    0.506747  -0.814648
     5  C   -0.238364  -0.067082
     6  C    0.268800  -0.251771
     7  O   -0.423680   0.006971
     8  O   -0.370799   0.008956
     9  C   -0.048829  -0.075308
    10  C   -0.237915  -0.007634
    11  S   -0.080588  -0.037429
    12  C   -0.216081  -0.328328
    13  C   -0.317754   0.085254
    14  O   -0.253693   0.003024
    15  O   -0.312497   0.012871
    16  N   -0.252270   0.013903
    17  H   -0.253213   0.453416
    18  H    0.090366   0.085712
    19  H    0.183799   0.052288
    20  H   -0.772137   0.962816
    21  H   -0.695732   0.891566
    22  H   -0.005578   0.205396
    23  H    0.218648  -0.002394
    24  H   -0.368124   0.556503
    25  H   -0.321672   0.500947
    26  H    0.194375   0.009026
    27  H   -0.083073   0.306948
    28  H    0.005232   0.135491
    29  H    0.165874   0.020475
    30  H    0.199610   0.019574
    31  H    0.159730   0.062611
    32  H   -0.001233   0.022729
    33  H    0.174801  -0.010231
    34  H    0.522755   0.000625
    35  H    0.166158   0.077070
    36  H    0.201731   0.054758
 Sum of Mulliken charges =  -1.00000   1.00000

 Dipole moment (field-independent basis, Debye):
    X=              9.7821    Y=             -1.9005    Z=             -1.1164  Tot=             10.0273
 Quadrupole moment (field-independent basis, Debye-Ang):
   XX=           -210.7888   YY=           -169.9299   ZZ=           -135.1970
   XY=             12.2998   XZ=              9.8193   YZ=             -7.9148

 Summary of Natural Population Analysis:

                                       Natural Population
                Natural  -----------------------------------------------
    Atom  No    Charge         Core      Valence    Rydberg      Total
 -----------------------------------------------------------------------
      C    1   -0.18105      0.99961     2.17280    0.00865     3.18105
      N    2   -0.18292      0.99977     2.66843    0.01472     3.68292
      C    3   -0.17643      0.99961     2.16466    0.01216     3.17643
      C    4   -0.17907      0.99961     2.16855    0.01092     3.17907
      C    5   -0.13472      0.99954     2.12233    0.01285     3.13472
      C    6    0.38888      0.99974     1.58239    0.02899     2.61112
      O    7   -0.37576      0.99985     3.36981    0.00610     4.37576
      O    8   -0.36159      0.99988     3.35626    0.00546     4.36159
      C    9   -0.19848      0.99960     2.18730    0.01158     3.19848
      C   10   -0.24381      0.99958     2.23557    0.00866     3.24381
      S   11   -0.03001      4.99968     3.01503    0.01531     8.03001
      C   12   -0.06492      0.99957     2.05092    0.01444     3.06492
      C   13    0.40634      0.99969     1.56743    0.02653     2.59366
      O   14   -0.34916      0.99987     3.34303    0.00626     4.34916
      O   15   -0.35180      0.99985     3.34626    0.00569     4.35180
      N   16   -0.42445      0.99977     2.91559    0.00909     3.92445
      H   17    0.10608      0.00000     0.39255    0.00136     0.39392
      H   18    0.11748      0.00000     0.38113    0.00139     0.38252
      H   19    0.12026      0.00000     0.37804    0.00170     0.37974
      H   20    0.11341      0.00000     0.37907    0.00752     0.38659
      H   21    0.11085      0.00000     0.38421    0.00494     0.38915
      H   22    0.11491      0.00000     0.38242    0.00267     0.38509
      H   23    0.12830      0.00000     0.37036    0.00134     0.37170
      H   24    0.10597      0.00000     0.39225    0.00178     0.39403
      H   25    0.10688      0.00000     0.39114    0.00198     0.39312
      H   26    0.11623      0.00000     0.38158    0.00219     0.38377
      H   27    0.10949      0.00000     0.38934    0.00118     0.39051
      H   28    0.10369      0.00000     0.39505    0.00126     0.39631
      H   29    0.10716      0.00000     0.39184    0.00101     0.39284
      H   30    0.11607      0.00000     0.38243    0.00151     0.38393
      H   31    0.10101      0.00000     0.39773    0.00126     0.39899
      H   32    0.05548      0.00000     0.44161    0.00291     0.44452
      H   33    0.11008      0.00000     0.38840    0.00152     0.38992
      H   34    0.25507      0.00000     0.24116    0.00377     0.24493
      H   35    0.17651      0.00000     0.32199    0.00150     0.32349
      H   36    0.18403      0.00000     0.31404    0.00192     0.31597
 =======================================================================
   * Total *    0.00000     19.99520    47.76267    0.24212    68.00000

 Normal termination of Gaussian 16 at Sun Dec 13 14:40:49 2020.
