 Gaussian 16, Revision A.03,

 -----------------------------------------------------------
 # opt freq B3LYP/6-31G(d) empiricaldispersion=gd3bj scf=xqc
 -----------------------------------------------------------

 ------------------------------
 CID_18411437_JID_9521_neutraal
 ------------------------------
 Symbolic Z-matrix:
 Charge =  0 Multiplicity = 1

 SCF Done:  E(RB3LYP) =  -1196.28888077     A.U. after   15 cycles
 SCF Done:  E(RB3LYP) =  -1196.29410162     A.U. after   13 cycles
 SCF Done:  E(RB3LYP) =  -1196.29510271     A.U. after   13 cycles
 SCF Done:  E(RB3LYP) =  -1196.29559196     A.U. after   13 cycles
 SCF Done:  E(RB3LYP) =  -1196.29615424     A.U. after   12 cycles
 SCF Done:  E(RB3LYP) =  -1196.29650514     A.U. after   12 cycles
 SCF Done:  E(RB3LYP) =  -1196.29671714     A.U. after   13 cycles
 SCF Done:  E(RB3LYP) =  -1196.29682323     A.U. after   12 cycles
 SCF Done:  E(RB3LYP) =  -1196.29694125     A.U. after   12 cycles
 SCF Done:  E(RB3LYP) =  -1196.29696103     A.U. after   10 cycles
 SCF Done:  E(RB3LYP) =  -1196.29698888     A.U. after    8 cycles
 SCF Done:  E(RB3LYP) =  -1196.29698912     A.U. after    9 cycles
 SCF Done:  E(RB3LYP) =  -1196.29698932     A.U. after    9 cycles
 SCF Done:  E(RB3LYP) =  -1196.29698945     A.U. after    8 cycles
 SCF Done:  E(RB3LYP) =  -1196.29698958     A.U. after    8 cycles
 SCF Done:  E(RB3LYP) =  -1196.29698961     A.U. after    7 cycles
 Optimization completed.
    -- Stationary point found.
 Normal termination of Gaussian 16 at Sun Dec 13 16:15:58 2020.

 --------------------------------------------------------------------
 #N Geom=AllCheck Guess=TCheck SCRF=Check GenChk RB3LYP/6-31G(d) Freq
 --------------------------------------------------------------------

 Structure from the checkpoint file:  "JID_9521.chk"
 ------------------------------
 CID_18411437_JID_9521_neutraal
 ------------------------------
 Charge =  0 Multiplicity = 1

 SCF Done:  E(RB3LYP) =  -1196.29698961     A.U. after    1 cycles

  Exact polarizability: 239.058 -32.659 164.035  -4.938  10.141 156.117
 Approx polarizability: 306.794 -59.290 274.773 -22.432  32.522 274.943

                      1                      2                      3
                      A                      A                      A
 Frequencies --     11.4850                12.4580                21.7606
 Red. masses --      3.7577                 6.0523                 6.4160
 Frc consts  --      0.0003                 0.0006                 0.0018
 IR Inten    --      0.0517                 0.1089                 1.6822

                      4                      5                      6
                      A                      A                      A
 Frequencies --     27.2363                43.1700                62.8376
 Red. masses --      4.9480                 6.3534                 5.5918
 Frc consts  --      0.0022                 0.0070                 0.0130
 IR Inten    --      3.2912                 1.2873                 1.8260

                      7                      8                      9
                      A                      A                      A
 Frequencies --     76.7983               123.8067               141.3512
 Red. masses --      4.0054                 3.4023                 5.3667
 Frc consts  --      0.0139                 0.0307                 0.0632
 IR Inten    --      1.4028                 1.7156                 1.7808

                     10                     11                     12
                      A                      A                      A
 Frequencies --    158.0913               228.3741               248.7068
 Red. masses --      2.8909                 4.7608                 5.0748
 Frc consts  --      0.0426                 0.1463                 0.1849
 IR Inten    --      0.3944                 2.1093                11.7503

                     13                     14                     15
                      A                      A                      A
 Frequencies --    262.5955               286.0268               301.0940
 Red. masses --      4.8272                 4.3803                 2.9413
 Frc consts  --      0.1961                 0.2111                 0.1571
 IR Inten    --      1.7755                 1.8630                35.2280

                     16                     17                     18
                      A                      A                      A
 Frequencies --    339.3747               366.1795               407.3246
 Red. masses --      1.5154                 4.2258                 3.3591
 Frc consts  --      0.1028                 0.3338                 0.3284
 IR Inten    --    186.3356                 3.3364                 5.8446

                     19                     20                     21
                      A                      A                      A
 Frequencies --    413.2466               442.5873               452.2538
 Red. masses --      2.9769                 2.6198                 3.2186
 Frc consts  --      0.2995                 0.3024                 0.3879
 IR Inten    --      0.0040                30.3129                22.0654

                     22                     23                     24
                      A                      A                      A
 Frequencies --    511.1283               541.2984               559.8701
 Red. masses --      3.1927                 3.0859                 2.5538
 Frc consts  --      0.4914                 0.5327                 0.4716
 IR Inten    --      4.5538                15.2463                 2.8671

                     25                     26                     27
                      A                      A                      A
 Frequencies --    565.3891               599.3537               626.1829
 Red. masses --      3.0551                 2.9827                 6.4719
 Frc consts  --      0.5754                 0.6313                 1.4952
 IR Inten    --     31.4215                27.1092                20.2125

                     28                     29                     30
                      A                      A                      A
 Frequencies --    636.5532               644.5767               670.7560
 Red. masses --      6.3958                 2.8773                 3.9084
 Frc consts  --      1.5269                 0.7043                 1.0360
 IR Inten    --      0.0023                65.5095                14.5838

                     31                     32                     33
                      A                      A                      A
 Frequencies --    684.2104               703.6951               726.2613
 Red. masses --      2.1296                 2.0745                 2.4345
 Frc consts  --      0.5874                 0.6052                 0.7566
 IR Inten    --     10.2070                15.8979                33.9185

                     34                     35                     36
                      A                      A                      A
 Frequencies --    745.6864               764.3629               795.4091
 Red. masses --      2.3572                 3.4259                 4.2941
 Frc consts  --      0.7722                 1.1793                 1.6007
 IR Inten    --     15.1658                 8.7487                34.0268

                     37                     38                     39
                      A                      A                      A
 Frequencies --    836.3142               851.1709               875.2462
 Red. masses --      2.8405                 1.3246                 2.2719
 Frc consts  --      1.1705                 0.5654                 1.0254
 IR Inten    --      2.2807                 0.7990                 5.3600

                     40                     41                     42
                      A                      A                      A
 Frequencies --    883.8209               923.6983               958.3359
 Red. masses --      3.4293                 1.5030                 2.0804
 Frc consts  --      1.5783                 0.7555                 1.1257
 IR Inten    --      1.7287                 1.1655                14.3892

                     43                     44                     45
                      A                      A                      A
 Frequencies --    962.7869               989.6428               992.1852
 Red. masses --      1.4551                 1.2383                 2.4228
 Frc consts  --      0.7947                 0.7145                 1.4053
 IR Inten    --      2.3931                 2.7310                13.7137

                     46                     47                     48
                      A                      A                      A
 Frequencies --   1011.5693              1013.7511              1019.7501
 Red. masses --      3.1930                 1.2588                 5.9689
 Frc consts  --      1.9251                 0.7622                 3.6570
 IR Inten    --     23.9898                19.1209                 0.2643

                     49                     50                     51
                      A                      A                      A
 Frequencies --   1061.6213              1084.0917              1104.8672
 Red. masses --      2.1942                 2.9788                 1.8078
 Frc consts  --      1.4570                 2.0627                 1.3002
 IR Inten    --      1.3241                 2.5368                25.0763

                     52                     53                     54
                      A                      A                      A
 Frequencies --   1117.3188              1136.0282              1194.1172
 Red. masses --      1.6014                 3.3772                 1.0955
 Frc consts  --      1.1779                 2.5679                 0.9204
 IR Inten    --      2.5940                22.0749                 0.0971

                     55                     56                     57
                      A                      A                      A
 Frequencies --   1202.6353              1219.1515              1249.9950
 Red. masses --      1.2441                 1.1442                 2.3093
 Frc consts  --      1.0602                 1.0020                 2.1260
 IR Inten    --     25.1344                 1.5760                 1.2858

                     58                     59                     60
                      A                      A                      A
 Frequencies --   1259.1476              1314.0839              1324.5806
 Red. masses --      1.4462                 1.5754                 2.8833
 Frc consts  --      1.3509                 1.6028                 2.9805
 IR Inten    --     76.3255                 5.9574                65.0574

                     61                     62                     63
                      A                      A                      A
 Frequencies --   1337.3730              1351.5051              1357.5259
 Red. masses --      2.3134                 1.3986                 1.4003
 Frc consts  --      2.4379                 1.5052                 1.5204
 IR Inten    --     22.7173                 9.7882               102.3895

                     64                     65                     66
                      A                      A                      A
 Frequencies --   1367.1233              1375.2122              1387.0796
 Red. masses --      3.9737                 1.7229                 3.0109
 Frc consts  --      4.3759                 1.9198                 3.4132
 IR Inten    --     98.7956                 9.3307                54.6113

                     67                     68                     69
                      A                      A                      A
 Frequencies --   1396.6423              1456.6554              1492.0776
 Red. masses --      1.7257                 1.5488                 1.1277
 Frc consts  --      1.9833                 1.9362                 1.4791
 IR Inten    --     14.7153                62.5348                 8.4460

                     70                     71                     72
                      A                      A                      A
 Frequencies --   1500.2770              1504.7279              1536.8083
 Red. masses --      2.1688                 1.1151                 7.2285
 Frc consts  --      2.8761                 1.4876                10.0586
 IR Inten    --      6.1042                 5.0929                83.4640

                     73                     74                     75
                      A                      A                      A
 Frequencies --   1549.3770              1610.7350              1633.8158
 Red. masses --      2.2230                 2.2998                 1.8595
 Frc consts  --      3.1442                 3.5155                 2.9245
 IR Inten    --     11.6131               437.5595               136.9015

                     76                     77                     78
                      A                      A                      A
 Frequencies --   1638.6215              1665.7088              1733.7907
 Red. masses --      5.2105                 5.5034                 5.7455
 Frc consts  --      8.2431                 8.9966                10.1759
 IR Inten    --      2.3902                 4.5978                 0.2785

                     79                     80                     81
                      A                      A                      A
 Frequencies --   1825.5720              3062.5226              3062.7401
 Red. masses --      9.5214                 1.0596                 1.0580
 Frc consts  --     18.6960                 5.8553                 5.8475
 IR Inten    --    351.8263                13.0480                18.1649

                     82                     83                     84
                      A                      A                      A
 Frequencies --   3107.6619              3111.2857              3145.5852
 Red. masses --      1.1046                 1.1049                 1.0890
 Frc consts  --      6.2855                 6.3018                 6.3486
 IR Inten    --      9.1827                 5.7600                14.3991

                     85                     86                     87
                      A                      A                      A
 Frequencies --   3170.9793              3177.5188              3185.3103
 Red. masses --      1.0883                 1.0860                 1.0867
 Frc consts  --      6.4473                 6.4601                 6.4960
 IR Inten    --     17.9045                10.5863                 0.5834

                     88                     89                     90
                      A                      A                      A
 Frequencies --   3195.0916              3204.8347              3212.6158
 Red. masses --      1.0909                 1.0930                 1.0975
 Frc consts  --      6.5612                 6.6141                 6.6737
 IR Inten    --     18.8805                37.9451                20.5310

                     91                     92                     93
                      A                      A                      A
 Frequencies --   3569.2963              3587.5308              3714.8052
 Red. masses --      1.0753                 1.0445                 1.1055
 Frc consts  --      8.0714                 7.9204                 8.9881
 IR Inten    --     32.4713                34.3384                69.6453

 - Thermochemistry -
 -------------------
 Temperature   298.150 Kelvin.  Pressure   1.00000 Atm.
 Atom     1 has atomic number  6 and mass  12.00000

 Molecular mass:   274.08883 amu.
 Principal axes and moments of inertia in atomic units:
                           1         2         3
     Eigenvalues --  3137.65457********************
           X            0.99999  -0.00094   0.00364
           Y            0.00095   1.00000  -0.00141
           Z           -0.00364   0.00141   0.99999
 This molecule is an asymmetric top.
 Rotational symmetry number  1.
 Warning -- assumption of classical behavior for rotation
           may cause significant error
 Rotational temperatures (Kelvin)      0.02760     0.00568     0.00512
 Rotational constants (GHZ):           0.57519     0.11832     0.10660
 Zero-point vibrational energy     681966.0 (Joules/Mol)
                                  162.99378 (Kcal/Mol)
 Warning -- explicit consideration of  26 degrees of freedom as
           vibrations may cause significant error
 Vibrational temperatures:     16.52    17.92    31.31    39.19    62.11
          (Kelvin)             90.41   110.50   178.13   203.37   227.46
                              328.58   357.83   377.82   411.53   433.21
                              488.28   526.85   586.05   594.57   636.78
                              650.69   735.40   778.81   805.53   813.47
                              862.34   900.94   915.86   927.40   965.07
                              984.43  1012.46  1044.93  1072.88  1099.75
                             1144.42  1203.27  1224.65  1259.28  1271.62
                             1329.00  1378.83  1385.24  1423.88  1427.53
                             1455.42  1458.56  1467.19  1527.44  1559.77
                             1589.66  1607.57  1634.49  1718.07  1730.32
                             1754.09  1798.46  1811.63  1890.67  1905.78
                             1924.18  1944.51  1953.18  1966.99  1978.62
                             1995.70  2009.46  2095.80  2146.77  2158.56
                             2164.97  2211.12  2229.21  2317.49  2350.70
                             2357.61  2396.58  2494.54  2626.59  4406.29
                             4406.60  4471.23  4476.45  4525.80  4562.33
                             4571.74  4582.95  4597.02  4611.04  4622.24
                             5135.42  5161.66  5344.78

 Zero-point correction=                           0.259747 (Hartree/Particle)
 Thermal correction to Energy=                    0.277760
 Thermal correction to Enthalpy=                  0.278704
 Thermal correction to Gibbs Free Energy=         0.207705
 Sum of electronic and zero-point Energies=          -1196.037242
 Sum of electronic and thermal Energies=             -1196.019229
 Sum of electronic and thermal Enthalpies=           -1196.018285
 Sum of electronic and thermal Free Energies=        -1196.089285

                     E (Thermal)             CV                S
                      KCal/Mol        Cal/Mol-Kelvin    Cal/Mol-Kelvin
 Total                  174.297             66.502            149.431
 Electronic               0.000              0.000              0.000
 Translational            0.889              2.981             42.723
 Rotational               0.889              2.981             35.048
 Vibrational            172.520             60.540             71.660
 Vibration     1          0.593              1.987              7.736
 Vibration     2          0.593              1.987              7.574
 Vibration     3          0.593              1.985              6.467
 Vibration     4          0.593              1.984              6.021
 Vibration     5          0.595              1.980              5.108
 Vibration     6          0.597              1.972              4.366
 Vibration     7          0.599              1.965              3.971
 Vibration     8          0.610              1.929              3.040
 Vibration     9          0.615              1.912              2.786
 Vibration    10          0.621              1.894              2.573
 Vibration    11          0.651              1.798              1.892
 Vibration    12          0.662              1.765              1.740
 Vibration    13          0.670              1.741              1.644
 Vibration    14          0.684              1.700              1.497
 Vibration    15          0.693              1.672              1.411
 Vibration    16          0.719              1.597              1.215
 Vibration    17          0.739              1.542              1.096
 Vibration    18          0.772              1.454              0.936
 Vibration    19          0.777              1.441              0.915
 Vibration    20          0.802              1.377              0.819
 Vibration    21          0.811              1.356              0.789
 Vibration    22          0.866              1.225              0.631
 Vibration    23          0.896              1.159              0.562
 Vibration    24          0.915              1.118              0.524
 Vibration    25          0.921              1.106              0.513
 Vibration    26          0.957              1.033              0.451

                           ! Non-Optimized Parameters !
 Normal termination of Gaussian 16 at Sun Dec 13 16:28:52 2020.

 ----------------------------------------------------------------------
 # B3LYP/6-311++G(d,p) empiricaldispersion=gd3bj scf=xqc pop=npa geom=c
 heck
 ----------------------------------------------------------------------

 --------------------------------------
 CID_18411437_JID_9521_Energie_neutraal
 --------------------------------------
 Structure from the checkpoint file:  "JID_9521.chk"
 Charge =  0 Multiplicity = 1

 SCF Done:  E(RB3LYP) =  -1196.55093415     A.U. after   16 cycles
 Normal termination of Gaussian 16 at Sun Dec 13 16:35:18 2020.

 ----------------------------------------------------------------------
 # B3LYP/6-311++G(d,p) empiricaldispersion=gd3bj scf=xqc pop=npa geom=c
 heck
 ----------------------------------------------------------------------

 ------------------------------------
 CID_18411437_JID_9521_Energie_kation
 ------------------------------------
 Structure from the checkpoint file:  "JID_9521.chk"
 Charge =  1 Multiplicity = 2

 SCF Done:  E(UB3LYP) =  -1196.26284236     A.U. after   26 cycles
 Normal termination of Gaussian 16 at Sun Dec 13 16:50:41 2020.
 Gaussian 16:  ES64L-G16RevA.03 25-Dec-2016

 ----------------------------------------------------------------------
 # B3LYP/6-311++G(d,p) empiricaldispersion=gd3bj scf=xqc pop=npa geom=c
 heck
 ----------------------------------------------------------------------

 -----------------------------------
 CID_18411437_JID_9521_Energie_anion
 -----------------------------------
 Structure from the checkpoint file:  "JID_9521.chk"
 Charge = -1 Multiplicity = 2

                         Standard orientation:
 ---------------------------------------------------------------------
 Center     Atomic      Atomic             Coordinates (Angstroms)
 Number     Number       Type             X           Y           Z
 ---------------------------------------------------------------------
      1          6           0        6.035568   -1.741918    0.736519
      2          6           0        5.302994   -0.892020    1.570319
      3          6           0        4.257798   -0.131157    1.057856
      4          6           0        3.916750   -0.198838   -0.305200
      5          6           0        4.661930   -1.059009   -1.128673
      6          6           0        5.709404   -1.822288   -0.616851
      7          6           0        2.824535    0.580650   -0.901207
      8          6           0        2.033890    1.472562   -0.290357
      9          6           0        0.921505    2.219126   -0.978555
     10          6           0       -0.421837    1.829531   -0.416013
     11          7           0       -1.072705    2.652821    0.373173
     12         16           0       -2.497981    1.871495    0.866317
     13          6           0       -2.082457    0.447582   -0.084632
     14          7           0       -0.935270    0.585245   -0.701772
     15          7           0       -2.873076   -0.658537   -0.212363
     16          6           0       -3.954405   -0.968294    0.709576
     17          6           0       -5.098795   -1.759697    0.064326
     18          8           0       -5.881249   -2.392798    0.752909
     19          7           0       -5.160020   -1.675775   -1.292932
     20          1           0        6.851060   -2.334933    1.140469
     21          1           0        5.548508   -0.823799    2.626618
     22          1           0        3.699081    0.520302    1.722725
     23          1           0        4.411569   -1.125235   -2.184764
     24          1           0        6.270234   -2.479412   -1.275776
     25          1           0        2.658013    0.396745   -1.962966
     26          1           0        2.151195    1.687847    0.770307
     27          1           0        1.039020    3.299644   -0.841881
     28          1           0        0.932251    2.001465   -2.052182
     29          1           0       -2.370897   -1.451493   -0.597968
     30          1           0       -3.619639   -1.530685    1.589212
     31          1           0       -4.384748   -0.027793    1.071255
     32          1           0       -4.564468   -1.033388   -1.795368
     33          1           0       -5.957284   -2.084467   -1.759415
 ---------------------------------------------------------------------

 SCF Done:  E(UB3LYP) =  -1196.55639474     A.U. after   31 cycles

 The electronic state is 2-A.
 Alpha  occ. eigenvalues --  -88.79125 -19.01440 -14.26457 -14.25428 -14.21291
 Alpha  occ. eigenvalues --  -14.20569 -10.20177 -10.17072 -10.14568 -10.13025
 Alpha  occ. eigenvalues --  -10.07300 -10.07018 -10.06783 -10.06677 -10.06426
 Alpha  occ. eigenvalues --  -10.06157 -10.05972 -10.05108 -10.05005  -7.87611
 Alpha  occ. eigenvalues --   -5.83997  -5.83565  -5.83093  -0.96574  -0.91128
 Alpha  occ. eigenvalues --   -0.86195  -0.82738  -0.76284  -0.75069  -0.70320
 Alpha  occ. eigenvalues --   -0.67331  -0.65182  -0.64042  -0.62934  -0.57755
 Alpha  occ. eigenvalues --   -0.52188  -0.51321  -0.50842  -0.49606  -0.48006
 Alpha  occ. eigenvalues --   -0.46245  -0.44356  -0.41717  -0.41577  -0.40836
 Alpha  occ. eigenvalues --   -0.37904  -0.37163  -0.36194  -0.35647  -0.34461
 Alpha  occ. eigenvalues --   -0.33989  -0.33379  -0.32223  -0.31736  -0.30705
 Alpha  occ. eigenvalues --   -0.29717  -0.29200  -0.26901  -0.26547  -0.25638
 Alpha  occ. eigenvalues --   -0.24290  -0.23459  -0.22931  -0.21402  -0.20099
 Alpha  occ. eigenvalues --   -0.19184  -0.18861  -0.17889  -0.17536  -0.15242
 Alpha  occ. eigenvalues --   -0.13868  -0.11450   0.03331
 Alpha virt. eigenvalues --    0.04740   0.06990   0.07138   0.07323   0.07917
 Alpha virt. eigenvalues --    0.08292   0.08692   0.09045   0.09203   0.09562
 Alpha virt. eigenvalues --    0.10044   0.10294   0.10498   0.11761   0.12229

  Beta  occ. eigenvalues --  -88.79112 -19.01433 -14.26446 -14.25357 -14.21134
  Beta  occ. eigenvalues --  -14.20620 -10.20176 -10.16887 -10.14559 -10.12948
  Beta  occ. eigenvalues --  -10.07324 -10.07062 -10.06766 -10.06579 -10.06404
  Beta  occ. eigenvalues --  -10.05999 -10.05868 -10.04981 -10.04865  -7.87598
  Beta  occ. eigenvalues --   -5.83992  -5.83562  -5.83044  -0.96559  -0.90984
  Beta  occ. eigenvalues --   -0.86101  -0.82638  -0.76153  -0.74882  -0.70088
  Beta  occ. eigenvalues --   -0.67110  -0.65082  -0.63907  -0.62714  -0.57579
  Beta  occ. eigenvalues --   -0.52060  -0.51173  -0.50608  -0.49470  -0.47893
  Beta  occ. eigenvalues --   -0.46154  -0.44115  -0.41622  -0.41477  -0.40738
  Beta  occ. eigenvalues --   -0.37816  -0.37096  -0.36063  -0.35500  -0.34336
  Beta  occ. eigenvalues --   -0.33885  -0.33193  -0.32099  -0.31697  -0.30620
  Beta  occ. eigenvalues --   -0.29571  -0.29033  -0.26516  -0.26300  -0.25496
  Beta  occ. eigenvalues --   -0.23983  -0.23333  -0.22782  -0.21257  -0.20041
  Beta  occ. eigenvalues --   -0.18839  -0.18365  -0.17735  -0.17398  -0.14855
  Beta  occ. eigenvalues --   -0.13363  -0.10505
  Beta virt. eigenvalues --    0.05833   0.06897   0.06973   0.07376   0.08107
  Beta virt. eigenvalues --    0.08283   0.08510   0.08764   0.09178   0.09338
  Beta virt. eigenvalues --    0.09612   0.10090   0.10455   0.10593   0.11762

 Mulliken charges and spin densities:
               1          2
     1  C   -0.388732   0.124355
     2  C   -0.306877  -0.026806
     3  C   -1.045424   0.096960
     4  C    0.854552   0.054881
     5  C   -0.020914   0.023803
     6  C   -0.422290   0.017133
     7  C   -0.356498   0.031479
     8  C    0.819374   0.148897
     9  C   -0.615973   0.030395
    10  C   -1.150526  -0.046418
    11  N    0.049650   0.065620
    12  S    0.134280   0.052948
    13  C    0.529874  -0.217235
    14  N   -0.031990  -0.043143
    15  N   -0.064472   0.049129
    16  C    0.143982  -0.170154
    17  C    0.169583  -0.137704
    18  O   -0.360566   0.004394
    19  N   -0.286047  -0.102868
    20  H    0.109415  -0.010087
    21  H    0.143288   0.002491
    22  H    0.050767  -0.006278
    23  H    0.115723  -0.000094
    24  H    0.122223  -0.001713
    25  H    0.103132  -0.004530
    26  H    0.151744  -0.014300
    27  H    0.165066   0.018086
    28  H    0.144538   0.000204
    29  H    0.233456   0.066530
    30  H    0.180463   0.040685
    31  H    0.076980   0.087942
    32  H   -0.026845   0.324740
    33  H   -0.220934   0.540659
 Sum of Mulliken charges =  -1.00000   1.00000

 Dipole moment (field-independent basis, Debye):
    X=              2.4390    Y=              0.8044    Z=              0.8100  Tot=              2.6929
 Quadrupole moment (field-independent basis, Debye-Ang):
   XX=           -238.5730   YY=           -154.3212   ZZ=           -134.3106
   XY=            -16.0697   XZ=             -4.8437   YZ=             -0.3720

 Summary of Natural Population Analysis:

                                       Natural Population
                Natural  -----------------------------------------------
    Atom  No    Charge         Core      Valence    Rydberg      Total
 -----------------------------------------------------------------------
      C    1   -0.08691      0.99957     2.07755    0.00978     3.08691
      C    2   -0.11373      0.99958     2.10493    0.00922     3.11373
      C    3   -0.07530      0.99953     2.06781    0.00796     3.07530
      C    4   -0.01625      0.99950     2.00780    0.00894     3.01625
      C    5   -0.09206      0.99954     2.08419    0.00834     3.09206
      C    6   -0.10628      0.99957     2.09739    0.00931     3.10628
      C    7   -0.09440      0.99950     2.08596    0.00894     3.09440
      C    8   -0.03447      0.99952     2.02751    0.00744     3.03447
      C    9   -0.21771      0.99957     2.20932    0.00882     3.21771
      C   10    0.21666      0.99962     1.76231    0.02140     2.78334
      N   11   -0.30833      0.99968     2.79849    0.01015     3.80833
      S   12    0.22679      4.99946     2.74813    0.02562     7.77321
      C   13    0.16087      0.99961     1.81752    0.02200     2.83913
      N   14   -0.29167      0.99962     2.78111    0.01094     3.79167
      N   15   -0.32372      0.99964     2.81242    0.01166     3.82372
      C   16   -0.12829      0.99958     2.11707    0.01164     3.12829
      C   17    0.33073      0.99971     1.64611    0.02346     2.66927
      O   18   -0.31983      0.99988     3.31351    0.00645     4.31983
      N   19   -0.39984      0.99971     2.89210    0.00803     3.89984
      H   20    0.09128      0.00000     0.40772    0.00100     0.40872
      H   21    0.09358      0.00000     0.40542    0.00100     0.40642
      H   22    0.09576      0.00000     0.40284    0.00140     0.40424
      H   23    0.09357      0.00000     0.40507    0.00136     0.40643
      H   24    0.09291      0.00000     0.40607    0.00103     0.40709
      H   25    0.08770      0.00000     0.41091    0.00140     0.41230
      H   26    0.08714      0.00000     0.41175    0.00111     0.41286
      H   27    0.10943      0.00000     0.38945    0.00113     0.39057
      H   28    0.10427      0.00000     0.39446    0.00127     0.39573
      H   29    0.19817      0.00000     0.29932    0.00251     0.30183
      H   30    0.10471      0.00000     0.39424    0.00104     0.39529
      H   31    0.11134      0.00000     0.38745    0.00120     0.38866
      H   32    0.20440      0.00000     0.29200    0.00360     0.29560
      H   33    0.19947      0.00000     0.29586    0.00466     0.30053
 =======================================================================
   * Total *    0.00000     22.99240    48.75381    0.25379    72.00000

 Normal termination of Gaussian 16 at Sun Dec 13 17:07:54 2020.
