 Gaussian 16, Revision A.03,

 -----------------------------------------------------------
 # opt freq B3LYP/6-31G(d) empiricaldispersion=gd3bj scf=xqc
 -----------------------------------------------------------

 ------------------------------
 CID_43165029_JID_3156_neutraal
 ------------------------------
 Symbolic Z-matrix:
 Charge =  0 Multiplicity = 1

 SCF Done:  E(RB3LYP) =  -610.170139963     A.U. after   15 cycles
 SCF Done:  E(RB3LYP) =  -610.175031931     A.U. after   13 cycles
 SCF Done:  E(RB3LYP) =  -610.176453273     A.U. after   12 cycles
 SCF Done:  E(RB3LYP) =  -610.177644778     A.U. after   12 cycles
 SCF Done:  E(RB3LYP) =  -610.178650851     A.U. after   15 cycles
 SCF Done:  E(RB3LYP) =  -610.181202695     A.U. after   12 cycles
 SCF Done:  E(RB3LYP) =  -610.184068895     A.U. after   13 cycles
 SCF Done:  E(RB3LYP) =  -610.184853427     A.U. after   13 cycles
 SCF Done:  E(RB3LYP) =  -610.185046987     A.U. after   12 cycles
 SCF Done:  E(RB3LYP) =  -610.185589525     A.U. after   12 cycles
 SCF Done:  E(RB3LYP) =  -610.185908578     A.U. after   10 cycles
 SCF Done:  E(RB3LYP) =  -610.185909830     A.U. after    9 cycles
 SCF Done:  E(RB3LYP) =  -610.185909991     A.U. after    8 cycles
 SCF Done:  E(RB3LYP) =  -610.185909945     A.U. after    8 cycles
 SCF Done:  E(RB3LYP) =  -610.185909898     A.U. after    8 cycles
 Optimization completed.
    -- Stationary point found.
 Normal termination of Gaussian 16 at Wed Dec  9 22:30:41 2020.

 --------------------------------------------------------------------
 #N Geom=AllCheck Guess=TCheck SCRF=Check GenChk RB3LYP/6-31G(d) Freq
 --------------------------------------------------------------------

 Structure from the checkpoint file:  "JID_3156.chk"
 ------------------------------
 CID_43165029_JID_3156_neutraal
 ------------------------------
 Charge =  0 Multiplicity = 1

 SCF Done:  E(RB3LYP) =  -610.185909898     A.U. after    1 cycles

  Exact polarizability: 153.432  -2.966 109.089 -17.170  -4.706  72.955
 Approx polarizability: 223.050  -4.803 185.175 -36.112  -8.366 107.028

                      1                      2                      3
                      A                      A                      A
 Frequencies --     35.5925                48.8527                82.7645
 Red. masses --      4.3240                 3.8801                 6.9536
 Frc consts  --      0.0032                 0.0055                 0.0281
 IR Inten    --      0.0936                 0.5234                 2.2960

                      4                      5                      6
                      A                      A                      A
 Frequencies --     96.5441               210.7389               231.6239
 Red. masses --      4.9995                 4.2301                 2.8778
 Frc consts  --      0.0275                 0.1107                 0.0910
 IR Inten    --      1.4020                 2.5332                 7.7365

                      7                      8                      9
                      A                      A                      A
 Frequencies --    238.3422               258.5952               305.8319
 Red. masses --      1.3686                 2.3417                 1.4567
 Frc consts  --      0.0458                 0.0923                 0.0803
 IR Inten    --      0.8129                 0.4782                14.2808

                     10                     11                     12
                      A                      A                      A
 Frequencies --    316.9853               341.0359               395.6062
 Red. masses --      1.9617                 4.5567                 5.1237
 Frc consts  --      0.1161                 0.3122                 0.4725
 IR Inten    --      6.7384                10.2300                25.2233

                     13                     14                     15
                      A                      A                      A
 Frequencies --    419.9501               452.7779               461.1983
 Red. masses --      4.2789                 2.6446                 2.9061
 Frc consts  --      0.4446                 0.3194                 0.3642
 IR Inten    --      7.2970                30.9088                 8.7556

                     16                     17                     18
                      A                      A                      A
 Frequencies --    484.2859               534.8782               544.2711
 Red. masses --      1.1983                 2.3397                 1.8175
 Frc consts  --      0.1656                 0.3944                 0.3172
 IR Inten    --     72.2790                33.0843                50.0167

                     19                     20                     21
                      A                      A                      A
 Frequencies --    560.5941               606.8444               652.4393
 Red. masses --      2.4521                 1.8148                 5.3252
 Frc consts  --      0.4540                 0.3938                 1.3356
 IR Inten    --    109.6414               261.6601                 9.6947

                     22                     23                     24
                      A                      A                      A
 Frequencies --    676.1566               715.5039               728.8464
 Red. masses --      3.8985                 2.5559                 4.7174
 Frc consts  --      1.0501                 0.7709                 1.4765
 IR Inten    --     23.7705                12.3112                41.4279

                     25                     26                     27
                      A                      A                      A
 Frequencies --    763.8667               791.3440               843.1711
 Red. masses --      3.0688                 1.4112                 2.9760
 Frc consts  --      1.0550                 0.5207                 1.2466
 IR Inten    --     13.7969                31.6458                 5.4790

                     28                     29                     30
                      A                      A                      A
 Frequencies --    861.3812               881.0038               930.6469
 Red. masses --      1.7842                 1.4737                 2.2073
 Frc consts  --      0.7800                 0.6739                 1.1264
 IR Inten    --     29.3054                 1.4532                 0.6316

                     31                     32                     33
                      A                      A                      A
 Frequencies --    966.9435               995.5835              1018.9358
 Red. masses --      1.2586                 2.5380                 5.5203
 Frc consts  --      0.6933                 1.4822                 3.3768
 IR Inten    --      0.7612                 9.2371                 6.6953

                     34                     35                     36
                      A                      A                      A
 Frequencies --   1059.8736              1101.2485              1110.9142
 Red. masses --      1.6498                 1.6080                 2.8315
 Frc consts  --      1.0919                 1.1490                 2.0589
 IR Inten    --     34.4820                 3.0282                16.5695

                     37                     38                     39
                      A                      A                      A
 Frequencies --   1147.9295              1172.8708              1202.0245
 Red. masses --      1.2875                 2.3056                 1.1105
 Frc consts  --      0.9996                 1.8687                 0.9454
 IR Inten    --      3.4582               149.0601                21.3933

                     40                     41                     42
                      A                      A                      A
 Frequencies --   1216.9873              1285.9387              1345.1517
 Red. masses --      1.7376                 1.3521                 1.5023
 Frc consts  --      1.5163                 1.3174                 1.6016
 IR Inten    --     20.1732                12.3442                16.2388

                     43                     44                     45
                      A                      A                      A
 Frequencies --   1346.5131              1361.5821              1375.0701
 Red. masses --      3.5698                 2.0632                 1.3788
 Frc consts  --      3.8135                 2.2536                 1.5360
 IR Inten    --     66.6646               260.1904                59.9394

                     46                     47                     48
                      A                      A                      A
 Frequencies --   1376.0916              1426.3941              1449.8070
 Red. masses --      4.2853                 1.2476                 1.8974
 Frc consts  --      4.7811                 1.4955                 2.3497
 IR Inten    --     40.0364                21.6541                33.5624

                     49                     50                     51
                      A                      A                      A
 Frequencies --   1485.8849              1524.9640              1527.3518
 Red. masses --      1.3777                 1.1119                 1.4181
 Frc consts  --      1.7922                 1.5235                 1.9492
 IR Inten    --     19.6056                 9.4070                 3.6162

                     52                     53                     54
                      A                      A                      A
 Frequencies --   1533.1956              1551.0805              1649.0567
 Red. masses --      1.7963                 2.7166                 5.9248
 Frc consts  --      2.4879                 3.8508                 9.4928
 IR Inten    --     10.5095                63.4897                39.4599

                     55                     56                     57
                      A                      A                      A
 Frequencies --   1669.0760              1696.9661              1768.5325
 Red. masses --      3.8179                 1.2813                 7.8167
 Frc consts  --      6.2666                 2.1740                14.4046
 IR Inten    --    122.2593               153.0539               376.5083

                     58                     59                     60
                      A                      A                      A
 Frequencies --   3059.0530              3087.0312              3134.6099
 Red. masses --      1.0344                 1.0839                 1.1028
 Frc consts  --      5.7032                 6.0856                 6.3841
 IR Inten    --     13.7389                26.8181                29.8041

                     61                     62                     63
                      A                      A                      A
 Frequencies --   3143.8054              3183.9402              3186.1227
 Red. masses --      1.1034                 1.0876                 1.0906
 Frc consts  --      6.4255                 6.4962                 6.5230
 IR Inten    --     17.1222                 9.4237                10.6733

                     64                     65                     66
                      A                      A                      A
 Frequencies --   3203.0174              3225.8588              3558.5303
 Red. masses --      1.0922                 1.0943                 1.0478
 Frc consts  --      6.6017                 6.7094                 7.8175
 IR Inten    --     18.1181                 4.2173                18.3294

                     67                     68                     69
                      A                      A                      A
 Frequencies --   3575.1995              3597.2548              3657.8973
 Red. masses --      1.0753                 1.0642                 1.0987
 Frc consts  --      8.0977                 8.1137                 8.6612
 IR Inten    --     28.5195                72.8198                10.8176

 - Thermochemistry -
 -------------------
 Temperature   298.150 Kelvin.  Pressure   1.00000 Atm.
 Atom     1 has atomic number  6 and mass  12.00000

 Molecular mass:   180.08988 amu.
 Principal axes and moments of inertia in atomic units:
                           1         2         3
     Eigenvalues --  1105.275604220.914314360.75203
           X            1.00000   0.00256   0.00104
           Y           -0.00241   0.99234  -0.12355
           Z           -0.00135   0.12354   0.99234
 This molecule is an asymmetric top.
 Rotational symmetry number  1.
 Warning -- assumption of classical behavior for rotation
           may cause significant error
 Rotational temperatures (Kelvin)      0.07836     0.02052     0.01986
 Rotational constants (GHZ):           1.63284     0.42757     0.41386
 Zero-point vibrational energy     541010.9 (Joules/Mol)
                                  129.30471 (Kcal/Mol)
 Warning -- explicit consideration of  20 degrees of freedom as
           vibrations may cause significant error
 Vibrational temperatures:     51.21    70.29   119.08   138.91   303.21
          (Kelvin)            333.26   342.92   372.06   440.02   456.07
                              490.67   569.19   604.21   651.45   663.56
                              696.78   769.57   783.08   806.57   873.11
                              938.71   972.84  1029.45  1048.65  1099.03
                             1138.57  1213.14  1239.34  1267.57  1338.99
                             1391.22  1432.42  1466.02  1524.92  1584.45
                             1598.36  1651.61  1687.50  1729.45  1750.97
                             1850.18  1935.37  1937.33  1959.01  1978.42
                             1979.89  2052.26  2085.95  2137.86  2194.08
                             2197.52  2205.93  2231.66  2372.62  2401.43
                             2441.56  2544.52  4401.29  4441.55  4510.00
                             4523.23  4580.98  4584.12  4608.43  4641.29
                             5119.93  5143.91  5175.65  5262.90

 Zero-point correction=                           0.206060 (Hartree/Particle)
 Thermal correction to Energy=                    0.218643
 Thermal correction to Enthalpy=                  0.219587
 Thermal correction to Gibbs Free Energy=         0.166700
 Sum of electronic and zero-point Energies=           -609.979850
 Sum of electronic and thermal Energies=              -609.967267
 Sum of electronic and thermal Enthalpies=            -609.966322
 Sum of electronic and thermal Free Energies=         -610.019210

                     E (Thermal)             CV                S
                      KCal/Mol        Cal/Mol-Kelvin    Cal/Mol-Kelvin
 Total                  137.201             48.418            111.311
 Electronic               0.000              0.000              0.000
 Translational            0.889              2.981             41.472
 Rotational               0.889              2.981             31.387
 Vibrational            135.423             42.456             38.452
 Vibration     1          0.594              1.982              5.490
 Vibration     2          0.595              1.978              4.863
 Vibration     3          0.600              1.961              3.824
 Vibration     4          0.603              1.952              3.523
 Vibration     5          0.643              1.824              2.037
 Vibration     6          0.653              1.793              1.866
 Vibration     7          0.656              1.782              1.815
 Vibration     8          0.667              1.748              1.671
 Vibration     9          0.696              1.663              1.385
 Vibration    10          0.704              1.641              1.326
 Vibration    11          0.721              1.593              1.207
 Vibration    12          0.762              1.480              0.979
 Vibration    13          0.783              1.427              0.892
 Vibration    14          0.811              1.355              0.787
 Vibration    15          0.819              1.336              0.763
 Vibration    16          0.840              1.285              0.699
 Vibration    17          0.890              1.173              0.576
 Vibration    18          0.899              1.152              0.556
 Vibration    19          0.916              1.117              0.523
 Vibration    20          0.966              1.017              0.438

 Optimization completed.
    -- Stationary point found.
 Normal termination of Gaussian 16 at Wed Dec  9 22:37:07 2020.

 ----------------------------------------------------------------------
 # B3LYP/6-311++G(d,p) empiricaldispersion=gd3bj scf=xqc pop=npa geom=c
 heck
 ----------------------------------------------------------------------

 --------------------------------------
 CID_43165029_JID_3156_Energie_neutraal
 --------------------------------------
 Structure from the checkpoint file:  "JID_3156.chk"
 Charge =  0 Multiplicity = 1

 SCF Done:  E(RB3LYP) =  -610.377663081     A.U. after   15 cycles
 Normal termination of Gaussian 16 at Wed Dec  9 22:39:56 2020.

 ----------------------------------------------------------------------
 # B3LYP/6-311++G(d,p) empiricaldispersion=gd3bj scf=xqc pop=npa geom=c
 heck
 ----------------------------------------------------------------------

 ------------------------------------
 CID_43165029_JID_3156_Energie_kation
 ------------------------------------
 Structure from the checkpoint file:  "JID_3156.chk"
 Charge =  1 Multiplicity = 2

 SCF Done:  E(UB3LYP) =  -610.079529209     A.U. after   24 cycles
 Normal termination of Gaussian 16 at Wed Dec  9 22:46:23 2020.
 Gaussian 16:  ES64L-G16RevA.03 25-Dec-2016

 ----------------------------------------------------------------------
 # B3LYP/6-311++G(d,p) empiricaldispersion=gd3bj scf=xqc pop=npa geom=c
 heck
 ----------------------------------------------------------------------

 -----------------------------------
 CID_43165029_JID_3156_Energie_anion
 -----------------------------------
 Structure from the checkpoint file:  "JID_3156.chk"
 Charge = -1 Multiplicity = 2

                         Standard orientation:
 ---------------------------------------------------------------------
 Center     Atomic      Atomic             Coordinates (Angstroms)
 Number     Number       Type             X           Y           Z
 ---------------------------------------------------------------------
      1          6           0       -1.678145    0.082760   -1.876090
      2          6           0       -2.184169   -0.526334   -0.558875
      3          6           0       -1.993593    0.486234    0.581316
      4          8           0       -2.972528    1.089871    1.015592
      5          7           0       -0.735322    0.764323    1.035586
      6          6           0        0.496020    0.146980    0.672385
      7          6           0        0.695632   -1.221491    0.872903
      8          6           0        1.918277   -1.782500    0.503238
      9          6           0        2.937280   -0.999891   -0.028666
     10          6           0        2.748963    0.381823   -0.207815
     11          6           0        1.510698    0.943321    0.139415
     12          7           0        3.783841    1.186269   -0.679715
     13          8           0       -3.554774   -0.843640   -0.636301
     14          1           0       -2.187599    1.033491   -2.066654
     15          1           0       -1.913045   -0.603174   -2.694823
     16          1           0       -0.597258    0.254403   -1.855598
     17          1           0       -1.627967   -1.446113   -0.353035
     18          1           0       -0.701281    1.555135    1.669236
     19          1           0       -0.082745   -1.822702    1.328562
     20          1           0        2.084282   -2.846177    0.647106
     21          1           0        3.889223   -1.449636   -0.298575
     22          1           0        1.329795    2.003912   -0.015080
     23          1           0        4.482788    0.708006   -1.233697
     24          1           0        3.495420    2.056138   -1.109071
     25          1           0       -3.998612   -0.132678   -0.130662
 ---------------------------------------------------------------------

 SCF Done:  E(UB3LYP) =  -610.370598537     A.U. after   33 cycles
 SCF Done:  E(UB3LYP) =  -610.370598537     a.u. after    1 cycles

 The electronic state is 2-A.
 Alpha  occ. eigenvalues --  -19.02463 -19.01364 -14.25939 -14.20642 -10.19003
 Alpha  occ. eigenvalues --  -10.13859 -10.11915 -10.11465 -10.07591 -10.07058
 Alpha  occ. eigenvalues --  -10.06858 -10.06734 -10.06452  -0.97176  -0.92504
 Alpha  occ. eigenvalues --   -0.85053  -0.81253  -0.73562  -0.66989  -0.64770
 Alpha  occ. eigenvalues --   -0.63021  -0.56431  -0.52947  -0.51209  -0.48702
 Alpha  occ. eigenvalues --   -0.45240  -0.42862  -0.40896  -0.39156  -0.38814
 Alpha  occ. eigenvalues --   -0.36595  -0.35959  -0.34147  -0.33119  -0.32471
 Alpha  occ. eigenvalues --   -0.31403  -0.29350  -0.28769  -0.28104  -0.27393
 Alpha  occ. eigenvalues --   -0.25846  -0.25250  -0.22110  -0.19486  -0.19023
 Alpha  occ. eigenvalues --   -0.18050  -0.14772  -0.10875   0.04449
 Alpha virt. eigenvalues --    0.06669   0.07325   0.07748   0.08937   0.09115
 Alpha virt. eigenvalues --    0.09567   0.09665   0.10156   0.11314   0.11668
 Alpha virt. eigenvalues --    0.12409   0.12847   0.13431   0.14437   0.14678

  Beta  occ. eigenvalues --  -19.02461 -19.01339 -14.25946 -14.20550 -10.18974
  Beta  occ. eigenvalues --  -10.13860 -10.11878 -10.11463 -10.07541 -10.07069
  Beta  occ. eigenvalues --  -10.06839 -10.06664 -10.06400  -0.97137  -0.92491
  Beta  occ. eigenvalues --   -0.85018  -0.81144  -0.73476  -0.66955  -0.64661
  Beta  occ. eigenvalues --   -0.62913  -0.56380  -0.52846  -0.51114  -0.48661
  Beta  occ. eigenvalues --   -0.45164  -0.42824  -0.40810  -0.39061  -0.38779
  Beta  occ. eigenvalues --   -0.36520  -0.35885  -0.34083  -0.33062  -0.32406
  Beta  occ. eigenvalues --   -0.31361  -0.29276  -0.28677  -0.28033  -0.27336
  Beta  occ. eigenvalues --   -0.25780  -0.25222  -0.21993  -0.19409  -0.18970
  Beta  occ. eigenvalues --   -0.18014  -0.14517  -0.10718
  Beta virt. eigenvalues --    0.07020   0.07152   0.08062   0.08607   0.09155
  Beta virt. eigenvalues --    0.09246   0.10093   0.10190   0.10424   0.11409
  Beta virt. eigenvalues --    0.11869   0.12894   0.13222   0.13877   0.14548

 Mulliken charges and spin densities:
               1          2
     1  C    0.148171  -0.539882
     2  C   -0.574601   0.305565
     3  C    0.354175  -0.289853
     4  O   -0.371620   0.012689
     5  N   -0.148211  -0.031211
     6  C   -0.065397  -0.001990
     7  C    0.071224  -0.180430
     8  C   -0.136306  -0.075369
     9  C    0.634533  -0.696885
    10  C    0.551380  -0.950939
    11  C    0.125186  -0.012592
    12  N   -0.274016  -0.010496
    13  O   -0.223786   0.004073
    14  H    0.083557   0.071310
    15  H   -0.038661   0.181342
    16  H   -0.084868   0.278161
    17  H    0.122275   0.054149
    18  H    0.342971  -0.033985
    19  H    0.151495  -0.000199
    20  H   -0.128028   0.288955
    21  H   -0.584981   0.738677
    22  H   -0.283263   0.451127
    23  H   -0.425679   0.682460
    24  H   -0.497348   0.754808
    25  H    0.251798   0.000514
 Sum of Mulliken charges =  -1.00000   1.00000

 Dipole moment (field-independent basis, Debye):
    X=             -7.4636    Y=             -2.0884    Z=              4.6815  Tot=              9.0544
 Quadrupole moment (field-independent basis, Debye-Ang):
   XX=           -170.8413   YY=           -109.9850   ZZ=           -106.8085
   XY=             -9.7313   XZ=             15.1645   YZ=              4.8611

 Summary of Natural Population Analysis:

                                       Natural Population
                Natural  -----------------------------------------------
    Atom  No    Charge         Core      Valence    Rydberg      Total
 -----------------------------------------------------------------------
      C    1   -0.29419      0.99964     2.28792    0.00663     3.29419
      C    2    0.01998      0.99956     1.96593    0.01454     2.98002
      C    3    0.34329      0.99966     1.63441    0.02265     2.65671
      O    4   -0.33502      0.99987     3.32896    0.00618     4.33502
      N    5   -0.31110      0.99964     2.80182    0.00965     3.81110
      C    6    0.07440      0.99946     1.91477    0.01136     2.92560
      C    7   -0.13962      0.99951     2.13047    0.00963     3.13962
      C    8   -0.08184      0.99957     2.07218    0.01008     3.08184
      C    9   -0.11827      0.99952     2.10821    0.01055     3.11827
      C   10    0.09465      0.99950     1.89338    0.01248     2.90535
      C   11   -0.12158      0.99947     2.11148    0.01063     3.12158
      N   12   -0.39110      0.99971     2.88062    0.01076     3.89110
      O   13   -0.37642      0.99990     3.36979    0.00673     4.37642
      H   14    0.09861      0.00000     0.40023    0.00115     0.40139
      H   15    0.10307      0.00000     0.39600    0.00093     0.39693
      H   16    0.11027      0.00000     0.38842    0.00131     0.38973
      H   17    0.09695      0.00000     0.40122    0.00184     0.40305
      H   18    0.19695      0.00000     0.30072    0.00233     0.30305
      H   19    0.10079      0.00000     0.39780    0.00140     0.39921
      H   20    0.09895      0.00000     0.40023    0.00083     0.40105
      H   21    0.10329      0.00000     0.39516    0.00155     0.39671
      H   22    0.10393      0.00000     0.39468    0.00139     0.39607
      H   23    0.19228      0.00000     0.29513    0.01260     0.30772
      H   24    0.19309      0.00000     0.29254    0.01437     0.30691
      H   25    0.23865      0.00000     0.25807    0.00329     0.26135
 =======================================================================
   * Total *   -0.00000     12.99501    34.82014    0.18485    48.00000

 Normal termination of Gaussian 16 at Wed Dec  9 22:55:14 2020.
