 Gaussian 16, Revision A.03,

 -----------------------------------------------------------
 # opt freq B3LYP/6-31G(d) empiricaldispersion=gd3bj scf=xqc
 -----------------------------------------------------------

 -------------------------------
 CID_151658170_JID_1785_neutraal
 -------------------------------
 Symbolic Z-matrix:
 Charge =  0 Multiplicity = 1

 SCF Done:  E(RB3LYP) =  -530.047514188     A.U. after   15 cycles
 SCF Done:  E(RB3LYP) =  -530.054423476     A.U. after   15 cycles
 SCF Done:  E(RB3LYP) =  -530.055428901     A.U. after   15 cycles
 SCF Done:  E(RB3LYP) =  -530.056274127     A.U. after   15 cycles
 SCF Done:  E(RB3LYP) =  -530.056428707     A.U. after   12 cycles
 SCF Done:  E(RB3LYP) =  -530.056538837     A.U. after   13 cycles
 SCF Done:  E(RB3LYP) =  -530.056651609     A.U. after   12 cycles
 SCF Done:  E(RB3LYP) =  -530.056751949     A.U. after   12 cycles
 SCF Done:  E(RB3LYP) =  -530.056790131     A.U. after   11 cycles
 SCF Done:  E(RB3LYP) =  -530.056822310     A.U. after   12 cycles
 SCF Done:  E(RB3LYP) =  -530.058891499     A.U. after   10 cycles
 SCF Done:  E(RB3LYP) =  -530.058891876     A.U. after    8 cycles
 SCF Done:  E(RB3LYP) =  -530.058892015     A.U. after    8 cycles
 SCF Done:  E(RB3LYP) =  -530.058892050     A.U. after    7 cycles
 SCF Done:  E(RB3LYP) =  -530.058892073     A.U. after    7 cycles
 Optimization completed.
    -- Stationary point found.
 Normal termination of Gaussian 16 at Tue Dec  8 21:52:48 2020.

 --------------------------------------------------------------------
 #N Geom=AllCheck Guess=TCheck SCRF=Check GenChk RB3LYP/6-31G(d) Freq
 --------------------------------------------------------------------

 Structure from the checkpoint file:  "JID_1785.chk"
 -------------------------------
 CID_151658170_JID_1785_neutraal
 -------------------------------
 Charge =  0 Multiplicity = 1

 SCF Done:  E(RB3LYP) =  -530.058892073     A.U. after    1 cycles

  Exact polarizability: 130.753  -6.561  82.790   6.798   3.027  69.717
 Approx polarizability: 193.730  -8.307 124.409  19.211   9.909 102.219

                      1                      2                      3
                      A                      A                      A
 Frequencies --     31.2017                49.3247                60.7672
 Red. masses --      3.4087                 4.5684                 4.3638
 Frc consts  --      0.0020                 0.0065                 0.0095
 IR Inten    --      0.1028                 0.0526                 0.2067

                      4                      5                      6
                      A                      A                      A
 Frequencies --     86.9014               133.9485               155.5019
 Red. masses --      6.4278                 6.1519                 6.7381
 Frc consts  --      0.0286                 0.0650                 0.0960
 IR Inten    --      1.9287                 0.8575                 0.7424

                      7                      8                      9
                      A                      A                      A
 Frequencies --    217.6354               238.6044               254.6498
 Red. masses --      1.4107                 1.2799                 2.2425
 Frc consts  --      0.0394                 0.0429                 0.0857
 IR Inten    --      0.3260                 0.0057                 0.8832

                     10                     11                     12
                      A                      A                      A
 Frequencies --    294.6711               301.9795               387.0483
 Red. masses --      2.1894                 1.9769                 2.1125
 Frc consts  --      0.1120                 0.1062                 0.1865
 IR Inten    --      0.6000                 1.9109                 1.0967

                     13                     14                     15
                      A                      A                      A
 Frequencies --    422.5439               458.5715               521.1935
 Red. masses --      1.9393                 4.7285                 5.6637
 Frc consts  --      0.2040                 0.5859                 0.9065
 IR Inten    --      0.1628                 6.2117                 5.5259

                     16                     17                     18
                      A                      A                      A
 Frequencies --    543.9542               568.2797               695.3787
 Red. masses --      3.6538                12.6619                 5.3218
 Frc consts  --      0.6370                 2.4092                 1.5162
 IR Inten    --      3.7207                14.4023                 2.3364

                     19                     20                     21
                      A                      A                      A
 Frequencies --    738.1453               769.6967               791.4527
 Red. masses --      3.4941                 1.6684                 1.8226
 Frc consts  --      1.1217                 0.5824                 0.6726
 IR Inten    --     21.7778                47.3022                28.8591

                     22                     23                     24
                      A                      A                      A
 Frequencies --    861.9421               931.5971               944.6522
 Red. masses --      1.8380                 2.0790                 1.1905
 Frc consts  --      0.8046                 1.0631                 0.6259
 IR Inten    --      1.2912                 1.8775                 1.1505

                     25                     26                     27
                      A                      A                      A
 Frequencies --    957.5633               978.6337               994.4956
 Red. masses --      4.3327                 1.4572                 2.0620
 Frc consts  --      2.3407                 0.8223                 1.2015
 IR Inten    --     50.5092                 0.2381                 9.2293

                     28                     29                     30
                      A                      A                      A
 Frequencies --   1038.1004              1066.6501              1140.5475
 Red. masses --      1.5466                 2.3674                 2.7406
 Frc consts  --      0.9820                 1.5869                 2.1005
 IR Inten    --      1.0500                 8.6465               248.7125

                     31                     32                     33
                      A                      A                      A
 Frequencies --   1172.7017              1185.6543              1208.3575
 Red. masses --      2.1089                 2.0527                 1.7420
 Frc consts  --      1.7088                 1.7002                 1.4986
 IR Inten    --      1.4569                20.1000                12.9877

                     34                     35                     36
                      A                      A                      A
 Frequencies --   1271.0479              1296.3534              1305.4909
 Red. masses --      1.1785                 1.9728                 2.1669
 Frc consts  --      1.1218                 1.9534                 2.1759
 IR Inten    --      2.9170                57.8876                49.1009

                     37                     38                     39
                      A                      A                      A
 Frequencies --   1356.9242              1376.0584              1395.5917
 Red. masses --      1.2484                 2.4689                 1.4450
 Frc consts  --      1.3543                 2.7544                 1.6582
 IR Inten    --     26.1464               673.1094               110.1157

                     40                     41                     42
                      A                      A                      A
 Frequencies --   1417.5922              1432.4793              1444.0361
 Red. masses --      1.5140                 1.2953                 1.6468
 Frc consts  --      1.7926                 1.5660                 2.0232
 IR Inten    --     13.7791                 9.6105                77.8344

                     43                     44                     45
                      A                      A                      A
 Frequencies --   1451.7345              1503.5107              1518.8563
 Red. masses --      1.2410                 1.0897                 1.0484
 Frc consts  --      1.5410                 1.4513                 1.4250
 IR Inten    --      2.1105                 0.4836                 0.3434

                     46                     47                     48
                      A                      A                      A
 Frequencies --   1525.7563              1535.1845              1539.0073
 Red. masses --      1.0537                 1.0555                 1.0607
 Frc consts  --      1.4452                 1.4657                 1.4802
 IR Inten    --      2.5821                 4.0803                10.3443

                     49                     50                     51
                      A                      A                      A
 Frequencies --   1555.5519              1715.2904              2308.9183
 Red. masses --      1.0745                 9.2078                13.9835
 Frc consts  --      1.5318                15.9619                43.9221
 IR Inten    --      4.9231               208.8239               488.6054

                     52                     53                     54
                      A                      A                      A
 Frequencies --   3031.6667              3037.2516              3038.5989
 Red. masses --      1.0596                 1.0385                 1.0470
 Frc consts  --      5.7380                 5.6446                 5.6955
 IR Inten    --      2.9360                33.0939                18.5119

                     55                     56                     57
                      A                      A                      A
 Frequencies --   3043.1759              3055.7817              3073.9168
 Red. masses --      1.0559                 1.0763                 1.1056
 Frc consts  --      5.7613                 5.9217                 6.1553
 IR Inten    --     26.8919                16.0035                12.5330

                     58                     59                     60
                      A                      A                      A
 Frequencies --   3090.1174              3101.5599              3108.8956
 Red. masses --      1.1034                 1.0999                 1.0995
 Frc consts  --      6.2078                 6.2340                 6.2610
 IR Inten    --     39.3066                18.7227                63.4817

                     61                     62                     63
                      A                      A                      A
 Frequencies --   3114.9543              3118.2483              3534.3728
 Red. masses --      1.1022                 1.1016                 1.0751
 Frc consts  --      6.3010                 6.3108                 7.9129
 IR Inten    --     34.5300                48.2444                 2.6521

 - Thermochemistry -
 -------------------
 Temperature   298.150 Kelvin.  Pressure   1.00000 Atm.
 Atom     1 has atomic number  6 and mass  12.00000

 Molecular mass:   156.10111 amu.
 Principal axes and moments of inertia in atomic units:
                           1         2         3
     Eigenvalues --   664.156974213.018004402.15944
           X            0.99991   0.01312  -0.00125
           Y           -0.01313   0.99986  -0.01022
           Z            0.00111   0.01023   0.99995
 This molecule is an asymmetric top.
 Rotational symmetry number  1.
 Warning -- assumption of classical behavior for rotation
           may cause significant error
 Rotational temperatures (Kelvin)      0.13041     0.02056     0.01968
 Rotational constants (GHZ):           2.71734     0.42837     0.40997
 Zero-point vibrational energy     505423.9 (Joules/Mol)
                                  120.79920 (Kcal/Mol)
 Warning -- explicit consideration of  17 degrees of freedom as
           vibrations may cause significant error
 Vibrational temperatures:     44.89    70.97    87.43   125.03   192.72
          (Kelvin)            223.73   313.13   343.30   366.38   423.97
                              434.48   556.88   607.95   659.78   749.88
                              782.63   817.63  1000.49  1062.03  1107.42
                             1138.72  1240.14  1340.36  1359.14  1377.72
                             1408.04  1430.86  1493.59  1534.67  1640.99
                             1687.26  1705.89  1738.56  1828.75  1865.16
                             1878.31  1952.31  1979.84  2007.95  2039.60
                             2061.02  2077.65  2088.72  2163.22  2185.30
                             2195.22  2208.79  2214.29  2238.09  2467.92
                             3322.02  4361.89  4369.93  4371.87  4378.45
                             4396.59  4422.68  4445.99  4462.45  4473.01
                             4481.72  4486.46  5085.17

 Zero-point correction=                           0.192506 (Hartree/Particle)
 Thermal correction to Energy=                    0.204642
 Thermal correction to Enthalpy=                  0.205586
 Thermal correction to Gibbs Free Energy=         0.152748
 Sum of electronic and zero-point Energies=           -529.866386
 Sum of electronic and thermal Energies=              -529.854251
 Sum of electronic and thermal Enthalpies=            -529.853306
 Sum of electronic and thermal Free Energies=         -529.906144

                     E (Thermal)             CV                S
                      KCal/Mol        Cal/Mol-Kelvin    Cal/Mol-Kelvin
 Total                  128.414             42.873            111.206
 Electronic               0.000              0.000              0.000
 Translational            0.889              2.981             41.045
 Rotational               0.889              2.981             30.889
 Vibrational            126.637             36.911             39.272
 Vibration     1          0.594              1.983              5.752
 Vibration     2          0.595              1.978              4.844
 Vibration     3          0.597              1.973              4.432
 Vibration     4          0.601              1.958              3.729
 Vibration     5          0.613              1.919              2.889
 Vibration     6          0.620              1.897              2.604
 Vibration     7          0.646              1.814              1.979
 Vibration     8          0.657              1.781              1.813
 Vibration     9          0.665              1.755              1.698
 Vibration    10          0.689              1.684              1.447
 Vibration    11          0.694              1.670              1.406
 Vibration    12          0.755              1.498              1.011
 Vibration    13          0.785              1.421              0.883
 Vibration    14          0.817              1.342              0.770
 Vibration    15          0.876              1.203              0.607
 Vibration    16          0.899              1.153              0.557
 Vibration    17          0.924              1.100              0.508

                           ! Non-Optimized Parameters !
 Normal termination of Gaussian 16 at Tue Dec  8 21:56:51 2020.

 ----------------------------------------------------------------------
 # B3LYP/6-311++G(d,p) empiricaldispersion=gd3bj scf=xqc pop=npa geom=c
 heck
 ----------------------------------------------------------------------

 ---------------------------------------
 CID_151658170_JID_1785_Energie_neutraal
 ---------------------------------------
 Structure from the checkpoint file:  "JID_1785.chk"
 Charge =  0 Multiplicity = 1

 SCF Done:  E(RB3LYP) =  -530.214554027     A.U. after   15 cycles
 Normal termination of Gaussian 16 at Tue Dec  8 21:58:50 2020.

 ----------------------------------------------------------------------
 # B3LYP/6-311++G(d,p) empiricaldispersion=gd3bj scf=xqc pop=npa geom=c
 heck
 ----------------------------------------------------------------------

 -------------------------------------
 CID_151658170_JID_1785_Energie_kation
 -------------------------------------
 Structure from the checkpoint file:  "JID_1785.chk"
 Charge =  1 Multiplicity = 2

 SCF Done:  E(UB3LYP) =  -529.860848531     A.U. after   29 cycles
 Normal termination of Gaussian 16 at Tue Dec  8 22:04:02 2020.
 Gaussian 16:  ES64L-G16RevA.03 25-Dec-2016

 ----------------------------------------------------------------------
 # B3LYP/6-311++G(d,p) empiricaldispersion=gd3bj scf=xqc pop=npa geom=c
 heck
 ----------------------------------------------------------------------

 ------------------------------------
 CID_151658170_JID_1785_Energie_anion
 ------------------------------------
 Structure from the checkpoint file:  "JID_1785.chk"
 Charge = -1 Multiplicity = 2

                         Standard orientation:
 ---------------------------------------------------------------------
 Center     Atomic      Atomic             Coordinates (Angstroms)
 Number     Number       Type             X           Y           Z
 ---------------------------------------------------------------------
      1          6           0       -2.644347   -0.361685    1.540858
      2          6           0       -2.551055   -0.520224    0.018165
      3          6           0       -3.907921   -0.922132   -0.571971
      4          6           0       -2.040486    0.756775   -0.672901
      5          6           0       -0.672705    1.232466   -0.211499
      6          8           0        0.262570    0.170872   -0.448192
      7          6           0        1.537150    0.378708   -0.058707
      8          7           0        2.089985    1.389364    0.480861
      9          7           0        2.250338   -0.804791   -0.363314
     10          7           0        3.458199   -0.765273   -0.066559
     11          7           0        4.565807   -0.864697    0.151994
     12          1           0       -3.302181    0.475271    1.810348
     13          1           0       -1.664693   -0.183596    1.997273
     14          1           0       -3.056358   -1.267674    1.998762
     15          1           0       -1.831375   -1.319910   -0.197592
     16          1           0       -4.665089   -0.152177   -0.374048
     17          1           0       -3.846617   -1.059611   -1.657803
     18          1           0       -4.265517   -1.860451   -0.133584
     19          1           0       -2.003926    0.593109   -1.756999
     20          1           0       -2.749743    1.578821   -0.500174
     21          1           0       -0.358806    2.122868   -0.771855
     22          1           0       -0.672339    1.480444    0.857034
     23          1           0        1.441980    2.160255    0.629638
 ---------------------------------------------------------------------

 SCF Done:  E(UB3LYP) =  -530.203304249     A.U. after   33 cycles
 SCF Done:  E(UB3LYP) =  -530.203297290     a.u. after    3 cycles

 The electronic state is 2-A.
 Alpha  occ. eigenvalues --  -19.06101 -14.37627 -14.28600 -14.26142 -14.17973
 Alpha  occ. eigenvalues --  -10.19531 -10.12642 -10.07049 -10.06669 -10.05503
 Alpha  occ. eigenvalues --  -10.05264  -1.04658  -0.98966  -0.88820  -0.78405
 Alpha  occ. eigenvalues --   -0.71441  -0.65767  -0.59028  -0.58168  -0.52049
 Alpha  occ. eigenvalues --   -0.46751  -0.44567  -0.42079  -0.41983  -0.39357
 Alpha  occ. eigenvalues --   -0.38916  -0.36357  -0.35421  -0.33734  -0.32514
 Alpha  occ. eigenvalues --   -0.29231  -0.28695  -0.28263  -0.27637  -0.25914
 Alpha  occ. eigenvalues --   -0.22737  -0.22602  -0.22494  -0.21933  -0.18864
 Alpha  occ. eigenvalues --   -0.18127  -0.15690   0.04716
 Alpha virt. eigenvalues --    0.06268   0.06419   0.07399   0.08290   0.09108
 Alpha virt. eigenvalues --    0.10308   0.10402   0.11532   0.11733   0.12468
 Alpha virt. eigenvalues --    0.13300   0.13767   0.13963   0.15476   0.15707

  Beta  occ. eigenvalues --  -19.06074 -14.37401 -14.28406 -14.26184 -14.17905
  Beta  occ. eigenvalues --  -10.19445 -10.12610 -10.07045 -10.06640 -10.05471
  Beta  occ. eigenvalues --  -10.05226  -1.04315  -0.98877  -0.88703  -0.78272
  Beta  occ. eigenvalues --   -0.71402  -0.65679  -0.58875  -0.58097  -0.51937
  Beta  occ. eigenvalues --   -0.46675  -0.44477  -0.41940  -0.41150  -0.39168
  Beta  occ. eigenvalues --   -0.38725  -0.36127  -0.35173  -0.33674  -0.32349
  Beta  occ. eigenvalues --   -0.29158  -0.28534  -0.28207  -0.27490  -0.25843
  Beta  occ. eigenvalues --   -0.22676  -0.22551  -0.22449  -0.21880  -0.18573
  Beta  occ. eigenvalues --   -0.18044  -0.15253
  Beta virt. eigenvalues --    0.06574   0.07180   0.08203   0.08297   0.08930
  Beta virt. eigenvalues --    0.09797   0.10668   0.11025   0.11923   0.12103
  Beta virt. eigenvalues --    0.12942   0.13622   0.14104   0.14236   0.15692

 Mulliken charges and spin densities:
               1          2
     1  C    1.230225  -1.817473
     2  C   -1.812062   2.201877
     3  C    0.668692  -1.290687
     4  C    2.094038  -2.657202
     5  C   -0.997023   0.613556
     6  O    0.000894   0.033242
     7  C    0.124576  -0.061202
     8  N   -0.395240   0.065254
     9  N   -0.588127   0.146856
    10  N    0.604764  -0.024581
    11  N   -0.093092   0.014967
    12  H   -0.337466   0.481754
    13  H   -0.027222   0.172136
    14  H   -0.210223   0.342298
    15  H    0.184218  -0.008109
    16  H   -0.163437   0.305386
    17  H   -0.237327   0.363617
    18  H   -0.127064   0.256344
    19  H   -0.015831   0.191056
    20  H   -0.432473   0.590779
    21  H   -0.473219   0.663437
    22  H    0.001797   0.187887
    23  H    0.000600   0.228808
 Sum of Mulliken charges =  -1.00000   1.00000

 Dipole moment (field-independent basis, Debye):
    X=              3.0267    Y=             -2.4484    Z=             -0.8703  Tot=              3.9891
 Quadrupole moment (field-independent basis, Debye-Ang):
   XX=           -147.8943   YY=           -100.2682   ZZ=            -93.8860
   XY=              1.4171   XZ=             -0.3072   YZ=              0.4175

 Summary of Natural Population Analysis:

                                       Natural Population
                Natural  -----------------------------------------------
    Atom  No    Charge         Core      Valence    Rydberg      Total
 -----------------------------------------------------------------------
      C    1   -0.28693      0.99965     2.28123    0.00605     3.28693
      C    2   -0.11719      0.99961     2.10817    0.00941     3.11719
      C    3   -0.28251      0.99965     2.27716    0.00570     3.28251
      C    4   -0.19507      0.99960     2.18489    0.01058     3.19507
      C    5   -0.01508      0.99956     2.00318    0.01235     3.01508
      O    6   -0.27423      0.99984     3.26538    0.00900     4.27423
      C    7    0.36030      0.99960     1.61916    0.02093     2.63970
      N    8   -0.38003      0.99969     2.87260    0.00775     3.88003
      N    9   -0.20466      0.99964     2.69148    0.01354     3.70466
      N   10    0.15289      0.99971     2.33085    0.01655     3.34711
      N   11   -0.00140      0.99981     2.48925    0.01233     3.50140
      H   12    0.09838      0.00000     0.40022    0.00140     0.40162
      H   13    0.09938      0.00000     0.39953    0.00109     0.40062
      H   14    0.09910      0.00000     0.39989    0.00101     0.40090
      H   15    0.09778      0.00000     0.40000    0.00222     0.40222
      H   16    0.09777      0.00000     0.40097    0.00126     0.40223
      H   17    0.09805      0.00000     0.40095    0.00099     0.40195
      H   18    0.09771      0.00000     0.40139    0.00090     0.40229
      H   19    0.10072      0.00000     0.39791    0.00137     0.39928
      H   20    0.10369      0.00000     0.39398    0.00233     0.39631
      H   21    0.08946      0.00000     0.40896    0.00158     0.41054
      H   22    0.08856      0.00000     0.40952    0.00191     0.41144
      H   23    0.17330      0.00000     0.32463    0.00208     0.32670
 =======================================================================
   * Total *    0.00000     10.99637    30.86129    0.14234    42.00000

 Normal termination of Gaussian 16 at Tue Dec  8 22:19:59 2020.
