 Gaussian 16, Revision A.03,

 -----------------------------------------------------------
 # opt freq B3LYP/6-31G(d) empiricaldispersion=gd3bj scf=xqc
 -----------------------------------------------------------

 -------------------------------
 CID_126975007_JID_4804_neutraal
 -------------------------------
 Symbolic Z-matrix:
 Charge =  0 Multiplicity = 1

 SCF Done:  E(RB3LYP) =  -649.470400939     A.U. after   14 cycles
 SCF Done:  E(RB3LYP) =  -649.474120299     A.U. after   12 cycles
 SCF Done:  E(RB3LYP) =  -649.474879312     A.U. after   12 cycles
 SCF Done:  E(RB3LYP) =  -649.475187568     A.U. after   12 cycles
 SCF Done:  E(RB3LYP) =  -649.475258794     A.U. after   11 cycles
 SCF Done:  E(RB3LYP) =  -649.475291281     A.U. after   11 cycles
 SCF Done:  E(RB3LYP) =  -649.475303915     A.U. after   10 cycles
 SCF Done:  E(RB3LYP) =  -649.475305358     A.U. after    8 cycles
 SCF Done:  E(RB3LYP) =  -649.475305672     A.U. after    7 cycles
 Optimization completed.
    -- Stationary point found.
 Normal termination of Gaussian 16 at Thu Dec 10 10:36:23 2020.

 --------------------------------------------------------------------
 #N Geom=AllCheck Guess=TCheck SCRF=Check GenChk RB3LYP/6-31G(d) Freq
 --------------------------------------------------------------------

 Structure from the checkpoint file:  "JID_4804.chk"
 -------------------------------
 CID_126975007_JID_4804_neutraal
 -------------------------------
 Charge =  0 Multiplicity = 1

 SCF Done:  E(RB3LYP) =  -649.475305672     A.U. after    1 cycles

  Exact polarizability: 144.897   3.846  95.556   1.263  -7.895 103.371
 Approx polarizability: 200.232   6.075 153.790   2.971 -29.930 170.422

                      1                      2                      3
                      A                      A                      A
 Frequencies --     37.1507                85.8821               106.4753
 Red. masses --      5.0431                 4.2699                 3.6031
 Frc consts  --      0.0041                 0.0186                 0.0241
 IR Inten    --      0.1997                 1.3421                 0.7988

                      4                      5                      6
                      A                      A                      A
 Frequencies --    181.0143               207.8787               226.2737
 Red. masses --      2.7916                 1.5123                 2.1807
 Frc consts  --      0.0539                 0.0385                 0.0658
 IR Inten    --      0.7595                 0.2038                 2.5768

                      7                      8                      9
                      A                      A                      A
 Frequencies --    245.2106               273.6634               301.9605
 Red. masses --      3.1905                 4.4620                 2.9630
 Frc consts  --      0.1130                 0.1969                 0.1592
 IR Inten    --      1.5874                 0.7461                 1.9148

                     10                     11                     12
                      A                      A                      A
 Frequencies --    320.7586               356.0561               395.0124
 Red. masses --      2.7961                 1.3454                 3.3547
 Frc consts  --      0.1695                 0.1005                 0.3084
 IR Inten    --      9.5608                95.6565                17.9631

                     13                     14                     15
                      A                      A                      A
 Frequencies --    413.9985               416.9534               427.7931
 Red. masses --      3.3129                 2.2007                 2.3871
 Frc consts  --      0.3345                 0.2254                 0.2574
 IR Inten    --      8.0028                 7.6726                 1.5101

                     16                     17                     18
                      A                      A                      A
 Frequencies --    497.0131               532.5386               573.3932
 Red. masses --      4.0027                 3.0942                 4.4832
 Frc consts  --      0.5826                 0.5170                 0.8685
 IR Inten    --      8.7470                 7.9745                 4.0155

                     19                     20                     21
                      A                      A                      A
 Frequencies --    604.8527               646.7770               716.7840
 Red. masses --      4.0438                 8.6190                 2.4272
 Frc consts  --      0.8716                 2.1243                 0.7347
 IR Inten    --      7.9010                 9.9427                 1.7403

                     22                     23                     24
                      A                      A                      A
 Frequencies --    747.9058               755.0263               837.1402
 Red. masses --      4.8507                 2.3361                 2.5969
 Frc consts  --      1.5986                 0.7846                 1.0723
 IR Inten    --      2.6821                18.2226                13.5535

                     25                     26                     27
                      A                      A                      A
 Frequencies --    886.1719               906.6512               932.8176
 Red. masses --      2.4693                 2.1739                 2.0293
 Frc consts  --      1.1425                 1.0529                 1.0403
 IR Inten    --      4.9104                 2.3094                 2.8922

                     28                     29                     30
                      A                      A                      A
 Frequencies --    942.6345               984.8760               992.7596
 Red. masses --      2.4451                 2.2842                 1.8772
 Frc consts  --      1.2801                 1.3054                 1.0901
 IR Inten    --      8.1467                 8.8855                31.9581

                     31                     32                     33
                      A                      A                      A
 Frequencies --    997.4209              1007.4217              1014.8020
 Red. masses --      1.4783                 1.9587                 1.5304
 Frc consts  --      0.8665                 1.1713                 0.9286
 IR Inten    --      2.9700                23.2095                 3.4328

                     34                     35                     36
                      A                      A                      A
 Frequencies --   1057.6129              1070.7540              1078.3822
 Red. masses --      2.3237                 2.8375                 2.1487
 Frc consts  --      1.5314                 1.9167                 1.4722
 IR Inten    --      2.1920                12.2178                39.9358

                     37                     38                     39
                      A                      A                      A
 Frequencies --   1111.2323              1154.2552              1158.5062
 Red. masses --      2.2245                 3.8605                 3.7767
 Frc consts  --      1.6184                 3.0304                 2.9865
 IR Inten    --     17.5137                 3.6335                71.3443

                     40                     41                     42
                      A                      A                      A
 Frequencies --   1172.2659              1187.3433              1222.3752
 Red. masses --      2.3254                 2.2146                 1.8092
 Frc consts  --      1.8828                 1.8395                 1.5928
 IR Inten    --      1.7432                33.0046                15.6893

                     43                     44                     45
                      A                      A                      A
 Frequencies --   1250.4672              1259.4208              1277.3124
 Red. masses --      1.9252                 2.8176                 1.9522
 Frc consts  --      1.7737                 2.6331                 1.8766
 IR Inten    --      4.1702                 4.4660                 6.6151

                     46                     47                     48
                      A                      A                      A
 Frequencies --   1282.5069              1337.0649              1338.6737
 Red. masses --      1.5854                 1.2810                 1.4266
 Frc consts  --      1.5364                 1.3493                 1.5062
 IR Inten    --     17.9963                12.9288                 2.5247

                     49                     50                     51
                      A                      A                      A
 Frequencies --   1370.3848              1375.0300              1387.3013
 Red. masses --      1.4896                 1.5174                 1.3415
 Frc consts  --      1.6481                 1.6903                 1.5212
 IR Inten    --     19.7820                20.5533                 8.6765

                     52                     53                     54
                      A                      A                      A
 Frequencies --   1400.2040              1404.2210              1434.1605
 Red. masses --      1.2932                 1.3900                 1.2838
 Frc consts  --      1.4938                 1.6149                 1.5557
 IR Inten    --     16.1352                11.2272                18.6864

                     55                     56                     57
                      A                      A                      A
 Frequencies --   1449.8357              1466.2549              1471.8257
 Red. masses --      1.2789                 2.4748                 2.0115
 Frc consts  --      1.5839                 3.1348                 2.5673
 IR Inten    --      7.3924                64.7164                18.2343

                     58                     59                     60
                      A                      A                      A
 Frequencies --   1507.8539              1518.3861              1529.1602
 Red. masses --      1.0933                 1.0750                 1.0632
 Frc consts  --      1.4646                 1.4602                 1.4648
 IR Inten    --      3.5057                 0.5125                 3.8544

                     61                     62                     63
                      A                      A                      A
 Frequencies --   1537.7775              1539.6076              1609.8045
 Red. masses --      1.0855                 1.0546                 5.1370
 Frc consts  --      1.5125                 1.4729                 7.8434
 IR Inten    --      5.0712                 3.7806                54.5810

                     64                     65                     66
                      A                      A                      A
 Frequencies --   1637.2440              3018.0398              3038.2011
 Red. masses --      4.9993                 1.0690                 1.0668
 Frc consts  --      7.8956                 5.7367                 5.8016
 IR Inten    --     26.7245                45.9891                34.9118

                     67                     68                     69
                      A                      A                      A
 Frequencies --   3043.8104              3054.2964              3064.2943
 Red. masses --      1.0675                 1.0811                 1.0374
 Frc consts  --      5.8273                 5.9422                 5.7392
 IR Inten    --     33.3011                32.2533                11.6760

                     70                     71                     72
                      A                      A                      A
 Frequencies --   3104.5100              3110.0799              3116.5721
 Red. masses --      1.0943                 1.1010                 1.0977
 Frc consts  --      6.2140                 6.2746                 6.2818
 IR Inten    --     33.4272                27.0774                33.0361

                     73                     74                     75
                      A                      A                      A
 Frequencies --   3127.4815              3142.9231              3190.4083
 Red. masses --      1.1003                 1.1026                 1.0884
 Frc consts  --      6.3409                 6.4168                 6.5274
 IR Inten    --     31.1551                23.0025                34.5962

                     76                     77                     78
                      A                      A                      A
 Frequencies --   3194.3069              3199.3540              3724.1652
 Red. masses --      1.0911                 1.0925                 1.0661
 Frc consts  --      6.5592                 6.5887                 8.7117
 IR Inten    --     19.1343                 2.0303                11.4028

 - Thermochemistry -
 -------------------
 Temperature   298.150 Kelvin.  Pressure   1.00000 Atm.
 Atom     1 has atomic number  6 and mass  12.00000

 Molecular mass:   194.10553 amu.
 Principal axes and moments of inertia in atomic units:
                           1         2         3
     Eigenvalues --  1163.814054058.380874103.98088
           X            1.00000   0.00049   0.00069
           Y           -0.00075   0.89040   0.45518
           Z           -0.00039  -0.45518   0.89040
 This molecule is an asymmetric top.
 Rotational symmetry number  1.
 Warning -- assumption of classical behavior for rotation
           may cause significant error
 Rotational temperatures (Kelvin)      0.07442     0.02134     0.02110
 Rotational constants (GHZ):           1.55071     0.44469     0.43975
 Zero-point vibrational energy     623845.0 (Joules/Mol)
                                  149.10253 (Kcal/Mol)
 Warning -- explicit consideration of  19 degrees of freedom as
           vibrations may cause significant error
 Vibrational temperatures:     53.45   123.57   153.19   260.44   299.09
          (Kelvin)            325.56   352.80   393.74   434.45   461.50
                              512.29   568.33   595.65   599.90   615.50
                              715.09   766.20   824.98   870.25   930.57
                             1031.29  1076.07  1086.31  1204.46  1275.00
                             1304.47  1342.12  1356.24  1417.02  1428.36
                             1435.07  1449.46  1460.07  1521.67  1540.58
                             1551.55  1598.82  1660.72  1666.83  1686.63
                             1708.32  1758.73  1799.14  1812.03  1837.77
                             1845.24  1923.74  1926.05  1971.68  1978.36
                             1996.02  2014.58  2020.36  2063.44  2085.99
                             2109.61  2117.63  2169.47  2184.62  2200.12
                             2212.52  2215.15  2316.15  2355.63  4342.29
                             4371.29  4379.36  4394.45  4408.84  4466.70
                             4474.71  4484.05  4499.75  4521.97  4590.29
                             4595.90  4603.16  5358.24

 Zero-point correction=                           0.237610 (Hartree/Particle)
 Thermal correction to Energy=                    0.249757
 Thermal correction to Enthalpy=                  0.250701
 Thermal correction to Gibbs Free Energy=         0.199352
 Sum of electronic and zero-point Energies=           -649.237696
 Sum of electronic and thermal Energies=              -649.225549
 Sum of electronic and thermal Enthalpies=            -649.224604
 Sum of electronic and thermal Free Energies=         -649.275954

                     E (Thermal)             CV                S
                      KCal/Mol        Cal/Mol-Kelvin    Cal/Mol-Kelvin
 Total                  156.725             48.158            108.074
 Electronic               0.000              0.000              0.000
 Translational            0.889              2.981             41.695
 Rotational               0.889              2.981             31.339
 Vibrational            154.948             42.196             35.040
 Vibration     1          0.594              1.982              5.406
 Vibration     2          0.601              1.959              3.752
 Vibration     3          0.605              1.944              3.332
 Vibration     4          0.630              1.866              2.318
 Vibration     5          0.641              1.829              2.062
 Vibration     6          0.650              1.801              1.908
 Vibration     7          0.660              1.771              1.765
 Vibration     8          0.676              1.722              1.573
 Vibration     9          0.694              1.670              1.406
 Vibration    10          0.706              1.634              1.306
 Vibration    11          0.732              1.563              1.139
 Vibration    12          0.762              1.481              0.981
 Vibration    13          0.778              1.440              0.913
 Vibration    14          0.780              1.433              0.902
 Vibration    15          0.789              1.410              0.866
 Vibration    16          0.853              1.257              0.666
 Vibration    17          0.888              1.178              0.582
 Vibration    18          0.930              1.089              0.498
 Vibration    19          0.963              1.022              0.441

                           ! Non-Optimized Parameters !
 Normal termination of Gaussian 16 at Thu Dec 10 10:46:00 2020.

 ----------------------------------------------------------------------
 # B3LYP/6-311++G(d,p) empiricaldispersion=gd3bj scf=xqc pop=npa geom=c
 heck
 ----------------------------------------------------------------------

 ---------------------------------------
 CID_126975007_JID_4804_Energie_neutraal
 ---------------------------------------
 Structure from the checkpoint file:  "JID_4804.chk"
 Charge =  0 Multiplicity = 1

 SCF Done:  E(RB3LYP) =  -649.659529252     A.U. after   15 cycles
 Normal termination of Gaussian 16 at Thu Dec 10 10:50:12 2020.

 ----------------------------------------------------------------------
 # B3LYP/6-311++G(d,p) empiricaldispersion=gd3bj scf=xqc pop=npa geom=c
 heck
 ----------------------------------------------------------------------

 -------------------------------------
 CID_126975007_JID_4804_Energie_kation
 -------------------------------------
 Structure from the checkpoint file:  "JID_4804.chk"
 Charge =  1 Multiplicity = 2

 SCF Done:  E(UB3LYP) =  -649.331569842     A.U. after   29 cycles
 Normal termination of Gaussian 16 at Thu Dec 10 11:01:32 2020.
 Gaussian 16:  ES64L-G16RevA.03 25-Dec-2016

 ----------------------------------------------------------------------
 # B3LYP/6-311++G(d,p) empiricaldispersion=gd3bj scf=xqc pop=npa geom=c
 heck
 ----------------------------------------------------------------------

 ------------------------------------
 CID_126975007_JID_4804_Energie_anion
 ------------------------------------
 Structure from the checkpoint file:  "JID_4804.chk"
 Charge = -1 Multiplicity = 2

                         Standard orientation:
 ---------------------------------------------------------------------
 Center     Atomic      Atomic             Coordinates (Angstroms)
 Number     Number       Type             X           Y           Z
 ---------------------------------------------------------------------
      1          6           0       -0.851873    1.938213    0.853466
      2          6           0       -1.125694    0.443025    1.044669
      3          6           0       -2.636678    0.158447    1.031651
      4          8           0       -3.202848    0.399354   -0.252257
      5          6           0       -2.662492   -0.481111   -1.225855
      6          6           0       -1.153224   -0.277881   -1.378882
      7          6           0       -0.443041   -0.457814   -0.023215
      8          6           0        1.056246   -0.203765   -0.090376
      9          6           0        1.910790   -0.788660    0.852925
     10          7           0        3.232779   -0.590335    0.866312
     11          6           0        3.710721    0.211135   -0.092198
     12          7           0        3.009277    0.823147   -1.049612
     13          6           0        1.687133    0.610246   -1.034616
     14          8           0       -0.663014   -1.798261    0.454311
     15          1           0       -1.309157    2.309551   -0.068364
     16          1           0        0.218434    2.161131    0.826489
     17          1           0       -1.289491    2.501876    1.684316
     18          1           0       -0.727734    0.125553    2.017273
     19          1           0       -2.828447   -0.878146    1.340154
     20          1           0       -3.155065    0.831785    1.720880
     21          1           0       -3.178609   -0.257005   -2.163659
     22          1           0       -2.874303   -1.525553   -0.951648
     23          1           0       -0.975172    0.727757   -1.771612
     24          1           0       -0.742900   -0.987518   -2.110623
     25          1           0        1.505382   -1.449050    1.615349
     26          1           0        4.785381    0.380397   -0.093064
     27          1           0        1.120348    1.115821   -1.812474
     28          1           0       -0.267486   -2.406027   -0.191770
 ---------------------------------------------------------------------

 SCF Done:  E(UB3LYP) =  -649.656900758     A.U. after   33 cycles
 SCF Done:  E(UB3LYP) =  -649.656900758     a.u. after    1 cycles

 The electronic state is 2-A.
 Alpha  occ. eigenvalues --  -19.01875 -19.00800 -14.16883 -14.16231 -10.12572
 Alpha  occ. eigenvalues --  -10.10763 -10.10682 -10.09620 -10.07183 -10.06870
 Alpha  occ. eigenvalues --  -10.06119 -10.06048 -10.05430 -10.05398  -0.93527
 Alpha  occ. eigenvalues --   -0.91308  -0.84079  -0.74379  -0.70660  -0.67058
 Alpha  occ. eigenvalues --   -0.64619  -0.58546  -0.54873  -0.53210  -0.50933
 Alpha  occ. eigenvalues --   -0.49593  -0.43758  -0.40426  -0.39085  -0.38438
 Alpha  occ. eigenvalues --   -0.37273  -0.36453  -0.36115  -0.35322  -0.30757
 Alpha  occ. eigenvalues --   -0.30588  -0.28670  -0.28421  -0.27602  -0.27381
 Alpha  occ. eigenvalues --   -0.26743  -0.25925  -0.24976  -0.24310  -0.21575
 Alpha  occ. eigenvalues --   -0.20111  -0.18637  -0.18022  -0.16540  -0.14551
 Alpha  occ. eigenvalues --   -0.13962  -0.11239   0.04946
 Alpha virt. eigenvalues --    0.07239   0.07931   0.08624   0.09421   0.10092
 Alpha virt. eigenvalues --    0.10435   0.11029   0.11087   0.11355   0.11832
 Alpha virt. eigenvalues --    0.13820   0.13882   0.14189   0.14381   0.15459

  Beta  occ. eigenvalues --  -19.01870 -19.00747 -14.16723 -14.15886 -10.12567
  Beta  occ. eigenvalues --  -10.10752 -10.10659 -10.09654 -10.07188 -10.06700
  Beta  occ. eigenvalues --  -10.06108 -10.05669 -10.05478 -10.05418  -0.93510
  Beta  occ. eigenvalues --   -0.91204  -0.83649  -0.73777  -0.70613  -0.67008
  Beta  occ. eigenvalues --   -0.64399  -0.58506  -0.54762  -0.53040  -0.50390
  Beta  occ. eigenvalues --   -0.49517  -0.43697  -0.40322  -0.38990  -0.38278
  Beta  occ. eigenvalues --   -0.37153  -0.36430  -0.35986  -0.35278  -0.30670
  Beta  occ. eigenvalues --   -0.30541  -0.28629  -0.27603  -0.27379  -0.27247
  Beta  occ. eigenvalues --   -0.26601  -0.25880  -0.24897  -0.24274  -0.21518
  Beta  occ. eigenvalues --   -0.20062  -0.18432  -0.16424  -0.16122  -0.14372
  Beta  occ. eigenvalues --   -0.13292  -0.10943
  Beta virt. eigenvalues --    0.07451   0.08325   0.09088   0.09552   0.10126
  Beta virt. eigenvalues --    0.10416   0.10701   0.11162   0.11340   0.11491
  Beta virt. eigenvalues --    0.12057   0.13881   0.14013   0.14305   0.14523

 Mulliken charges and spin densities:
               1          2
     1  C   -0.614785  -0.147766
     2  C    0.323233   0.239875
     3  C   -0.401919  -0.193145
     4  O   -0.171239   0.036207
     5  C    0.896382  -1.440019
     6  C   -0.977222   0.715719
     7  C    0.245008  -0.529148
     8  C    0.774810  -0.632503
     9  C   -0.377906   0.171808
    10  N   -0.126753   0.150539
    11  C   -0.036127  -0.046017
    12  N   -0.108736   0.082457
    13  C   -0.616892   0.518866
    14  O   -0.207036   0.058625
    15  H    0.074491   0.098311
    16  H    0.169200   0.019564
    17  H    0.124298   0.002174
    18  H    0.215273  -0.020810
    19  H    0.058497   0.106551
    20  H    0.034064   0.134233
    21  H   -0.319836   0.498284
    22  H   -0.076224   0.243153
    23  H    0.244431  -0.109762
    24  H   -0.225685   0.407843
    25  H    0.081116   0.091571
    26  H    0.153098   0.004088
    27  H   -0.011811   0.157017
    28  H   -0.121732   0.382283
 Sum of Mulliken charges =  -1.00000   1.00000

 Dipole moment (field-independent basis, Debye):
    X=             -2.4615    Y=              2.6234    Z=              2.1448  Tot=              4.1883
 Quadrupole moment (field-independent basis, Debye-Ang):
   XX=           -140.5573   YY=           -112.3831   ZZ=           -106.1697
   XY=             -2.0805   XZ=             -5.1603   YZ=              1.7609

 Summary of Natural Population Analysis:

                                       Natural Population
                Natural  -----------------------------------------------
    Atom  No    Charge         Core      Valence    Rydberg      Total
 -----------------------------------------------------------------------
      C    1   -0.28927      0.99964     2.28437    0.00525     3.28927
      C    2   -0.12595      0.99955     2.11630    0.01010     3.12595
      C    3   -0.00721      0.99955     1.99581    0.01185     3.00721
      O    4   -0.30457      0.99989     3.29561    0.00907     4.30457
      C    5   -0.00942      0.99958     1.99566    0.01418     3.00942
      C    6   -0.21704      0.99958     2.20679    0.01067     3.21704
      C    7    0.13292      0.99946     1.84974    0.01788     2.86708
      C    8   -0.08758      0.99945     2.07652    0.01160     3.08758
      C    9    0.06911      0.99953     1.91552    0.01583     2.93089
      N   10   -0.21440      0.99971     2.70284    0.01185     3.71440
      C   11    0.12357      0.99967     1.85782    0.01895     2.87643
      N   12   -0.23552      0.99971     2.72469    0.01112     3.73552
      C   13    0.10172      0.99953     1.88577    0.01298     2.89828
      O   14   -0.38055      0.99989     3.37359    0.00707     4.38055
      H   15    0.10125      0.00000     0.39753    0.00122     0.39875
      H   16    0.10831      0.00000     0.39093    0.00076     0.39169
      H   17    0.09499      0.00000     0.40411    0.00090     0.40501
      H   18    0.10464      0.00000     0.39389    0.00147     0.39536
      H   19    0.08876      0.00000     0.40996    0.00128     0.41124
      H   20    0.08622      0.00000     0.41264    0.00114     0.41378
      H   21    0.08913      0.00000     0.40957    0.00130     0.41087
      H   22    0.08320      0.00000     0.41506    0.00174     0.41680
      H   23    0.10367      0.00000     0.39494    0.00139     0.39633
      H   24    0.10582      0.00000     0.39259    0.00158     0.39418
      H   25    0.09060      0.00000     0.40751    0.00189     0.40940
      H   26    0.07370      0.00000     0.42501    0.00129     0.42630
      H   27    0.08012      0.00000     0.41756    0.00232     0.41988
      H   28    0.23377      0.00000     0.26108    0.00515     0.26623
 =======================================================================
   * Total *    0.00000     13.99477    37.81340    0.19183    52.00000

 Normal termination of Gaussian 16 at Thu Dec 10 11:14:48 2020.
