 Gaussian 16, Revision A.03,

 -----------------------------------------------------------
 # opt freq B3LYP/6-31G(d) empiricaldispersion=gd3bj scf=xqc
 -----------------------------------------------------------

 -------------------------------
 CID_107410848_JID_3523_neutraal
 -------------------------------
 Symbolic Z-matrix:
 Charge =  0 Multiplicity = 1

 SCF Done:  E(RB3LYP) =  -607.553416221     A.U. after   15 cycles
 SCF Done:  E(RB3LYP) =  -607.559402365     A.U. after   12 cycles
 SCF Done:  E(RB3LYP) =  -607.559928634     A.U. after   12 cycles
 SCF Done:  E(RB3LYP) =  -607.560638533     A.U. after   12 cycles
 SCF Done:  E(RB3LYP) =  -607.560773509     A.U. after   11 cycles
 SCF Done:  E(RB3LYP) =  -607.560783287     A.U. after    9 cycles
 SCF Done:  E(RB3LYP) =  -607.560786540     A.U. after    9 cycles
 SCF Done:  E(RB3LYP) =  -607.560787796     A.U. after    8 cycles
 SCF Done:  E(RB3LYP) =  -607.560788663     A.U. after    9 cycles
 SCF Done:  E(RB3LYP) =  -607.560788935     A.U. after    7 cycles
 SCF Done:  E(RB3LYP) =  -607.560789253     A.U. after    8 cycles
 SCF Done:  E(RB3LYP) =  -607.560789481     A.U. after    8 cycles
 SCF Done:  E(RB3LYP) =  -607.560789526     A.U. after    7 cycles
 Optimization completed.
    -- Stationary point found.
 Normal termination of Gaussian 16 at Wed Dec  9 23:34:53 2020.

 --------------------------------------------------------------------
 #N Geom=AllCheck Guess=TCheck SCRF=Check GenChk RB3LYP/6-31G(d) Freq
 --------------------------------------------------------------------

 Structure from the checkpoint file:  "JID_3523.chk"
 -------------------------------
 CID_107410848_JID_3523_neutraal
 -------------------------------
 Charge =  0 Multiplicity = 1

 SCF Done:  E(RB3LYP) =  -607.560789526     A.U. after    1 cycles

  Exact polarizability: 122.730   4.644  94.607  -0.301   9.542  93.728
 Approx polarizability: 174.401   5.303 141.776  -1.270  26.538 147.664

                      1                      2                      3
                      A                      A                      A
 Frequencies --     26.8112                82.1499               113.4323
 Red. masses --      6.5537                 4.3549                 3.3141
 Frc consts  --      0.0028                 0.0173                 0.0251
 IR Inten    --      0.7315                 0.3128                 0.1816

                      4                      5                      6
                      A                      A                      A
 Frequencies --    179.7937               210.4648               219.1343
 Red. masses --      4.3844                 4.5402                 3.9276
 Frc consts  --      0.0835                 0.1185                 0.1111
 IR Inten    --      1.8986                 2.7463                 0.1412

                      7                      8                      9
                      A                      A                      A
 Frequencies --    250.9419               286.6115               312.5460
 Red. masses --      2.8139                 1.2684                 2.2135
 Frc consts  --      0.1044                 0.0614                 0.1274
 IR Inten    --      9.2390                32.3703                14.9400

                     10                     11                     12
                      A                      A                      A
 Frequencies --    359.3643               372.3955               415.4407
 Red. masses --      2.3525                 2.2001                 3.1636
 Frc consts  --      0.1790                 0.1798                 0.3217
 IR Inten    --     16.9678                 7.5178                 1.1511

                     13                     14                     15
                      A                      A                      A
 Frequencies --    447.6376               488.9202               506.9782
 Red. masses --      1.5091                 3.3981                 3.0722
 Frc consts  --      0.1782                 0.4786                 0.4652
 IR Inten    --     46.7741                18.0871                 9.8825

                     16                     17                     18
                      A                      A                      A
 Frequencies --    575.7361               586.0820               662.4080
 Red. masses --      3.5128                 2.4839                 3.7179
 Frc consts  --      0.6860                 0.5027                 0.9612
 IR Inten    --      7.4493                 7.4264                31.1455

                     19                     20                     21
                      A                      A                      A
 Frequencies --    733.5618               740.2059               765.6025
 Red. masses --      3.3354                 5.2620                 3.8987
 Frc consts  --      1.0575                 1.6987                 1.3464
 IR Inten    --      9.6241                13.5626                 6.1033

                     22                     23                     24
                      A                      A                      A
 Frequencies --    799.0878               827.8082               853.7440
 Red. masses --      3.1425                 1.3254                 2.3527
 Frc consts  --      1.1823                 0.5351                 1.0104
 IR Inten    --      2.6525                10.0109                 6.2739

                     25                     26                     27
                      A                      A                      A
 Frequencies --    864.9522               881.1892               922.2315
 Red. masses --      1.7876                 1.6342                 1.7883
 Frc consts  --      0.7880                 0.7477                 0.8961
 IR Inten    --     40.9343               140.2116                 1.8326

                     28                     29                     30
                      A                      A                      A
 Frequencies --    932.9300               946.8166              1003.2679
 Red. masses --      4.1955                 1.9878                 2.3852
 Frc consts  --      2.1515                 1.0499                 1.4145
 IR Inten    --     53.7682                54.3658                 8.0548

                     31                     32                     33
                      A                      A                      A
 Frequencies --   1044.1358              1060.8152              1083.9118
 Red. masses --      1.6799                 1.8246                 3.0644
 Frc consts  --      1.0791                 1.2097                 2.1212
 IR Inten    --      3.1142                 2.9521                22.2122

                     34                     35                     36
                      A                      A                      A
 Frequencies --   1098.4245              1118.0327              1140.1114
 Red. masses --      1.6492                 1.6436                 1.9284
 Frc consts  --      1.1724                 1.2105                 1.4768
 IR Inten    --      4.5153                 1.8013                 4.5856

                     37                     38                     39
                      A                      A                      A
 Frequencies --   1166.1141              1176.9929              1215.4801
 Red. masses --      2.1504                 1.6927                 3.3403
 Frc consts  --      1.7229                 1.3816                 2.9076
 IR Inten    --      4.1950                 2.0227                 5.3753

                     40                     41                     42
                      A                      A                      A
 Frequencies --   1248.7301              1254.2765              1281.7394
 Red. masses --      3.0158                 1.4691                 1.4886
 Frc consts  --      2.7707                 1.3617                 1.4409
 IR Inten    --     25.3541                23.8193                 4.3304

                     43                     44                     45
                      A                      A                      A
 Frequencies --   1300.3097              1320.6460              1343.7536
 Red. masses --      1.3713                 1.4422                 1.3575
 Frc consts  --      1.3661                 1.4820                 1.4442
 IR Inten    --      0.5514                 5.3668                 2.7667

                     46                     47                     48
                      A                      A                      A
 Frequencies --   1370.9188              1383.1607              1390.0995
 Red. masses --      1.3324                 2.5353                 1.3606
 Frc consts  --      1.4754                 2.8578                 1.5491
 IR Inten    --      2.3941                36.3402                16.6306

                     49                     50                     51
                      A                      A                      A
 Frequencies --   1400.1170              1409.6315              1414.1512
 Red. masses --      1.4168                 1.4883                 1.7776
 Frc consts  --      1.6363                 1.7424                 2.0945
 IR Inten    --      5.6834                13.3214                21.9627

                     52                     53                     54
                      A                      A                      A
 Frequencies --   1418.2237              1438.7363              1467.0906
 Red. masses --      1.4803                 1.5108                 1.3127
 Frc consts  --      1.7542                 1.8426                 1.6647
 IR Inten    --      5.5500                 3.2176                22.6787

                     55                     56                     57
                      A                      A                      A
 Frequencies --   1507.3057              1517.5777              1520.0459
 Red. masses --      1.0919                 1.0918                 1.0846
 Frc consts  --      1.4616                 1.4815                 1.4765
 IR Inten    --      2.4423                 6.0780                 8.1092

                     58                     59                     60
                      A                      A                      A
 Frequencies --   1534.0939              1630.1397              1693.5788
 Red. masses --      1.0991                 5.6803                 1.0950
 Frc consts  --      1.5240                 8.8935                 1.8505
 IR Inten    --     24.1265                68.6038                16.8088

                     61                     62                     63
                      A                      A                      A
 Frequencies --   1825.1229              3012.6449              3016.8740
 Red. masses --      9.7685                 1.0747                 1.0785
 Frc consts  --     19.1717                 5.7467                 5.7836
 IR Inten    --    459.2514                 5.7918                55.0840

                     64                     65                     66
                      A                      A                      A
 Frequencies --   3027.9548              3048.7934              3056.7407
 Red. masses --      1.0687                 1.0819                 1.0712
 Frc consts  --      5.7733                 5.9248                 5.8970
 IR Inten    --     15.0107                54.5111                56.3562

                     67                     68                     69
                      A                      A                      A
 Frequencies --   3069.2706              3082.2449              3083.2089
 Red. masses --      1.0657                 1.0943                 1.0925
 Frc consts  --      5.9151                 6.1250                 6.1190
 IR Inten    --     26.4150                59.3913                25.5263

                     70                     71                     72
                      A                      A                      A
 Frequencies --   3121.7710              3137.5211              3275.8030
 Red. masses --      1.1027                 1.0951                 1.0982
 Frc consts  --      6.3317                 6.3513                 6.9433
 IR Inten    --     11.0101                 8.5084                 0.8252

                     73                     74                     75
                      A                      A                      A
 Frequencies --   3458.9735              3547.0471              3686.8730
 Red. masses --      1.0490                 1.0924                 1.0816
 Frc consts  --      7.3948                 8.0980                 8.6621
 IR Inten    --      2.5998                 0.8892                91.0354

 - Thermochemistry -
 -------------------
 Temperature   298.150 Kelvin.  Pressure   1.00000 Atm.
 Atom     1 has atomic number  6 and mass  12.00000

 Molecular mass:   182.11676 amu.
 Principal axes and moments of inertia in atomic units:
                           1         2         3
     Eigenvalues --  1348.646762752.255323036.91414
           X            0.99987   0.01601  -0.00290
           Y           -0.01608   0.99955  -0.02542
           Z            0.00249   0.02546   0.99967
 This molecule is an asymmetric top.
 Rotational symmetry number  1.
 Warning -- assumption of classical behavior for rotation
           may cause significant error
 Rotational temperatures (Kelvin)      0.06422     0.03147     0.02852
 Rotational constants (GHZ):           1.33819     0.65573     0.59427
 Zero-point vibrational energy     614685.8 (Joules/Mol)
                                  146.91342 (Kcal/Mol)
 Warning -- explicit consideration of  17 degrees of freedom as
           vibrations may cause significant error
 Vibrational temperatures:     38.58   118.20   163.20   258.68   302.81
          (Kelvin)            315.29   361.05   412.37   449.68   517.05
                              535.79   597.73   644.05   703.45   729.43
                              828.36   843.24   953.06  1055.43  1064.99
                             1101.53  1149.71  1191.03  1228.35  1244.47
                             1267.83  1326.89  1342.28  1362.26  1443.48
                             1502.28  1526.28  1559.51  1580.39  1608.60
                             1640.37  1677.78  1693.43  1748.80  1796.64
                             1804.62  1844.14  1870.86  1900.12  1933.36
                             1972.45  1990.06  2000.04  2014.46  2028.15
                             2034.65  2040.51  2070.02  2110.82  2168.68
                             2183.46  2187.01  2207.22  2345.41  2436.68
                             2625.94  4334.52  4340.61  4356.55  4386.53
                             4397.97  4416.00  4434.66  4436.05  4491.53
                             4514.19  4713.15  4976.69  5103.41  5304.59

 Zero-point correction=                           0.234121 (Hartree/Particle)
 Thermal correction to Energy=                    0.245651
 Thermal correction to Enthalpy=                  0.246595
 Thermal correction to Gibbs Free Energy=         0.196292
 Sum of electronic and zero-point Energies=           -607.326668
 Sum of electronic and thermal Energies=              -607.315139
 Sum of electronic and thermal Enthalpies=            -607.314195
 Sum of electronic and thermal Free Energies=         -607.364497

                     E (Thermal)             CV                S
                      KCal/Mol        Cal/Mol-Kelvin    Cal/Mol-Kelvin
 Total                  154.148             45.383            105.871
 Electronic               0.000              0.000              0.000
 Translational            0.889              2.981             41.505
 Rotational               0.889              2.981             30.800
 Vibrational            152.371             39.421             33.565
 Vibration     1          0.593              1.984              6.052
 Vibration     2          0.600              1.961              3.839
 Vibration     3          0.607              1.938              3.209
 Vibration     4          0.629              1.867              2.331
 Vibration     5          0.643              1.825              2.040
 Vibration     6          0.647              1.812              1.966
 Vibration     7          0.663              1.761              1.724
 Vibration     8          0.684              1.699              1.494
 Vibration     9          0.701              1.650              1.349
 Vibration    10          0.734              1.556              1.125
 Vibration    11          0.744              1.529              1.070
 Vibration    12          0.779              1.437              0.908
 Vibration    13          0.807              1.366              0.803
 Vibration    14          0.845              1.275              0.686
 Vibration    15          0.862              1.235              0.641
 Vibration    16          0.932              1.084              0.493
 Vibration    17          0.943              1.061              0.474

                           ! Non-Optimized Parameters !
 Normal termination of Gaussian 16 at Wed Dec  9 23:42:53 2020.

 ----------------------------------------------------------------------
 # B3LYP/6-311++G(d,p) empiricaldispersion=gd3bj scf=xqc pop=npa geom=c
 heck
 ----------------------------------------------------------------------

 ---------------------------------------
 CID_107410848_JID_3523_Energie_neutraal
 ---------------------------------------
 Structure from the checkpoint file:  "JID_3523.chk"
 Charge =  0 Multiplicity = 1

 SCF Done:  E(RB3LYP) =  -607.739224620     A.U. after   15 cycles
 Normal termination of Gaussian 16 at Wed Dec  9 23:46:23 2020.

 ----------------------------------------------------------------------
 # B3LYP/6-311++G(d,p) empiricaldispersion=gd3bj scf=xqc pop=npa geom=c
 heck
 ----------------------------------------------------------------------

 -------------------------------------
 CID_107410848_JID_3523_Energie_kation
 -------------------------------------
 Structure from the checkpoint file:  "JID_3523.chk"
 Charge =  1 Multiplicity = 2

 SCF Done:  E(UB3LYP) =  -607.430255125     A.U. after   23 cycles
 Normal termination of Gaussian 16 at Wed Dec  9 23:53:56 2020.
 Gaussian 16:  ES64L-G16RevA.03 25-Dec-2016

 ----------------------------------------------------------------------
 # B3LYP/6-311++G(d,p) empiricaldispersion=gd3bj scf=xqc pop=npa geom=c
 heck
 ----------------------------------------------------------------------

 ------------------------------------
 CID_107410848_JID_3523_Energie_anion
 ------------------------------------
 Structure from the checkpoint file:  "JID_3523.chk"
 Charge = -1 Multiplicity = 2

                         Standard orientation:
 ---------------------------------------------------------------------
 Center     Atomic      Atomic             Coordinates (Angstroms)
 Number     Number       Type             X           Y           Z
 ---------------------------------------------------------------------
      1          6           0       -2.808533   -0.583516   -0.334617
      2          6           0       -1.955810   -1.475631    0.576363
      3          6           0       -1.172426   -0.633748    1.591389
      4          6           0       -0.354332    0.512046    0.967392
      5          6           0       -1.182223    1.344647   -0.056626
      6          6           0       -1.954277    0.470555   -1.051012
      7          7           0       -0.420732    2.363997   -0.772679
      8          7           0        0.961406    0.092123    0.449070
      9          6           0        2.151986    0.592816    0.929650
     10          7           0        3.197892    0.123597    0.320910
     11          7           0        2.655656   -0.726797   -0.614935
     12          6           0        1.279541   -0.797410   -0.596409
     13          8           0        0.549908   -1.462858   -1.319039
     14          1           0       -3.335313   -1.197652   -1.074079
     15          1           0       -3.582838   -0.080118    0.264458
     16          1           0       -1.261267   -2.054696   -0.036766
     17          1           0       -2.593434   -2.184101    1.119590
     18          1           0       -0.509290   -1.259109    2.200539
     19          1           0       -1.884309   -0.163061    2.284219
     20          1           0       -0.082640    1.198993    1.778270
     21          1           0       -1.924703    1.874737    0.558207
     22          1           0       -2.578777    1.130886   -1.662452
     23          1           0       -1.247308   -0.032834   -1.717974
     24          1           0        0.102552    2.948883   -0.121974
     25          1           0        0.267677    1.916229   -1.376221
     26          1           0        2.196633    1.303041    1.743220
     27          1           0        3.250647   -1.247323   -1.240068
 ---------------------------------------------------------------------

 SCF Done:  E(UB3LYP) =  -607.729078986     A.U. after   32 cycles

 The electronic state is 2-A.
 Alpha  occ. eigenvalues --  -18.99466 -14.28406 -14.27355 -14.25007 -14.19021
 Alpha  occ. eigenvalues --  -10.20756 -10.14303 -10.11607 -10.09727 -10.06679
 Alpha  occ. eigenvalues --  -10.06218 -10.05612 -10.05464  -0.99507  -0.92573
 Alpha  occ. eigenvalues --   -0.84572  -0.78610  -0.73353  -0.71351  -0.65218
 Alpha  occ. eigenvalues --   -0.62279  -0.56842  -0.54638  -0.50662  -0.49811
 Alpha  occ. eigenvalues --   -0.46348  -0.44184  -0.40033  -0.38764  -0.38087
 Alpha  occ. eigenvalues --   -0.36909  -0.36102  -0.35324  -0.33443  -0.33016
 Alpha  occ. eigenvalues --   -0.30995  -0.28568  -0.28319  -0.27661  -0.26804
 Alpha  occ. eigenvalues --   -0.24263  -0.23782  -0.22948  -0.22142  -0.20747
 Alpha  occ. eigenvalues --   -0.20416  -0.17339  -0.14512  -0.13254   0.04533
 Alpha virt. eigenvalues --    0.06696   0.07414   0.08491   0.09181   0.09561
 Alpha virt. eigenvalues --    0.10208   0.11011   0.11209   0.11680   0.12640
 Alpha virt. eigenvalues --    0.12854   0.13403   0.13639   0.14436   0.15281

  Beta  occ. eigenvalues --  -18.99463 -14.28385 -14.27353 -14.25009 -14.18991
  Beta  occ. eigenvalues --  -10.20754 -10.14266 -10.11573 -10.09712 -10.06653
  Beta  occ. eigenvalues --  -10.06208 -10.05607 -10.05459  -0.99489  -0.92563
  Beta  occ. eigenvalues --   -0.84543  -0.78562  -0.73314  -0.71311  -0.65174
  Beta  occ. eigenvalues --   -0.62232  -0.56795  -0.54588  -0.50615  -0.49765
  Beta  occ. eigenvalues --   -0.46286  -0.44134  -0.40012  -0.38714  -0.38036
  Beta  occ. eigenvalues --   -0.36834  -0.36044  -0.35280  -0.33421  -0.32978
  Beta  occ. eigenvalues --   -0.30963  -0.28531  -0.28259  -0.27626  -0.26791
  Beta  occ. eigenvalues --   -0.24232  -0.23765  -0.22919  -0.22115  -0.20709
  Beta  occ. eigenvalues --   -0.20388  -0.17318  -0.14479  -0.13238
  Beta virt. eigenvalues --    0.06979   0.07509   0.08587   0.08877   0.09651
  Beta virt. eigenvalues --    0.09908   0.10650   0.11326   0.11673   0.12081
  Beta virt. eigenvalues --    0.12756   0.13150   0.13423   0.14165   0.14930

 Mulliken charges and spin densities:
               1          2
     1  C    0.075400  -0.735352
     2  C   -0.680963   0.574997
     3  C    1.401252  -1.978689
     4  C   -1.243894   1.290868
     5  C    1.053311  -1.911120
     6  C   -0.176514   0.279545
     7  N   -0.246064   0.026344
     8  N    0.026022  -0.103065
     9  C    1.114973  -1.001654
    10  N   -0.052098  -0.136066
    11  N   -0.266585   0.156513
    12  C    0.545087  -0.515010
    13  O   -0.357251   0.021619
    14  H    0.069417   0.080538
    15  H   -0.018563   0.140583
    16  H    0.200346  -0.030376
    17  H   -0.088274   0.260249
    18  H   -0.144204   0.311320
    19  H   -0.362359   0.529183
    20  H   -0.840408   1.080239
    21  H   -0.424560   0.634654
    22  H    0.177712   0.001094
    23  H    0.117113   0.058553
    24  H   -0.068589   0.320082
    25  H    0.139481   0.105092
    26  H   -1.023237   1.258206
    27  H    0.073449   0.281655
 Sum of Mulliken charges =  -1.00000   1.00000

 Dipole moment (field-independent basis, Debye):
    X=              0.0568    Y=             -4.7106    Z=             -5.3116  Tot=              7.0997
 Quadrupole moment (field-independent basis, Debye-Ang):
   XX=           -123.4024   YY=           -123.4664   ZZ=           -124.0660
   XY=             -1.3644   XZ=             -0.0979   YZ=            -10.6756

 Summary of Natural Population Analysis:

                                       Natural Population
                Natural  -----------------------------------------------
    Atom  No    Charge         Core      Valence    Rydberg      Total
 -----------------------------------------------------------------------
      C    1   -0.18738      0.99963     2.17990    0.00786     3.18738
      C    2   -0.19661      0.99962     2.18885    0.00815     3.19661
      C    3   -0.19186      0.99960     2.18274    0.00952     3.19186
      C    4   -0.01144      0.99954     1.99320    0.01870     3.01144
      C    5   -0.01420      0.99956     2.00112    0.01352     3.01420
      C    6   -0.19769      0.99960     2.18931    0.00878     3.19769
      N    7   -0.41743      0.99976     2.90843    0.00923     3.91743
      N    8   -0.24662      0.99962     2.73322    0.01377     3.74662
      C    9    0.12290      0.99963     1.86065    0.01681     2.87710
      N   10   -0.15986      0.99972     2.64679    0.01336     3.65986
      N   11   -0.21896      0.99968     2.70729    0.01198     3.71896
      C   12    0.38265      0.99967     1.59361    0.02406     2.61735
      O   13   -0.33799      0.99987     3.33308    0.00503     4.33799
      H   14    0.09571      0.00000     0.40353    0.00076     0.40429
      H   15    0.09178      0.00000     0.40700    0.00122     0.40822
      H   16    0.10972      0.00000     0.38884    0.00144     0.39028
      H   17    0.09530      0.00000     0.40382    0.00089     0.40470
      H   18    0.10265      0.00000     0.39622    0.00113     0.39735
      H   19    0.10410      0.00000     0.39343    0.00246     0.39590
      H   20    0.11171      0.00000     0.37714    0.01115     0.38829
      H   21    0.09611      0.00000     0.40149    0.00240     0.40389
      H   22    0.10025      0.00000     0.39880    0.00095     0.39975
      H   23    0.10765      0.00000     0.39090    0.00145     0.39235
      H   24    0.17895      0.00000     0.31874    0.00231     0.32105
      H   25    0.17080      0.00000     0.32704    0.00216     0.32920
      H   26    0.10810      0.00000     0.38736    0.00454     0.39190
      H   27    0.20165      0.00000     0.29628    0.00207     0.29835
 =======================================================================
   * Total *    0.00000     12.99551    35.80878    0.19570    49.00000

 Normal termination of Gaussian 16 at Thu Dec 10 00:04:26 2020.
