 Gaussian 16, Revision A.03,

 -----------------------------------------------------------
 # opt freq B3LYP/6-31G(d) empiricaldispersion=gd3bj scf=xqc
 -----------------------------------------------------------

 ------------------------------
 CID_84034649_JID_4069_neutraal
 ------------------------------
 Symbolic Z-matrix:
 Charge =  0 Multiplicity = 1

 SCF Done:  E(RB3LYP) =  -667.957010777     A.U. after   15 cycles
 SCF Done:  E(RB3LYP) =  -667.962163951     A.U. after   12 cycles
 SCF Done:  E(RB3LYP) =  -667.962390332     A.U. after   12 cycles
 SCF Done:  E(RB3LYP) =  -667.962819131     A.U. after   12 cycles
 SCF Done:  E(RB3LYP) =  -667.962964338     A.U. after   11 cycles
 SCF Done:  E(RB3LYP) =  -667.962973945     A.U. after   10 cycles
 SCF Done:  E(RB3LYP) =  -667.962977133     A.U. after    9 cycles
 SCF Done:  E(RB3LYP) =  -667.962978232     A.U. after    9 cycles
 SCF Done:  E(RB3LYP) =  -667.962978969     A.U. after    8 cycles
 SCF Done:  E(RB3LYP) =  -667.962979335     A.U. after    8 cycles
 SCF Done:  E(RB3LYP) =  -667.962979447     A.U. after    7 cycles
 Optimization completed.
    -- Stationary point found.
 Normal termination of Gaussian 16 at Thu Dec 10 09:16:21 2020.

 --------------------------------------------------------------------
 #N Geom=AllCheck Guess=TCheck SCRF=Check GenChk RB3LYP/6-31G(d) Freq
 --------------------------------------------------------------------

 Structure from the checkpoint file:  "JID_4069.chk"
 ------------------------------
 CID_84034649_JID_4069_neutraal
 ------------------------------
 Charge =  0 Multiplicity = 1

 SCF Done:  E(RB3LYP) =  -667.962979447     A.U. after    1 cycles

  Exact polarizability: 137.611   4.458 118.685  -3.197   7.249  94.078
 Approx polarizability: 170.009  13.163 191.356  -3.559  22.983 141.340

                      1                      2                      3
                      A                      A                      A
 Frequencies --     43.3941                51.0688                57.3219
 Red. masses --      3.0504                 4.3683                 3.8991
 Frc consts  --      0.0034                 0.0067                 0.0075
 IR Inten    --      1.2995                 1.6879                 3.8835

                      4                      5                      6
                      A                      A                      A
 Frequencies --     79.5905                98.9126               102.8623
 Red. masses --      4.9375                 2.8641                 3.0289
 Frc consts  --      0.0184                 0.0165                 0.0189
 IR Inten    --      0.3604                 0.6466                 0.9888

                      7                      8                      9
                      A                      A                      A
 Frequencies --    203.2108               210.4140               222.8018
 Red. masses --      2.9451                 2.0206                 1.2030
 Frc consts  --      0.0717                 0.0527                 0.0352
 IR Inten    --      2.2195                 1.1548                 0.3101

                     10                     11                     12
                      A                      A                      A
 Frequencies --    233.9948               243.8441               263.1203
 Red. masses --      1.1140                 1.6238                 2.8328
 Frc consts  --      0.0359                 0.0569                 0.1156
 IR Inten    --      0.4250                 2.7371                 0.6776

                     13                     14                     15
                      A                      A                      A
 Frequencies --    298.5809               343.2107               350.9099
 Red. masses --      2.8418                 2.3418                 4.1069
 Frc consts  --      0.1493                 0.1625                 0.2980
 IR Inten    --      2.9810                 2.8803                 0.9888

                     16                     17                     18
                      A                      A                      A
 Frequencies --    394.7441               423.9637               441.8051
 Red. masses --      3.9146                 2.8716                 2.8678
 Frc consts  --      0.3594                 0.3041                 0.3298
 IR Inten    --      6.9365                 9.0174                 3.4552

                     19                     20                     21
                      A                      A                      A
 Frequencies --    447.3804               502.5851               507.6521
 Red. masses --      1.9760                 2.5320                 3.7603
 Frc consts  --      0.2330                 0.3768                 0.5710
 IR Inten    --      3.3763                 6.6653                13.4117

                     22                     23                     24
                      A                      A                      A
 Frequencies --    540.8103               592.6292               619.8394
 Red. masses --      3.3335                 5.0668                 2.2878
 Frc consts  --      0.5744                 1.0485                 0.5179
 IR Inten    --      1.4477                26.2835                94.7610

                     25                     26                     27
                      A                      A                      A
 Frequencies --    696.2107               776.7792               785.3821
 Red. masses --      5.6043                 1.7841                 2.5788
 Frc consts  --      1.6005                 0.6343                 0.9372
 IR Inten    --      4.4673                56.5127                13.7732

                     28                     29                     30
                      A                      A                      A
 Frequencies --    804.0492               843.5202               870.9959
 Red. masses --     11.3642                 1.9195                 2.0839
 Frc consts  --      4.3287                 0.8047                 0.9315
 IR Inten    --      3.9798                13.1109                 9.7531

                     31                     32                     33
                      A                      A                      A
 Frequencies --    909.2061               937.3177               944.4145
 Red. masses --      1.8180                 1.7677                 1.7600
 Frc consts  --      0.8855                 0.9150                 0.9249
 IR Inten    --      9.7388                 1.3741                 5.5261

                     34                     35                     36
                      A                      A                      A
 Frequencies --    983.4596              1052.9382              1063.7775
 Red. masses --      2.2308                 1.4688                 1.7324
 Frc consts  --      1.2712                 0.9594                 1.1551
 IR Inten    --      1.8332                 9.7255                 5.4057

                     37                     38                     39
                      A                      A                      A
 Frequencies --   1075.7764              1116.4569              1126.1756
 Red. masses --      1.8484                 2.4341                 2.5377
 Frc consts  --      1.2603                 1.7876                 1.8963
 IR Inten    --     36.7312                14.9538                 6.4305

                     40                     41                     42
                      A                      A                      A
 Frequencies --   1142.1226              1151.4073              1172.1768
 Red. masses --      2.1474                 2.0837                 1.8257
 Frc consts  --      1.6504                 1.6276                 1.4779
 IR Inten    --      6.7565                 0.9499                36.0670

                     43                     44                     45
                      A                      A                      A
 Frequencies --   1181.7880              1213.4846              1246.9380
 Red. masses --      1.5893                 2.1317                 2.4468
 Frc consts  --      1.3078                 1.8495                 2.2415
 IR Inten    --     12.0282                55.7608                54.5047

                     46                     47                     48
                      A                      A                      A
 Frequencies --   1268.7558              1288.0044              1345.2286
 Red. masses --      1.9049                 1.4139                 2.2971
 Frc consts  --      1.8067                 1.3820                 2.4491
 IR Inten    --     30.7667                 6.2556               119.6989

                     49                     50                     51
                      A                      A                      A
 Frequencies --   1351.3201              1353.6991              1381.0322
 Red. masses --      1.3232                 1.8056                 1.2926
 Frc consts  --      1.4236                 1.9495                 1.4525
 IR Inten    --     14.4497                 4.3070                 3.2189

                     52                     53                     54
                      A                      A                      A
 Frequencies --   1388.6816              1415.1160              1419.1630
 Red. masses --      1.4908                 1.4341                 1.3636
 Frc consts  --      1.6939                 1.6920                 1.6181
 IR Inten    --     43.7811                10.3978                 4.3579

                     55                     56                     57
                      A                      A                      A
 Frequencies --   1436.5263              1441.5208              1471.7000
 Red. masses --      1.2633                 1.2775                 1.9806
 Frc consts  --      1.5360                 1.5641                 2.5275
 IR Inten    --      2.6486                18.1216                84.4254

                     58                     59                     60
                      A                      A                      A
 Frequencies --   1482.9637              1487.1624              1503.0964
 Red. masses --      1.1657                 1.8722                 1.1146
 Frc consts  --      1.5104                 2.4395                 1.4836
 IR Inten    --      1.5172                42.4931                 2.3692

                     61                     62                     63
                      A                      A                      A
 Frequencies --   1508.1694              1519.3956              1522.3092
 Red. masses --      1.1565                 1.0694                 1.0722
 Frc consts  --      1.5499                 1.4546                 1.4640
 IR Inten    --     30.7035                 6.0265                 2.2316

                     64                     65                     66
                      A                      A                      A
 Frequencies --   1522.5475              1528.5375              1538.2168
 Red. masses --      1.0993                 1.0827                 1.0951
 Frc consts  --      1.5014                 1.4904                 1.5266
 IR Inten    --      1.8420                 4.1510                 4.0264

                     67                     68                     69
                      A                      A                      A
 Frequencies --   1539.6239              1550.4363              1782.5235
 Red. masses --      1.0720                 1.0496                11.6874
 Frc consts  --      1.4972                 1.4866                21.8796
 IR Inten    --     16.9067                13.5368               300.7840

                     70                     71                     72
                      A                      A                      A
 Frequencies --   1823.8051              2979.1774              3012.5216
 Red. masses --      9.7762                 1.0568                 1.0834
 Frc consts  --     19.1592                 5.5262                 5.7929
 IR Inten    --    278.4864                80.0550                26.4276

                     73                     74                     75
                      A                      A                      A
 Frequencies --   3019.4287              3058.3688              3060.7552
 Red. masses --      1.0710                 1.0352                 1.0370
 Frc consts  --      5.7530                 5.7050                 5.7236
 IR Inten    --     44.4203                15.0707                13.6213

                     76                     77                     78
                      A                      A                      A
 Frequencies --   3070.3414              3074.0034              3078.7442
 Red. masses --      1.0798                 1.0773                 1.0666
 Frc consts  --      5.9976                 5.9979                 5.9569
 IR Inten    --     21.2357                42.2984                32.3926

                     79                     80                     81
                      A                      A                      A
 Frequencies --   3111.0816              3119.3767              3127.2632
 Red. masses --      1.0941                 1.1021                 1.1015
 Frc consts  --      6.2390                 6.3184                 6.3469
 IR Inten    --     20.9345                34.1692                37.1358

                     82                     83                     84
                      A                      A                      A
 Frequencies --   3129.8753              3130.3136              3138.5736
 Red. masses --      1.1023                 1.1019                 1.1034
 Frc consts  --      6.3619                 6.3617                 6.4039
 IR Inten    --      9.5616                41.8423                10.6768

                     85                     86                     87
                      A                      A                      A
 Frequencies --   3146.5611              3476.9988              3596.4262
 Red. masses --      1.1032                 1.0734                 1.0769
 Frc consts  --      6.4352                 7.6456                 8.2064
 IR Inten    --     17.6191                 0.5582                23.3718

 - Thermochemistry -
 -------------------
 Temperature   298.150 Kelvin.  Pressure   1.00000 Atm.
 Atom     1 has atomic number  6 and mass  12.00000

 Molecular mass:   199.13208 amu.
 Principal axes and moments of inertia in atomic units:
                           1         2         3
     Eigenvalues --  1475.087084455.072135108.34133
           X            0.99964  -0.02610   0.00559
           Y            0.02627   0.99908  -0.03393
           Z           -0.00470   0.03406   0.99941
 This molecule is an asymmetric top.
 Rotational symmetry number  1.
 Warning -- assumption of classical behavior for rotation
           may cause significant error
 Rotational temperatures (Kelvin)      0.05872     0.01944     0.01696
 Rotational constants (GHZ):           1.22348     0.40510     0.35329
 Zero-point vibrational energy     709196.3 (Joules/Mol)
                                  169.50199 (Kcal/Mol)
 Warning -- explicit consideration of  24 degrees of freedom as
           vibrations may cause significant error
 Vibrational temperatures:     62.43    73.48    82.47   114.51   142.31
          (Kelvin)            148.00   292.37   302.74   320.56   336.67
                              350.84   378.57   429.59   493.80   504.88
                              567.95   609.99   635.66   643.68   723.11
                              730.40   778.11   852.66   891.81  1001.69
                             1117.61  1129.99  1156.85  1213.64  1253.17
                             1308.14  1348.59  1358.80  1414.98  1514.94
                             1530.54  1547.80  1606.33  1620.32  1643.26
                             1656.62  1686.50  1700.33  1745.93  1794.07
                             1825.46  1853.15  1935.48  1944.25  1947.67
                             1987.00  1998.00  2036.04  2041.86  2066.84
                             2074.03  2117.45  2133.65  2139.69  2162.62
                             2169.92  2186.07  2190.26  2190.61  2199.22
                             2213.15  2215.18  2230.73  2564.65  2624.05
                             4286.37  4334.35  4344.28  4400.31  4403.74
                             4417.54  4422.81  4429.63  4476.15  4488.09
                             4499.43  4503.19  4503.82  4515.71  4527.20
                             5002.63  5174.46

 Zero-point correction=                           0.270119 (Hartree/Particle)
 Thermal correction to Energy=                    0.285094
 Thermal correction to Enthalpy=                  0.286038
 Thermal correction to Gibbs Free Energy=         0.227630
 Sum of electronic and zero-point Energies=           -667.692861
 Sum of electronic and thermal Energies=              -667.677886
 Sum of electronic and thermal Enthalpies=            -667.676942
 Sum of electronic and thermal Free Energies=         -667.735350

                     E (Thermal)             CV                S
                      KCal/Mol        Cal/Mol-Kelvin    Cal/Mol-Kelvin
 Total                  178.899             55.395            122.931
 Electronic               0.000              0.000              0.000
 Translational            0.889              2.981             41.771
 Rotational               0.889              2.981             31.885
 Vibrational            177.121             49.434             49.275
 Vibration     1          0.595              1.980              5.098
 Vibration     2          0.595              1.977              4.776
 Vibration     3          0.596              1.975              4.547
 Vibration     4          0.600              1.963              3.901
 Vibration     5          0.604              1.950              3.476
 Vibration     6          0.605              1.947              3.399
 Vibration     7          0.639              1.835              2.104
 Vibration     8          0.643              1.825              2.040
 Vibration     9          0.648              1.806              1.936
 Vibration    10          0.654              1.789              1.848
 Vibration    11          0.659              1.773              1.775
 Vibration    12          0.670              1.740              1.641
 Vibration    13          0.692              1.676              1.425
 Vibration    14          0.722              1.589              1.197
 Vibration    15          0.728              1.573              1.162
 Vibration    16          0.762              1.481              0.982
 Vibration    17          0.786              1.418              0.879
 Vibration    18          0.802              1.379              0.821
 Vibration    19          0.807              1.367              0.804
 Vibration    20          0.858              1.244              0.652
 Vibration    21          0.863              1.233              0.639
 Vibration    22          0.896              1.160              0.564
 Vibration    23          0.950              1.047              0.463
 Vibration    24          0.980              0.990              0.417

                           ! Non-Optimized Parameters !
 Normal termination of Gaussian 16 at Thu Dec 10 09:25:21 2020.

 ----------------------------------------------------------------------
 # B3LYP/6-311++G(d,p) empiricaldispersion=gd3bj scf=xqc pop=npa geom=c
 heck
 ----------------------------------------------------------------------

 --------------------------------------
 CID_84034649_JID_4069_Energie_neutraal
 --------------------------------------
 Structure from the checkpoint file:  "JID_4069.chk"
 Charge =  0 Multiplicity = 1

 SCF Done:  E(RB3LYP) =  -668.161972484     A.U. after   15 cycles
 Normal termination of Gaussian 16 at Thu Dec 10 09:28:53 2020.

 ----------------------------------------------------------------------
 # B3LYP/6-311++G(d,p) empiricaldispersion=gd3bj scf=xqc pop=npa geom=c
 heck
 ----------------------------------------------------------------------

 ------------------------------------
 CID_84034649_JID_4069_Energie_kation
 ------------------------------------
 Structure from the checkpoint file:  "JID_4069.chk"
 Charge =  1 Multiplicity = 2

 SCF Done:  E(UB3LYP) =  -667.855680600     A.U. after   29 cycles
 Normal termination of Gaussian 16 at Thu Dec 10 09:38:47 2020.
 Gaussian 16:  ES64L-G16RevA.03 25-Dec-2016

 ----------------------------------------------------------------------
 # B3LYP/6-311++G(d,p) empiricaldispersion=gd3bj scf=xqc pop=npa geom=c
 heck
 ----------------------------------------------------------------------

 -----------------------------------
 CID_84034649_JID_4069_Energie_anion
 -----------------------------------
 Structure from the checkpoint file:  "JID_4069.chk"
 Charge = -1 Multiplicity = 2

                         Standard orientation:
 ---------------------------------------------------------------------
 Center     Atomic      Atomic             Coordinates (Angstroms)
 Number     Number       Type             X           Y           Z
 ---------------------------------------------------------------------
      1          6           0       -1.419473    2.286918   -1.052532
      2          6           0       -0.806627    1.494375    0.108169
      3          6           0       -1.785212    1.262070    1.257547
      4          7           0       -2.808885    0.323689    0.830691
      5          6           0       -2.529100   -0.800821    0.102269
      6          8           0       -3.353573   -1.659446   -0.146943
      7          6           0       -1.072425   -0.927528   -0.409424
      8          8           0       -0.679794   -1.998847   -0.842616
      9          7           0       -0.285861    0.194455   -0.331721
     10          6           0        1.066339    0.149569   -0.880614
     11          6           0        2.162755    0.016106    0.190786
     12          6           0        1.965471   -1.231593    1.062075
     13          7           0        3.445366    0.085884   -0.514627
     14          6           0        4.608976    0.279749    0.342939
     15          1           0       -1.695117    3.296442   -0.727552
     16          1           0       -2.315055    1.786523   -1.431596
     17          1           0       -0.702934    2.378383   -1.874207
     18          1           0        0.045118    2.051882    0.513146
     19          1           0       -1.237996    0.889282    2.135996
     20          1           0       -2.265041    2.205333    1.533427
     21          1           0       -3.729476    0.346228    1.251776
     22          1           0        1.110716   -0.704287   -1.561061
     23          1           0        1.251868    1.060585   -1.458530
     24          1           0        2.122165    0.905752    0.837540
     25          1           0        1.946859   -2.135073    0.442797
     26          1           0        2.767719   -1.326790    1.800840
     27          1           0        1.015783   -1.188443    1.604740
     28          1           0        3.564925   -0.767992   -1.058834
     29          1           0        4.762452   -0.496776    1.112038
     30          1           0        5.508752    0.320474   -0.279344
     31          1           0        4.517631    1.243559    0.857616
 ---------------------------------------------------------------------

 SCF Done:  E(UB3LYP) =  -668.159829478     A.U. after   33 cycles
 SCF Done:  E(UB3LYP) =  -668.159829478     a.u. after    1 cycles

 The electronic state is 2-A.
 Alpha  occ. eigenvalues --  -18.97411 -18.97353 -14.23608 -14.23038 -14.21075
 Alpha  occ. eigenvalues --  -10.15494 -10.15473 -10.11931 -10.10900 -10.10499
 Alpha  occ. eigenvalues --  -10.10131 -10.10013 -10.06534 -10.05940  -0.94201
 Alpha  occ. eigenvalues --   -0.91275  -0.85103  -0.82093  -0.80584  -0.68746
 Alpha  occ. eigenvalues --   -0.66394  -0.60583  -0.59925  -0.58052  -0.53117
 Alpha  occ. eigenvalues --   -0.52988  -0.48966  -0.42708  -0.41663  -0.41053
 Alpha  occ. eigenvalues --   -0.39548  -0.37626  -0.36603  -0.35679  -0.34486
 Alpha  occ. eigenvalues --   -0.32917  -0.32821  -0.31609  -0.30828  -0.30478
 Alpha  occ. eigenvalues --   -0.30005  -0.29770  -0.28347  -0.27874  -0.27192
 Alpha  occ. eigenvalues --   -0.25701  -0.25408  -0.24804  -0.24013  -0.16532
 Alpha  occ. eigenvalues --   -0.15543  -0.14470  -0.13799  -0.13448   0.03949
 Alpha virt. eigenvalues --    0.05955   0.06511   0.07864   0.08058   0.08691
 Alpha virt. eigenvalues --    0.09097   0.09814   0.10720   0.11685   0.11811
 Alpha virt. eigenvalues --    0.12237   0.12763   0.13022   0.13639   0.14438

  Beta  occ. eigenvalues --  -18.97279 -18.97238 -14.23571 -14.23026 -14.21074
  Beta  occ. eigenvalues --  -10.15409 -10.15383 -10.11920 -10.10852 -10.10483
  Beta  occ. eigenvalues --  -10.10113 -10.10012 -10.06502 -10.05931  -0.93990
  Beta  occ. eigenvalues --   -0.91071  -0.85000  -0.82064  -0.80500  -0.68703
  Beta  occ. eigenvalues --   -0.66322  -0.60498  -0.59826  -0.57991  -0.53001
  Beta  occ. eigenvalues --   -0.52846  -0.48905  -0.42642  -0.41521  -0.40946
  Beta  occ. eigenvalues --   -0.39489  -0.37563  -0.36527  -0.35573  -0.34421
  Beta  occ. eigenvalues --   -0.32826  -0.32762  -0.31483  -0.30589  -0.30294
  Beta  occ. eigenvalues --   -0.29855  -0.29660  -0.28222  -0.27817  -0.27162
  Beta  occ. eigenvalues --   -0.25649  -0.25349  -0.24541  -0.23771  -0.16413
  Beta  occ. eigenvalues --   -0.15198  -0.14325  -0.13592  -0.13279
  Beta virt. eigenvalues --    0.06129   0.07170   0.07712   0.08197   0.08598
  Beta virt. eigenvalues --    0.08909   0.09458   0.10476   0.11100   0.11830
  Beta virt. eigenvalues --    0.11999   0.12521   0.12848   0.13286   0.13777

 Mulliken charges and spin densities:
               1          2
     1  C    0.981932  -1.582716
     2  C   -0.988572   1.030112
     3  C    0.994711  -1.415994
     4  N   -0.403281   0.156814
     5  C   -0.087691   0.203287
     6  O   -0.380470   0.056270
     7  C    0.198316  -0.189228
     8  O   -0.304766   0.035673
     9  N    0.339821  -0.093703
    10  C    0.029267  -0.337779
    11  C   -0.715342   0.284340
    12  C   -0.009994  -0.461444
    13  N    0.001177   0.044448
    14  C    0.262233  -0.582249
    15  H   -0.237773   0.389864
    16  H    0.096609   0.081652
    17  H   -0.013581   0.142832
    18  H   -0.584978   0.799702
    19  H   -0.250759   0.432065
    20  H   -0.861833   1.043617
    21  H    0.139505   0.188107
    22  H    0.177383   0.020359
    23  H    0.230003  -0.024172
    24  H    0.044142   0.096783
    25  H    0.162832   0.006083
    26  H   -0.007535   0.123744
    27  H    0.200328  -0.032184
    28  H    0.208791  -0.011599
    29  H    0.012420   0.102247
    30  H    0.028402   0.090019
    31  H   -0.261297   0.403051
 Sum of Mulliken charges =  -1.00000   1.00000

 Dipole moment (field-independent basis, Debye):
    X=              4.3731    Y=             -1.8083    Z=             -2.1385  Tot=              5.1930
 Quadrupole moment (field-independent basis, Debye-Ang):
   XX=           -141.5585   YY=           -141.0725   ZZ=           -112.7622
   XY=             -9.2406   XZ=             -4.1733   YZ=            -11.2540

 Summary of Natural Population Analysis:

                                       Natural Population
                Natural  -----------------------------------------------
    Atom  No    Charge         Core      Valence    Rydberg      Total
 -----------------------------------------------------------------------
      C    1   -0.29041      0.99963     2.28509    0.00569     3.29041
      C    2   -0.00855      0.99959     1.99495    0.01401     3.00855
      C    3   -0.08531      0.99959     2.07381    0.01190     3.08531
      N    4   -0.32147      0.99968     2.81144    0.01035     3.82147
      C    5    0.31540      0.99966     1.66064    0.02430     2.68460
      O    6   -0.29272      0.99988     3.28694    0.00590     4.29272
      C    7    0.31414      0.99961     1.66243    0.02382     2.68586
      O    8   -0.30048      0.99988     3.29531    0.00529     4.30048
      N    9   -0.25587      0.99964     2.74440    0.01183     3.75587
      C   10   -0.08775      0.99958     2.07507    0.01310     3.08775
      C   11   -0.01470      0.99960     2.00304    0.01207     3.01470
      C   12   -0.29842      0.99965     2.29236    0.00642     3.29842
      N   13   -0.33932      0.99974     2.82851    0.01107     3.83932
      C   14   -0.17911      0.99966     2.17114    0.00831     3.17911
      H   15    0.10441      0.00000     0.39432    0.00127     0.39559
      H   16    0.10291      0.00000     0.39581    0.00128     0.39709
      H   17    0.09925      0.00000     0.39988    0.00087     0.40075
      H   18    0.10570      0.00000     0.39127    0.00303     0.39430
      H   19    0.09509      0.00000     0.40245    0.00246     0.40491
      H   20    0.10580      0.00000     0.39033    0.00387     0.39420
      H   21    0.19421      0.00000     0.30338    0.00241     0.30579
      H   22    0.10898      0.00000     0.38977    0.00124     0.39102
      H   23    0.09960      0.00000     0.39896    0.00144     0.40040
      H   24    0.09075      0.00000     0.40653    0.00272     0.40925
      H   25    0.10154      0.00000     0.39765    0.00081     0.39846
      H   26    0.09627      0.00000     0.40296    0.00076     0.40373
      H   27    0.10757      0.00000     0.39147    0.00096     0.39243
      H   28    0.16753      0.00000     0.33004    0.00242     0.33247
      H   29    0.07882      0.00000     0.41988    0.00130     0.42118
      H   30    0.09138      0.00000     0.40792    0.00070     0.40862
      H   31    0.09474      0.00000     0.40407    0.00119     0.40526
 =======================================================================
   * Total *    0.00000     13.99539    39.81182    0.19279    54.00000

 Normal termination of Gaussian 16 at Thu Dec 10 09:50:12 2020.
