 Gaussian 16, Revision A.03,

 -----------------------------------------------------------
 # opt freq B3LYP/6-31G(d) empiricaldispersion=gd3bj scf=xqc
 -----------------------------------------------------------

 ------------------------------
 CID_91400410_JID_3482_neutraal
 ------------------------------
 Symbolic Z-matrix:
 Charge =  0 Multiplicity = 1

 SCF Done:  E(RB3LYP) =  -897.250370929     A.U. after   15 cycles
 SCF Done:  E(RB3LYP) =  -897.252792427     A.U. after   14 cycles
 SCF Done:  E(RB3LYP) =  -897.237496898     A.U. after   15 cycles
 SCF Done:  E(RB3LYP) =  -897.253244106     A.U. after   13 cycles
 SCF Done:  E(RB3LYP) =  -897.254032871     A.U. after   15 cycles
 SCF Done:  E(RB3LYP) =  -897.255454097     A.U. after   14 cycles
 SCF Done:  E(RB3LYP) =  -897.255762064     A.U. after   12 cycles
 SCF Done:  E(RB3LYP) =  -897.255890224     A.U. after   11 cycles
 SCF Done:  E(RB3LYP) =  -897.255982148     A.U. after   11 cycles
 SCF Done:  E(RB3LYP) =  -897.256286615     A.U. after   14 cycles
 SCF Done:  E(RB3LYP) =  -897.258193568     A.U. after    9 cycles
 SCF Done:  E(RB3LYP) =  -897.258193693     A.U. after    7 cycles
 SCF Done:  E(RB3LYP) =  -897.258193919     A.U. after    9 cycles
 SCF Done:  E(RB3LYP) =  -897.258193747     A.U. after    9 cycles
 SCF Done:  E(RB3LYP) =  -897.258193731     A.U. after    6 cycles
 Optimization completed.
    -- Stationary point found.
 Normal termination of Gaussian 16 at Wed Dec  9 23:41:31 2020.

 --------------------------------------------------------------------
 #N Geom=AllCheck Guess=TCheck SCRF=Check GenChk RB3LYP/6-31G(d) Freq
 --------------------------------------------------------------------

 Structure from the checkpoint file:  "JID_3482.chk"
 ------------------------------
 CID_91400410_JID_3482_neutraal
 ------------------------------
 Charge =  0 Multiplicity = 1

 SCF Done:  E(RB3LYP) =  -897.258193731     A.U. after    1 cycles

  Exact polarizability: 167.988   5.945 102.408   5.034 -23.658 117.651
 Approx polarizability: 279.474  15.274 157.573   7.729 -54.880 198.351

                      1                      2                      3
                      A                      A                      A
 Frequencies --     10.8179                27.3023                41.4976
 Red. masses --      3.3435                 4.1769                 2.3292
 Frc consts  --      0.0002                 0.0018                 0.0024
 IR Inten    --      0.0405                 0.0288                 0.0137

                      4                      5                      6
                      A                      A                      A
 Frequencies --     70.1537                75.6358                84.1780
 Red. masses --      1.1392                 1.1249                 2.1241
 Frc consts  --      0.0033                 0.0038                 0.0089
 IR Inten    --      0.6505                 0.0149                 0.0887

                      7                      8                      9
                      A                      A                      A
 Frequencies --     92.4838               102.0016               113.4025
 Red. masses --      1.1129                 2.4085                 3.4265
 Frc consts  --      0.0056                 0.0148                 0.0260
 IR Inten    --      0.4340                 0.0686                 0.1069

                     10                     11                     12
                      A                      A                      A
 Frequencies --    165.2349               230.4871               239.4581
 Red. masses --      3.7507                 5.3889                 3.5825
 Frc consts  --      0.0603                 0.1687                 0.1210
 IR Inten    --      3.1450                 0.5273                 1.7712

                     13                     14                     15
                      A                      A                      A
 Frequencies --    289.3259               324.9074               328.1318
 Red. masses --      2.6346                 1.0111                 6.1784
 Frc consts  --      0.1299                 0.0629                 0.3919
 IR Inten    --      2.5846                 0.0228                 1.5426

                     16                     17                     18
                      A                      A                      A
 Frequencies --    424.8963               465.8546               517.9085
 Red. masses --      7.2010                 4.8995                 4.6034
 Frc consts  --      0.7660                 0.6265                 0.7275
 IR Inten    --      1.9683                 0.0835                 6.2068

                     19                     20                     21
                      A                      A                      A
 Frequencies --    553.1044               579.8641               586.9110
 Red. masses --      5.6829                 3.7220                 4.5518
 Frc consts  --      1.0243                 0.7374                 0.9238
 IR Inten    --      0.2595                 0.3105                 4.0924

                     22                     23                     24
                      A                      A                      A
 Frequencies --    645.8209               677.6966               713.2842
 Red. masses --      3.1379                 7.4816                 7.3367
 Frc consts  --      0.7711                 2.0245                 2.1993
 IR Inten    --      9.2117                 2.2198                13.2272

                     25                     26                     27
                      A                      A                      A
 Frequencies --    733.2070               812.0676               832.4523
 Red. masses --      1.5956                 3.4126                 3.7217
 Frc consts  --      0.5054                 1.3259                 1.5195
 IR Inten    --     16.0492                28.8617                 8.5059

                     28                     29                     30
                      A                      A                      A
 Frequencies --    835.7598               836.6314               914.0287
 Red. masses --      1.0752                 1.1069                 1.3070
 Frc consts  --      0.4425                 0.4565                 0.6434
 IR Inten    --      5.4173                 5.2994                 1.2784

                     31                     32                     33
                      A                      A                      A
 Frequencies --    962.0038               998.3824              1012.3184
 Red. masses --      2.3171                 3.4892                 3.2640
 Frc consts  --      1.2634                 2.0491                 1.9707
 IR Inten    --      3.4254                 7.3738                 0.0220

                     34                     35                     36
                      A                      A                      A
 Frequencies --   1059.7650              1065.5016              1079.1612
 Red. masses --      1.7874                 1.5839                 2.0838
 Frc consts  --      1.1827                 1.0594                 1.4298
 IR Inten    --      0.9589                 8.3087                 1.0173

                     37                     38                     39
                      A                      A                      A
 Frequencies --   1081.0606              1104.1278              1118.1849
 Red. masses --      1.7078                 3.6562                 1.3902
 Frc consts  --      1.1759                 2.6262                 1.0241
 IR Inten    --      2.2706                20.7660                11.5873

                     40                     41                     42
                      A                      A                      A
 Frequencies --   1236.7809              1237.6636              1285.7710
 Red. masses --      1.4626                 1.4594                 3.8489
 Frc consts  --      1.3182                 1.3171                 3.7490
 IR Inten    --      0.6137                 0.4361                 6.9326

                     43                     44                     45
                      A                      A                      A
 Frequencies --   1308.6944              1380.0121              1392.1805
 Red. masses --      2.1199                 3.8739                 2.9646
 Frc consts  --      2.1391                 4.3468                 3.3854
 IR Inten    --      4.1615                75.6741                 2.0225

                     46                     47                     48
                      A                      A                      A
 Frequencies --   1428.8503              1434.3532              1440.0930
 Red. masses --      1.3894                 1.2048                 1.8735
 Frc consts  --      1.6712                 1.4604                 2.2892
 IR Inten    --     11.8352                 2.9772                 1.1674

                     49                     50                     51
                      A                      A                      A
 Frequencies --   1456.5197              1467.4309              1504.8442
 Red. masses --      1.2552                 2.9122                 1.1554
 Frc consts  --      1.5689                 3.6947                 1.5415
 IR Inten    --      0.3320                27.1323                33.4427

                     52                     53                     54
                      A                      A                      A
 Frequencies --   1508.1713              1510.8227              1513.8650
 Red. masses --      1.0592                 1.0494                 1.2595
 Frc consts  --      1.4194                 1.4113                 1.7007
 IR Inten    --     10.2903                 6.8774                20.8064

                     55                     56                     57
                      A                      A                      A
 Frequencies --   1532.5194              1534.6007              1539.3845
 Red. masses --      1.0279                 1.0306                 1.0851
 Frc consts  --      1.4224                 1.4300                 1.5150
 IR Inten    --      0.7302                 6.0869                 4.9499

                     58                     59                     60
                      A                      A                      A
 Frequencies --   1540.8202              1545.3575              1593.5689
 Red. masses --      1.0574                 5.9291                 7.0295
 Frc consts  --      1.4792                 8.3425                10.5176
 IR Inten    --     20.1822                35.6794               105.8608

                     61                     62                     63
                      A                      A                      A
 Frequencies --   1604.0710              3048.7819              3049.3379
 Red. masses --      6.5742                 1.0393                 1.0365
 Frc consts  --      9.9664                 5.6919                 5.6787
 IR Inten    --    130.1695                 6.4414                22.3405

                     64                     65                     66
                      A                      A                      A
 Frequencies --   3054.0644              3060.8662              3101.6180
 Red. masses --      1.0362                 1.0391                 1.1018
 Frc consts  --      5.6945                 5.7356                 6.2449
 IR Inten    --     23.4118                12.5274                 9.3369

                     67                     68                     69
                      A                      A                      A
 Frequencies --   3102.1097              3106.0233              3118.5245
 Red. masses --      1.1001                 1.1001                 1.0986
 Frc consts  --      6.2373                 6.2529                 6.2947
 IR Inten    --     11.0066                 1.5040                12.8023

                     70                     71                     72
                      A                      A                      A
 Frequencies --   3129.6839              3131.4152              3166.6772
 Red. masses --      1.1020                 1.1027                 1.0999
 Frc consts  --      6.3594                 6.3705                 6.4982
 IR Inten    --     77.5846                39.3559                 6.0462

                     73                     74                     75
                      A                      A                      A
 Frequencies --   3169.0985              3244.5105              3269.3171
 Red. masses --      1.1023                 1.0898                 1.0996
 Frc consts  --      6.5224                 6.7593                 6.9246
 IR Inten    --      9.2150                 0.9015                 0.6806

 - Thermochemistry -
 -------------------
 Temperature   298.150 Kelvin.  Pressure   1.00000 Atm.
 Atom     1 has atomic number  6 and mass  12.00000

 Molecular mass:   194.08777 amu.
 Principal axes and moments of inertia in atomic units:
                           1         2         3
     Eigenvalues --  2224.935903139.211113423.63823
           X            1.00000   0.00049  -0.00091
           Y           -0.00045   0.99894   0.04607
           Z            0.00093  -0.04607   0.99894
 This molecule is an asymmetric top.
 Rotational symmetry number  1.
 Warning -- assumption of classical behavior for rotation
           may cause significant error
 Rotational temperatures (Kelvin)      0.03893     0.02759     0.02530
 Rotational constants (GHZ):           0.81114     0.57490     0.52714
 Zero-point vibrational energy     583499.0 (Joules/Mol)
                                  139.45961 (Kcal/Mol)
 Warning -- explicit consideration of  21 degrees of freedom as
           vibrations may cause significant error
 Vibrational temperatures:     15.56    39.28    59.71   100.94   108.82
          (Kelvin)            121.11   133.06   146.76   163.16   237.74
                              331.62   344.53   416.28   467.47   472.11
                              611.33   670.26   745.15   795.79   834.30
                              844.43   929.19   975.05  1026.26  1054.92
                             1168.38  1197.71  1202.47  1203.73  1315.08
                             1384.11  1436.45  1456.50  1524.77  1533.02
                             1552.67  1555.41  1588.59  1608.82  1779.45
                             1780.72  1849.94  1882.92  1985.53  2003.04
                             2055.80  2063.71  2071.97  2095.61  2111.31
                             2165.14  2169.92  2173.74  2178.11  2204.95
                             2207.95  2214.83  2216.90  2223.42  2292.79
                             2307.90  4386.52  4387.32  4394.12  4403.90
                             4462.54  4463.24  4468.87  4486.86  4502.92
                             4505.41  4556.14  4559.63  4668.13  4703.82

 Zero-point correction=                           0.222243 (Hartree/Particle)
 Thermal correction to Energy=                    0.237596
 Thermal correction to Enthalpy=                  0.238540
 Thermal correction to Gibbs Free Energy=         0.176015
 Sum of electronic and zero-point Energies=           -897.035951
 Sum of electronic and thermal Energies=              -897.020597
 Sum of electronic and thermal Enthalpies=            -897.019653
 Sum of electronic and thermal Free Energies=         -897.082179

                     E (Thermal)             CV                S
                      KCal/Mol        Cal/Mol-Kelvin    Cal/Mol-Kelvin
 Total                  149.094             52.531            131.596
 Electronic               0.000              0.000              0.000
 Translational            0.889              2.981             41.695
 Rotational               0.889              2.981             31.548
 Vibrational            147.316             46.569             58.354
 Vibration     1          0.593              1.987              7.855
 Vibration     2          0.593              1.984              6.016
 Vibration     3          0.594              1.981              5.186
 Vibration     4          0.598              1.968              4.149
 Vibration     5          0.599              1.965              4.001
 Vibration     6          0.601              1.960              3.791
 Vibration     7          0.602              1.955              3.607
 Vibration     8          0.604              1.948              3.416
 Vibration     9          0.607              1.938              3.210
 Vibration    10          0.624              1.885              2.489
 Vibration    11          0.652              1.794              1.875
 Vibration    12          0.657              1.780              1.807
 Vibration    13          0.686              1.694              1.478
 Vibration    14          0.709              1.626              1.285
 Vibration    15          0.711              1.619              1.269
 Vibration    16          0.787              1.416              0.875
 Vibration    17          0.823              1.326              0.749
 Vibration    18          0.873              1.210              0.615
 Vibration    19          0.908              1.133              0.538
 Vibration    20          0.937              1.075              0.486
 Vibration    21          0.944              1.060              0.473

 Optimization completed.
    -- Stationary point found.
 Normal termination of Gaussian 16 at Wed Dec  9 23:48:30 2020.

 ----------------------------------------------------------------------
 # B3LYP/6-311++G(d,p) empiricaldispersion=gd3bj scf=xqc pop=npa geom=c
 heck
 ----------------------------------------------------------------------

 --------------------------------------
 CID_91400410_JID_3482_Energie_neutraal
 --------------------------------------
 Structure from the checkpoint file:  "JID_3482.chk"
 Charge =  0 Multiplicity = 1

 SCF Done:  E(RB3LYP) =  -897.416057660     A.U. after   16 cycles
 Normal termination of Gaussian 16 at Wed Dec  9 23:51:21 2020.

 ----------------------------------------------------------------------
 # B3LYP/6-311++G(d,p) empiricaldispersion=gd3bj scf=xqc pop=npa geom=c
 heck
 ----------------------------------------------------------------------

 ------------------------------------
 CID_91400410_JID_3482_Energie_kation
 ------------------------------------
 Structure from the checkpoint file:  "JID_3482.chk"
 Charge =  1 Multiplicity = 2

 SCF Done:  E(UB3LYP) =  -897.098166694     A.U. after   33 cycles
 SCF Done:  E(UB3LYP) =  -897.098166694     a.u. after    1 cycles
 Normal termination of Gaussian 16 at Wed Dec  9 23:59:15 2020.
 Gaussian 16:  ES64L-G16RevA.03 25-Dec-2016

 ----------------------------------------------------------------------
 # B3LYP/6-311++G(d,p) empiricaldispersion=gd3bj scf=xqc pop=npa geom=c
 heck
 ----------------------------------------------------------------------

 -----------------------------------
 CID_91400410_JID_3482_Energie_anion
 -----------------------------------
 Structure from the checkpoint file:  "JID_3482.chk"
 Charge = -1 Multiplicity = 2

                         Standard orientation:
 ---------------------------------------------------------------------
 Center     Atomic      Atomic             Coordinates (Angstroms)
 Number     Number       Type             X           Y           Z
 ---------------------------------------------------------------------
      1          6           0        1.268128   -2.207959   -1.477285
      2          6           0       -0.079087   -2.899874   -1.261757
      3          6           0        0.042117   -1.034816    2.551659
      4          6           0        0.334995   -0.145703    1.378395
      5          6           0       -0.670966    0.319363    0.522095
      6          6           0       -0.297000    1.120785   -0.577910
      7          7           0        0.988363    1.450862   -0.811095
      8          6           0        1.874901    0.970147    0.060445
      9          7           0        1.602229    0.191876    1.136177
     10          6           0        3.325179    1.291907   -0.168224
     11          6           0       -1.429693    1.504403   -1.378212
     12          6           0       -2.594868    1.005276   -0.888194
     13         16           0       -2.398224    0.045717    0.566202
     14          1           0        1.804783   -2.078246   -0.531549
     15          1           0        1.137728   -1.213871   -1.917738
     16          1           0        1.910230   -2.788883   -2.149333
     17          1           0        0.047890   -3.892410   -0.813689
     18          1           0       -0.724881   -2.314310   -0.598668
     19          1           0       -0.616243   -3.031401   -2.208157
     20          1           0       -0.714811   -0.587029    3.206772
     21          1           0        0.957354   -1.207385    3.120342
     22          1           0       -0.352456   -2.000195    2.210142
     23          1           0        3.430210    2.001627   -0.990437
     24          1           0        3.773151    1.706077    0.740833
     25          1           0        3.878140    0.376782   -0.411008
     26          1           0       -1.346165    2.118643   -2.266117
     27          1           0       -3.589717    1.138772   -1.292279
 ---------------------------------------------------------------------

 SCF Done:  E(UB3LYP) =  -897.419752344     A.U. after   28 cycles

 The electronic state is 2-A.
 Alpha  occ. eigenvalues --  -88.72167 -14.13493 -14.12976 -10.07966 -10.04791
 Alpha  occ. eigenvalues --  -10.04328 -10.04047 -10.04014 -10.03429 -10.03360
 Alpha  occ. eigenvalues --  -10.03305 -10.03148 -10.01515  -7.80797  -5.77102
 Alpha  occ. eigenvalues --   -5.76759  -5.76357  -0.81653  -0.72734  -0.71243
 Alpha  occ. eigenvalues --   -0.63244  -0.62962  -0.59350  -0.57418  -0.54898
 Alpha  occ. eigenvalues --   -0.49609  -0.46697  -0.44385  -0.40676  -0.38196
 Alpha  occ. eigenvalues --   -0.32138  -0.31678  -0.31560  -0.30100  -0.29674
 Alpha  occ. eigenvalues --   -0.28678  -0.28539  -0.26619  -0.25162  -0.25013
 Alpha  occ. eigenvalues --   -0.24696  -0.23498  -0.22654  -0.22532  -0.22431
 Alpha  occ. eigenvalues --   -0.20807  -0.19710  -0.15766  -0.13704  -0.10146
 Alpha  occ. eigenvalues --   -0.08949  -0.08756   0.05613
 Alpha virt. eigenvalues --    0.08544   0.09602   0.09815   0.09962   0.11478
 Alpha virt. eigenvalues --    0.11766   0.12158   0.12534   0.12858   0.13784
 Alpha virt. eigenvalues --    0.14310   0.14721   0.15038   0.15329   0.15865

  Beta  occ. eigenvalues --  -88.72146 -14.13181 -14.12624 -10.08048 -10.04443
  Beta  occ. eigenvalues --  -10.04390 -10.04012 -10.03792 -10.03429 -10.03336
  Beta  occ. eigenvalues --  -10.03145 -10.02850 -10.01530  -7.80778  -5.77098
  Beta  occ. eigenvalues --   -5.76757  -5.76278  -0.81146  -0.72100  -0.70787
  Beta  occ. eigenvalues --   -0.63237  -0.62607  -0.59112  -0.57255  -0.54514
  Beta  occ. eigenvalues --   -0.49605  -0.45953  -0.44271  -0.40240  -0.37983
  Beta  occ. eigenvalues --   -0.31963  -0.31557  -0.31436  -0.29747  -0.29502
  Beta  occ. eigenvalues --   -0.28454  -0.28402  -0.26485  -0.25010  -0.24881
  Beta  occ. eigenvalues --   -0.24047  -0.23331  -0.22599  -0.22419  -0.22339
  Beta  occ. eigenvalues --   -0.20564  -0.18535  -0.14023  -0.13279  -0.08456
  Beta  occ. eigenvalues --   -0.08366  -0.07815
  Beta virt. eigenvalues --    0.08477   0.09569   0.09785   0.09896   0.11344
  Beta virt. eigenvalues --    0.11628   0.11776   0.12373   0.12672   0.13039
  Beta virt. eigenvalues --    0.13850   0.14348   0.14820   0.15068   0.15308

 Mulliken charges and spin densities:
               1          2
     1  C   -0.169034   0.003441
     2  C   -0.532826  -0.042678
     3  C   -0.496584  -0.048531
     4  C    0.118410   0.200607
     5  C    0.332943  -0.009931
     6  C   -0.609448   0.169764
     7  N   -0.036469   0.146039
     8  C   -0.186243  -0.058179
     9  N   -0.020682   0.185500
    10  C   -0.461517   0.001827
    11  C    0.250113  -0.003986
    12  C   -0.648426   0.342398
    13  S   -0.222307   0.021478
    14  H    0.100846   0.010560
    15  H    0.140363  -0.007336
    16  H    0.108901   0.004177
    17  H    0.064654   0.033731
    18  H    0.098874   0.022326
    19  H    0.108821  -0.005756
    20  H    0.119577   0.017857
    21  H    0.139214  -0.002705
    22  H    0.117156   0.046350
    23  H    0.132893  -0.000920
    24  H    0.129813   0.000989
    25  H    0.129509  -0.000481
    26  H    0.111814  -0.000651
    27  H    0.179635  -0.025887
 Sum of Mulliken charges =  -1.00000   1.00000

 Dipole moment (field-independent basis, Debye):
    X=             -0.1844    Y=             -1.9806    Z=             -0.3066  Tot=              2.0126
 Quadrupole moment (field-independent basis, Debye-Ang):
   XX=           -110.8629   YY=           -105.7436   ZZ=           -102.6741
   XY=             -0.3651   XZ=             -1.0632   YZ=              1.8449

 Summary of Natural Population Analysis:

                                       Natural Population
                Natural  -----------------------------------------------
    Atom  No    Charge         Core      Valence    Rydberg      Total
 -----------------------------------------------------------------------
      C    1   -0.29124      0.99968     2.28708    0.00448     3.29124
      C    2   -0.28760      0.99968     2.28304    0.00488     3.28760
      C    3   -0.30140      0.99964     2.29763    0.00413     3.30140
      C    4    0.16562      0.99948     1.81873    0.01618     2.83438
      C    5   -0.15273      0.99932     2.14032    0.01309     3.15273
      C    6    0.12367      0.99944     1.86303    0.01386     2.87633
      N    7   -0.22603      0.99965     2.71438    0.01200     3.72603
      C    8    0.19104      0.99964     1.79242    0.01690     2.80896
      N    9   -0.23467      0.99964     2.72337    0.01166     3.73467
      C   10   -0.29673      0.99963     2.29216    0.00494     3.29673
      C   11   -0.14752      0.99949     2.13795    0.01008     3.14752
      C   12   -0.07645      0.99953     2.06635    0.01056     3.07645
      S   13    0.16431      4.99947     2.81456    0.02166     7.83569
      H   14    0.10379      0.00000     0.39447    0.00174     0.39621
      H   15    0.10678      0.00000     0.39223    0.00098     0.39322
      H   16    0.08293      0.00000     0.41598    0.00109     0.41707
      H   17    0.08574      0.00000     0.41294    0.00131     0.41426
      H   18    0.10695      0.00000     0.39074    0.00231     0.39305
      H   19    0.08907      0.00000     0.40988    0.00105     0.41093
      H   20    0.10095      0.00000     0.39816    0.00090     0.39905
      H   21    0.10387      0.00000     0.39524    0.00088     0.39613
      H   22    0.10213      0.00000     0.39635    0.00152     0.39787
      H   23    0.10028      0.00000     0.39889    0.00083     0.39972
      H   24    0.09829      0.00000     0.40075    0.00096     0.40171
      H   25    0.09800      0.00000     0.40102    0.00098     0.40200
      H   26    0.09987      0.00000     0.39905    0.00108     0.40013
      H   27    0.09109      0.00000     0.40803    0.00088     0.40891
 =======================================================================
   * Total *   -0.00000     16.99432    34.84475    0.16093    52.00000

 Normal termination of Gaussian 16 at Thu Dec 10 00:05:49 2020.
