 Gaussian 16, Revision A.03,

 -----------------------------------------------------------
 # opt freq B3LYP/6-31G(d) empiricaldispersion=gd3bj scf=xqc
 -----------------------------------------------------------

 ----------------------------
 CID_5324613_JID_398_neutraal
 ----------------------------
 Symbolic Z-matrix:
 Charge =  0 Multiplicity = 1

 SCF Done:  E(RB3LYP) =  -420.366298829     A.U. after   14 cycles
 SCF Done:  E(RB3LYP) =  -420.372518122     A.U. after   12 cycles
 SCF Done:  E(RB3LYP) =  -420.374872288     A.U. after   12 cycles
 SCF Done:  E(RB3LYP) =  -420.375758231     A.U. after   12 cycles
 SCF Done:  E(RB3LYP) =  -420.376132333     A.U. after   12 cycles
 SCF Done:  E(RB3LYP) =  -420.376272029     A.U. after   11 cycles
 SCF Done:  E(RB3LYP) =  -420.376297285     A.U. after   10 cycles
 SCF Done:  E(RB3LYP) =  -420.376303171     A.U. after    9 cycles
 SCF Done:  E(RB3LYP) =  -420.376303918     A.U. after    8 cycles
 SCF Done:  E(RB3LYP) =  -420.376304393     A.U. after    8 cycles
 SCF Done:  E(RB3LYP) =  -420.376318008     A.U. after   10 cycles
 SCF Done:  E(RB3LYP) =  -420.376319857     A.U. after   10 cycles
 SCF Done:  E(RB3LYP) =  -420.376320140     A.U. after    9 cycles
 SCF Done:  E(RB3LYP) =  -420.376320202     A.U. after    7 cycles
 SCF Done:  E(RB3LYP) =  -420.376320215     A.U. after    7 cycles
 Optimization completed.
    -- Stationary point found.

 1\1\GINC-NODE203\FOpt\RB3LYP\6-31G(d)\C8H10N2\VSC10255\08-Dec-2020\0\\
 # opt freq B3LYP/6-31G(d) empiricaldispersion=gd3bj scf=xqc\\CID_53246
 13_JID_398_neutraal\\0,1\C,2.510309473,0.0204168997,-0.0249494391\C,1.
 0020463672,0.0013141074,-0.0472443396\C,0.3021116444,-1.2166995249,-0.
 0833604541\C,-1.0841852514,-1.2527393837,-0.1077857946\C,-1.8289034951
 ,-0.059267293,-0.0950685093\C,-1.135159104,1.1570105601,-0.0600739685\
 C,0.2585290993,1.1843239193,-0.0362906506\C,-3.2913826786,-0.057800751
 4,-0.1140565491\N,-3.9776535732,-1.1418613073,-0.1109932461\N,-5.34259

 Normal termination of Gaussian 16 at Tue Dec  8 10:37:03 2020.

 --------------------------------------------------------------------
 #N Geom=AllCheck Guess=TCheck SCRF=Check GenChk RB3LYP/6-31G(d) Freq
 --------------------------------------------------------------------

 Structure from the checkpoint file:  "JID_398.chk"
 ----------------------------
 CID_5324613_JID_398_neutraal
 ----------------------------
 Charge =  0 Multiplicity = 1

 SCF Done:  E(RB3LYP) =  -420.376320215     A.U. after    1 cycles

  Exact polarizability: 180.157  -2.477  97.451  -0.826   0.071  40.337
 Approx polarizability: 262.068 -15.435 169.881   1.391  -0.428  60.501

                      1                      2                      3
                      A                      A                      A
 Frequencies --     21.5748                74.5342               136.6939
 Red. masses --      1.0527                 3.8743                 4.1537
 Frc consts  --      0.0003                 0.0127                 0.0457
 IR Inten    --      0.4168                 0.7404                 5.8469

                      4                      5                      6
                      A                      A                      A
 Frequencies --    141.6818               213.4374               329.0353
 Red. masses --      2.0964                 3.8022                 2.8150
 Frc consts  --      0.0248                 0.1021                 0.1796
 IR Inten    --     20.9701                 3.5582                 7.0739

                      7                      8                      9
                      A                      A                      A
 Frequencies --    352.0404               366.7260               416.8256
 Red. masses --      4.7669                 3.6672                 2.2021
 Frc consts  --      0.3481                 0.2906                 0.2254
 IR Inten    --      2.1832                 3.2320                12.8060

                     10                     11                     12
                      A                      A                      A
 Frequencies --    423.9740               452.7688               531.7211
 Red. masses --      1.7846                 2.7659                 2.5698
 Frc consts  --      0.1890                 0.3341                 0.4281
 IR Inten    --     22.4375                 4.8663                 7.5292

                     13                     14                     15
                      A                      A                      A
 Frequencies --    596.2688               658.1421               728.0929
 Red. masses --      5.0727                 6.9181                 3.0961
 Frc consts  --      1.0626                 1.7655                 0.9670
 IR Inten    --     16.7883                 1.1293                27.4199

                     16                     17                     18
                      A                      A                      A
 Frequencies --    751.5830               796.5008               831.5755
 Red. masses --      1.5890                 4.0606                 1.4074
 Frc consts  --      0.5288                 1.5178                 0.5734
 IR Inten    --    521.1394                 3.2895                21.6750

                     19                     20                     21
                      A                      A                      A
 Frequencies --    858.1466               893.6749               944.2045
 Red. masses --      1.2761                 4.1806                 1.3400
 Frc consts  --      0.5537                 1.9672                 0.7039
 IR Inten    --      2.9671                 5.4386                 5.7323

                     22                     23                     24
                      A                      A                      A
 Frequencies --    965.2564               983.5051              1018.9836
 Red. masses --      1.4602                 1.3300                 1.4179
 Frc consts  --      0.8016                 0.7580                 0.8674
 IR Inten    --     10.2635                 4.4222                 4.6181

                     25                     26                     27
                      A                      A                      A
 Frequencies --   1041.6905              1074.7800              1135.4565
 Red. masses --      2.7988                 1.5142                 2.4230
 Frc consts  --      1.7894                 1.0305                 1.8405
 IR Inten    --      1.8007                 4.8158                29.5952

                     28                     29                     30
                      A                      A                      A
 Frequencies --   1157.6076              1214.0695              1244.4295
 Red. masses --      1.6075                 1.1429                 3.1172
 Frc consts  --      1.2691                 0.9926                 2.8442
 IR Inten    --     10.0613                 2.6597                 1.9559

                     31                     32                     33
                      A                      A                      A
 Frequencies --   1267.2287              1284.8566              1352.5706
 Red. masses --      2.4709                 1.1934                 1.3363
 Frc consts  --      2.3379                 1.1608                 1.4403
 IR Inten    --     12.2603                13.1901                 2.5681

                     34                     35                     36
                      A                      A                      A
 Frequencies --   1358.1151              1442.4030              1449.4534
 Red. masses --      6.4317                 1.2512                 1.9294
 Frc consts  --      6.9895                 1.5338                 2.3883
 IR Inten    --      2.2851                 0.4497                16.9798

                     37                     38                     39
                      A                      A                      A
 Frequencies --   1465.6451              1514.6358              1524.4415
 Red. masses --      2.1004                 1.0445                 1.1103
 Frc consts  --      2.6584                 1.4118                 1.5202
 IR Inten    --      4.6694                 5.2244                 8.5979

                     40                     41                     42
                      A                      A                      A
 Frequencies --   1566.8509              1625.7729              1674.0339
 Red. masses --      2.6604                 5.5465                 5.0218
 Frc consts  --      3.8482                 8.6376                 8.2916
 IR Inten    --     14.4223                 0.1917                 0.6921

                     43                     44                     45
                      A                      A                      A
 Frequencies --   1687.0595              1711.9821              3026.6897
 Red. masses --      1.5427                 2.6334                 1.0851
 Frc consts  --      2.5870                 4.5474                 5.8568
 IR Inten    --     29.0015                14.4212                71.5825

                     46                     47                     48
                      A                      A                      A
 Frequencies --   3041.8547              3092.6362              3125.1227
 Red. masses --      1.0375                 1.1008                 1.1007
 Frc consts  --      5.6561                 6.2031                 6.3338
 IR Inten    --     38.5085                21.4371                18.4664

                     49                     50                     51
                      A                      A                      A
 Frequencies --   3171.8034              3175.8185              3190.1979
 Red. masses --      1.0867                 1.0891                 1.0941
 Frc consts  --      6.4412                 6.4719                 6.5604
 IR Inten    --     17.4075                20.0481                27.3740

                     52                     53                     54
                      A                      A                      A
 Frequencies --   3220.8392              3412.4207              3599.8881
 Red. masses --      1.0922                 1.0540                 1.0893
 Frc consts  --      6.6756                 7.2311                 8.3170
 IR Inten    --      4.1975                 8.1159                12.1061

 - Thermochemistry -
 -------------------
 Temperature   298.150 Kelvin.  Pressure   1.00000 Atm.
 Atom     1 has atomic number  6 and mass  12.00000

 Molecular mass:   134.08440 amu.
 Principal axes and moments of inertia in atomic units:
                           1         2         3
     Eigenvalues --   369.719782881.316553237.62106
           X            0.99997   0.00699  -0.00325
           Y           -0.00699   0.99997   0.00116
           Z            0.00326  -0.00114   0.99999
 This molecule is an asymmetric top.
 Rotational symmetry number  1.
 Rotational temperatures (Kelvin)      0.23427     0.03006     0.02675
 Rotational constants (GHZ):           4.88138     0.62636     0.55743
 Zero-point vibrational energy     438654.5 (Joules/Mol)
                                  104.84094 (Kcal/Mol)
 Warning -- explicit consideration of  13 degrees of freedom as
           vibrations may cause significant error
 Vibrational temperatures:     31.04   107.24   196.67   203.85   307.09
          (Kelvin)            473.41   506.51   527.64   599.72   610.00
                              651.43   765.03   857.90   946.92  1047.56
                             1081.36  1145.99  1196.45  1234.68  1285.80
                             1358.50  1388.79  1415.04  1466.09  1498.76
                             1546.37  1633.67  1665.54  1746.78  1790.46
                             1823.26  1848.62  1946.05  1954.02  2075.30
                             2085.44  2108.74  2179.22  2193.33  2254.35
                             2339.12  2408.56  2427.30  2463.16  4354.73
                             4376.55  4449.61  4496.35  4563.52  4569.29
                             4589.98  4634.07  4909.71  5179.44

 Zero-point correction=                           0.167075 (Hartree/Particle)
 Thermal correction to Energy=                    0.176713
 Thermal correction to Enthalpy=                  0.177657
 Thermal correction to Gibbs Free Energy=         0.131085
 Sum of electronic and zero-point Energies=           -420.209246
 Sum of electronic and thermal Energies=              -420.199607
 Sum of electronic and thermal Enthalpies=            -420.198663
 Sum of electronic and thermal Free Energies=         -420.245236

                     E (Thermal)             CV                S
                      KCal/Mol        Cal/Mol-Kelvin    Cal/Mol-Kelvin
 Total                  110.889             35.764             98.020
 Electronic               0.000              0.000              0.000
 Translational            0.889              2.981             40.592
 Rotational               0.889              2.981             29.624
 Vibrational            109.112             29.802             27.804
 Vibration     1          0.593              1.985              6.484
 Vibration     2          0.599              1.966              4.030
 Vibration     3          0.614              1.917              2.850
 Vibration     4          0.615              1.912              2.781
 Vibration     5          0.644              1.820              2.014
 Vibration     6          0.712              1.617              1.265
 Vibration     7          0.729              1.571              1.157
 Vibration     8          0.740              1.541              1.093
 Vibration     9          0.780              1.434              0.903
 Vibration    10          0.786              1.418              0.879
 Vibration    11          0.811              1.355              0.787
 Vibration    12          0.887              1.180              0.583
 Vibration    13          0.954              1.040              0.456

                           ! Non-Optimized Parameters !

 1\1\GINC-NODE203\Freq\RB3LYP\6-31G(d)\C8H10N2\VSC10255\08-Dec-2020\0\\
 #N Geom=AllCheck Guess=TCheck SCRF=Check GenChk RB3LYP/6-31G(d) Freq\\
 CID_5324613_JID_398_neutraal\\0,1\C,2.510309473,0.0204168997,-0.024949
 4391\C,1.0020463672,0.0013141074,-0.0472443396\C,0.3021116444,-1.21669
 95249,-0.0833604541\C,-1.0841852514,-1.2527393837,-0.1077857946\C,-1.8
 289034951,-0.059267293,-0.0950685093\C,-1.135159104,1.1570105601,-0.06
 00739685\C,0.2585290993,1.1843239193,-0.0362906506\C,-3.2913826786,-0.
 0578007514,-0.1140565491\N,-3.9776535732,-1.1418613073,-0.1109932461\N

 Normal termination of Gaussian 16 at Tue Dec  8 10:40:04 2020.

 ----------------------------------------------------------------------
 # B3LYP/6-311++G(d,p) empiricaldispersion=gd3bj scf=xqc pop=npa geom=c
 heck
 ----------------------------------------------------------------------

 ------------------------------------
 CID_5324613_JID_398_Energie_neutraal
 ------------------------------------
 Structure from the checkpoint file:  "JID_398.chk"
 Charge =  0 Multiplicity = 1

 SCF Done:  E(RB3LYP) =  -420.494841903     A.U. after   16 cycles
 Normal termination of Gaussian 16 at Tue Dec  8 10:44:35 2020.

 ----------------------------------------------------------------------
 # B3LYP/6-311++G(d,p) empiricaldispersion=gd3bj scf=xqc pop=npa geom=c
 heck
 ----------------------------------------------------------------------

 ----------------------------------
 CID_5324613_JID_398_Energie_kation
 ----------------------------------
 Structure from the checkpoint file:  "JID_398.chk"
 Charge =  1 Multiplicity = 2

 SCF Done:  E(UB3LYP) =  -420.214008086     A.U. after   22 cycles
 Normal termination of Gaussian 16 at Tue Dec  8 10:50:33 2020.
 Gaussian 16:  ES64L-G16RevA.03 25-Dec-2016

 ---------------------------------
 CID_5324613_JID_398_Energie_anion
 ---------------------------------
 Structure from the checkpoint file:  "JID_398.chk"
 Charge = -1 Multiplicity = 2

                         Standard orientation:
 ---------------------------------------------------------------------
 Center     Atomic      Atomic             Coordinates (Angstroms)
 Number     Number       Type             X           Y           Z
 ---------------------------------------------------------------------
      1          6           0       -3.800937   -0.300153   -0.011765
      2          6           0       -2.306351   -0.095470   -0.005608
      3          6           0       -1.433167   -1.196472    0.005090
      4          6           0       -0.056652   -1.026668    0.014408
      5          6           0        0.502668    0.264183    0.011559
      6          6           0       -0.364123    1.364372    0.001892
      7          6           0       -1.746645    1.184834   -0.006836
      8          6           0        1.948889    0.482453    0.015196
      9          7           0        2.788207   -0.487606   -0.011150
     10          7           0        4.123841   -0.183516    0.079642
     11          1           0       -4.119964   -0.890300   -0.879803
     12          1           0       -4.133590   -0.841296    0.882891
     13          1           0       -4.334694    0.654720   -0.041865
     14          1           0       -1.847354   -2.202418    0.007929
     15          1           0        0.608992   -1.883259    0.025376
     16          1           0        0.048866    2.370639    0.001374
     17          1           0       -2.400218    2.053731   -0.014159
     18          1           0        2.289444    1.528455    0.044208
     19          1           0        4.372566    0.746742   -0.266213
     20          1           0        4.669518   -0.901633   -0.382796
 ---------------------------------------------------------------------

 SCF Done:  E(UB3LYP) =  -420.484435245     A.U. after   33 cycles
 SCF Done:  E(UB3LYP) =  -420.484435245     a.u. after    1 cycles

 The electronic state is 2-A.
 Alpha  occ. eigenvalues --  -14.19746 -14.17782 -10.05581 -10.04398 -10.04109
 Alpha  occ. eigenvalues --  -10.04035 -10.03941 -10.03700 -10.03598 -10.03047
 Alpha  occ. eigenvalues --   -0.84604  -0.72732  -0.67456  -0.63451  -0.61255
 Alpha  occ. eigenvalues --   -0.56587  -0.48355  -0.47294  -0.43462  -0.39008
 Alpha  occ. eigenvalues --   -0.36810  -0.34667  -0.32370  -0.31716  -0.30743
 Alpha  occ. eigenvalues --   -0.28876  -0.27283  -0.26547  -0.25681  -0.22501
 Alpha  occ. eigenvalues --   -0.21651  -0.20812  -0.14157  -0.13146  -0.12558
 Alpha  occ. eigenvalues --   -0.07512   0.05504
 Alpha virt. eigenvalues --    0.07305   0.08259   0.09216   0.10133   0.10625
 Alpha virt. eigenvalues --    0.10895   0.11766   0.12535   0.13037   0.14392
 Alpha virt. eigenvalues --    0.14960   0.15443   0.16820   0.17838   0.18126

  Beta  occ. eigenvalues --  -14.19659 -14.17329 -10.05592 -10.04362 -10.04098
  Beta  occ. eigenvalues --  -10.03956 -10.03861 -10.03653 -10.03498 -10.02948
  Beta  occ. eigenvalues --   -0.84110  -0.72520  -0.67158  -0.63195  -0.61112
  Beta  occ. eigenvalues --   -0.56391  -0.48061  -0.47077  -0.43215  -0.38865
  Beta  occ. eigenvalues --   -0.36589  -0.34521  -0.32218  -0.31602  -0.30504
  Beta  occ. eigenvalues --   -0.28837  -0.27115  -0.26467  -0.24648  -0.21938
  Beta  occ. eigenvalues --   -0.21405  -0.20736  -0.13380  -0.12605  -0.12164
  Beta  occ. eigenvalues --   -0.06421
  Beta virt. eigenvalues --    0.07420   0.08996   0.09310   0.10027   0.10162
  Beta virt. eigenvalues --    0.10985   0.11149   0.11995   0.12857   0.13147
  Beta virt. eigenvalues --    0.14372   0.15240   0.15776   0.16886   0.17804

 Mulliken charges and spin densities:
               1          2
     1  C    0.644307  -1.228440
     2  C    0.068137   0.693782
     3  C   -0.684928   0.322625
     4  C    0.446304   0.063851
     5  C    3.090519  -2.083037
     6  C   -1.486200   0.160556
     7  C   -0.249845  -0.479850
     8  C   -2.375664   1.798596
     9  N    0.198626  -0.148092
    10  N   -0.401537   0.255350
    11  H    0.139384  -0.010841
    12  H   -0.039258   0.180848
    13  H    0.014438   0.117701
    14  H    0.073773   0.052597
    15  H    0.167044  -0.009717
    16  H   -0.020758   0.120298
    17  H    0.021569   0.059585
    18  H   -0.108518   0.196396
    19  H   -0.509794   0.720962
    20  H    0.012398   0.216829
 Sum of Mulliken charges =  -1.00000   1.00000

 Dipole moment (field-independent basis, Debye):
    X=             -6.6779    Y=             -0.5659    Z=             -0.0019  Tot=              6.7019
 Quadrupole moment (field-independent basis, Debye-Ang):
   XX=           -131.1784   YY=            -74.4645   ZZ=            -77.2302
   XY=             -4.5466   XZ=              6.7584   YZ=              2.3635

 Summary of Natural Population Analysis:

                                       Natural Population
                Natural  -----------------------------------------------
    Atom  No    Charge         Core      Valence    Rydberg      Total
 -----------------------------------------------------------------------
      C    1   -0.29293      0.99964     2.28815    0.00513     3.29293
      C    2    0.00485      0.99952     1.98616    0.00947     2.99515
      C    3   -0.11695      0.99953     2.10845    0.00897     3.11695
      C    4   -0.06907      0.99953     2.06093    0.00860     3.06907
      C    5   -0.02848      0.99950     2.01970    0.00928     3.02848
      C    6   -0.08827      0.99954     2.08019    0.00854     3.08827
      C    7   -0.11191      0.99953     2.10319    0.00920     3.11191
      C    8    0.00583      0.99959     1.97965    0.01493     2.99417
      N    9   -0.07424      0.99964     2.55818    0.01643     3.57424
      N   10   -0.30724      0.99976     2.79341    0.01407     3.80724
      H   11    0.09743      0.00000     0.40162    0.00095     0.40257
      H   12    0.10077      0.00000     0.39773    0.00150     0.39923
      H   13    0.09660      0.00000     0.40258    0.00081     0.40340
      H   14    0.09117      0.00000     0.40792    0.00091     0.40883
      H   15    0.10353      0.00000     0.39480    0.00168     0.39647
      H   16    0.09244      0.00000     0.40625    0.00132     0.40756
      H   17    0.09097      0.00000     0.40807    0.00096     0.40903
      H   18    0.06438      0.00000     0.43302    0.00260     0.43562
      H   19    0.16455      0.00000     0.32565    0.00980     0.33545
      H   20    0.17658      0.00000     0.32053    0.00289     0.32342
 =======================================================================
   * Total *   -0.00000      9.99578    25.87618    0.12804    36.00000

 Normal termination of Gaussian 16 at Tue Dec  8 10:57:01 2020.
