 Gaussian 16, Revision A.03,

 -----------------------------------------------------------
 # opt freq B3LYP/6-31G(d) empiricaldispersion=gd3bj scf=xqc
 -----------------------------------------------------------

 ------------------------------
 CID_63957310_JID_8029_neutraal
 ------------------------------
 Symbolic Z-matrix:
 Charge =  0 Multiplicity = 1

 SCF Done:  E(RB3LYP) =  -1203.99980059     A.U. after   14 cycles
 SCF Done:  E(RB3LYP) =  -1204.00381499     A.U. after   13 cycles
 SCF Done:  E(RB3LYP) =  -1204.00386387     A.U. after   12 cycles
 SCF Done:  E(RB3LYP) =  -1204.00499245     A.U. after   12 cycles
 SCF Done:  E(RB3LYP) =  -1204.00507993     A.U. after   12 cycles
 SCF Done:  E(RB3LYP) =  -1204.00523530     A.U. after   11 cycles
 SCF Done:  E(RB3LYP) =  -1204.00531194     A.U. after   11 cycles
 SCF Done:  E(RB3LYP) =  -1204.00539064     A.U. after   10 cycles
 SCF Done:  E(RB3LYP) =  -1204.00543235     A.U. after   11 cycles
 SCF Done:  E(RB3LYP) =  -1204.00545486     A.U. after   11 cycles
 SCF Done:  E(RB3LYP) =  -1204.00548474     A.U. after    8 cycles
 SCF Done:  E(RB3LYP) =  -1204.00548547     A.U. after    8 cycles
 SCF Done:  E(RB3LYP) =  -1204.00548578     A.U. after    8 cycles
 SCF Done:  E(RB3LYP) =  -1204.00548610     A.U. after    8 cycles
 SCF Done:  E(RB3LYP) =  -1204.00548624     A.U. after    7 cycles
 Optimization completed.
    -- Stationary point found.
 Normal termination of Gaussian 16 at Fri Dec 11 18:46:30 2020.

 --------------------------------------------------------------------
 #N Geom=AllCheck Guess=TCheck SCRF=Check GenChk RB3LYP/6-31G(d) Freq
 --------------------------------------------------------------------

 Structure from the checkpoint file:  "JID_8029.chk"
 ------------------------------
 CID_63957310_JID_8029_neutraal
 ------------------------------
 Charge =  0 Multiplicity = 1

 SCF Done:  E(RB3LYP) =  -1204.00548624     A.U. after    1 cycles

  Exact polarizability: 178.591  -4.509 153.705  -4.799  -0.359 142.525
 Approx polarizability: 220.674  -8.558 226.720  -5.501  -0.821 236.143

                      1                      2                      3
                      A                      A                      A
 Frequencies --     14.1734                24.4969                33.3134
 Red. masses --      5.3029                 6.9127                 5.5138
 Frc consts  --      0.0006                 0.0024                 0.0036
 IR Inten    --      0.4163                 1.6067                 0.2383

                      4                      5                      6
                      A                      A                      A
 Frequencies --     47.7774                58.1678                72.8978
 Red. masses --      3.9998                 6.8987                 4.4888
 Frc consts  --      0.0054                 0.0138                 0.0141
 IR Inten    --      2.0081                 2.5597                 1.4911

                      7                      8                      9
                      A                      A                      A
 Frequencies --     85.8540                93.6158               102.9276
 Red. masses --      3.1716                 3.8304                 4.0531
 Frc consts  --      0.0138                 0.0198                 0.0253
 IR Inten    --      1.7785                 0.6350                 2.6858

                     10                     11                     12
                      A                      A                      A
 Frequencies --    147.1578               169.8989               195.2934
 Red. masses --      1.6000                 2.0661                 4.1493
 Frc consts  --      0.0204                 0.0351                 0.0932
 IR Inten    --      0.0767                 1.3832                 0.5647

                     13                     14                     15
                      A                      A                      A
 Frequencies --    202.3914               236.9138               271.3135
 Red. masses --      3.6399                 3.4097                 2.8403
 Frc consts  --      0.0878                 0.1128                 0.1232
 IR Inten    --      1.2726                 1.6957                 0.2327

                     16                     17                     18
                      A                      A                      A
 Frequencies --    276.3115               295.5402               320.4671
 Red. masses --      2.2320                 1.4464                 2.6429
 Frc consts  --      0.1004                 0.0744                 0.1599
 IR Inten    --      1.6640                 0.6469                 2.5581

                     19                     20                     21
                      A                      A                      A
 Frequencies --    351.1982               360.6686               384.2496
 Red. masses --      2.3241                 2.5954                 2.7655
 Frc consts  --      0.1689                 0.1989                 0.2406
 IR Inten    --      1.2012                 1.1415                 1.1719

                     22                     23                     24
                      A                      A                      A
 Frequencies --    408.7969               424.9259               458.3988
 Red. masses --      2.0742                 1.9920                 2.8902
 Frc consts  --      0.2042                 0.2119                 0.3578
 IR Inten    --      0.9547                 6.5180                 3.4388

                     25                     26                     27
                      A                      A                      A
 Frequencies --    507.5198               528.1141               555.1774
 Red. masses --      3.3043                 2.9026                 3.9298
 Frc consts  --      0.5015                 0.4770                 0.7137
 IR Inten    --     18.3711                33.4220                 2.3719

                     28                     29                     30
                      A                      A                      A
 Frequencies --    571.5934               590.6447               597.4042
 Red. masses --      2.4735                 3.0348                 3.4163
 Frc consts  --      0.4761                 0.6238                 0.7184
 IR Inten    --     32.2993                13.5380                28.2012

                     31                     32                     33
                      A                      A                      A
 Frequencies --    684.7038               703.0713               723.7340
 Red. masses --      1.5961                 3.8250                 1.9864
 Frc consts  --      0.4409                 1.1140                 0.6130
 IR Inten    --     84.1305                12.4655                27.6389

                     34                     35                     36
                      A                      A                      A
 Frequencies --    728.2192               742.6305               764.1100
 Red. masses --      3.4821                 3.2571                 3.9387
 Frc consts  --      1.0880                 1.0583                 1.3549
 IR Inten    --      8.1791                30.0042                17.0725

                     37                     38                     39
                      A                      A                      A
 Frequencies --    793.5502               819.4040               821.7828
 Red. masses --      5.1677                 2.8256                 2.4902
 Frc consts  --      1.9173                 1.1178                 0.9908
 IR Inten    --     49.2750                 4.5749                 7.4691

                     40                     41                     42
                      A                      A                      A
 Frequencies --    855.0553               867.7758               883.6693
 Red. masses --      1.6820                 2.1746                 1.5374
 Frc consts  --      0.7246                 0.9648                 0.7073
 IR Inten    --      2.4029                 4.0367                24.2909

                     43                     44                     45
                      A                      A                      A
 Frequencies --    929.3316               939.8794               956.3847
 Red. masses --      2.2159                 2.1794                 2.0578
 Frc consts  --      1.1275                 1.1343                 1.1090
 IR Inten    --      6.5909                 4.0966                11.0237

                     46                     47                     48
                      A                      A                      A
 Frequencies --    966.2108               992.3862               996.5236
 Red. masses --      2.1561                 1.1832                 2.0356
 Frc consts  --      1.1859                 0.6865                 1.1910
 IR Inten    --     16.0088                 2.9711                11.1023

                     49                     50                     51
                      A                      A                      A
 Frequencies --   1002.5712              1035.8505              1044.5473
 Red. masses --      1.3482                 2.0755                 1.6252
 Frc consts  --      0.7984                 1.3121                 1.0447
 IR Inten    --      8.3978                22.7646                 5.5025

                     52                     53                     54
                      A                      A                      A
 Frequencies --   1077.8511              1108.3341              1123.4455
 Red. masses --      1.9998                 1.7462                 1.6148
 Frc consts  --      1.3688                 1.2638                 1.2008
 IR Inten    --      3.7673                19.4077                 2.2432

                     55                     56                     57
                      A                      A                      A
 Frequencies --   1125.1845              1160.1756              1161.3765
 Red. masses --      2.0286                 2.1968                 1.7945
 Frc consts  --      1.5132                 1.7422                 1.4261
 IR Inten    --     21.4436                69.3345                67.8545

                     58                     59                     60
                      A                      A                      A
 Frequencies --   1180.6009              1193.6183              1236.8469
 Red. masses --      2.3841                 2.0324                 1.5803
 Frc consts  --      1.9579                 1.7060                 1.4244
 IR Inten    --     18.8917               172.4402                 1.9630

                     61                     62                     63
                      A                      A                      A
 Frequencies --   1255.9867              1266.7246              1283.2287
 Red. masses --      1.3901                 1.7375                 1.4383
 Frc consts  --      1.2920                 1.6426                 1.3954
 IR Inten    --     53.6093                41.7237                33.0275

                     64                     65                     66
                      A                      A                      A
 Frequencies --   1294.6435              1305.5241              1325.6941
 Red. masses --      1.2236                 1.4652                 1.5709
 Frc consts  --      1.2083                 1.4714                 1.6266
 IR Inten    --     22.8984                61.6262                 4.6148

                     67                     68                     69
                      A                      A                      A
 Frequencies --   1341.9513              1343.7172              1356.4254
 Red. masses --      1.4539                 1.4392                 1.4034
 Frc consts  --      1.5426                 1.5311                 1.5214
 IR Inten    --     23.2952                92.0329                20.9934

                     70                     71                     72
                      A                      A                      A
 Frequencies --   1377.9095              1392.3562              1392.7040
 Red. masses --      1.2998                 1.6395                 1.2034
 Frc consts  --      1.4541                 1.8727                 1.3753
 IR Inten    --      0.4668                18.1195                 1.9585

                     73                     74                     75
                      A                      A                      A
 Frequencies --   1397.8659              1404.7233              1411.8709
 Red. masses --      1.3719                 1.4785                 1.3331
 Frc consts  --      1.5795                 1.7189                 1.5657
 IR Inten    --     12.1374                12.7317                 3.9313

                     76                     77                     78
                      A                      A                      A
 Frequencies --   1419.8515              1434.5417              1439.2437
 Red. masses --      1.6138                 1.3586                 1.2929
 Frc consts  --      1.9168                 1.6473                 1.5779
 IR Inten    --     13.4079                 5.3306                22.7011

                     79                     80                     81
                      A                      A                      A
 Frequencies --   1467.5153              1493.8038              1497.4444
 Red. masses --      1.8978                 1.2755                 1.1062
 Frc consts  --      2.4080                 1.6769                 1.4614
 IR Inten    --    233.9360                11.6346                 1.0433

                     82                     83                     84
                      A                      A                      A
 Frequencies --   1498.8350              1500.4690              1507.5772
 Red. masses --      1.0887                 1.1014                 1.1153
 Frc consts  --      1.4410                 1.4610                 1.4935
 IR Inten    --     11.7471                10.9795                 2.6293

                     85                     86                     87
                      A                      A                      A
 Frequencies --   1515.8760              1517.3986              1519.4083
 Red. masses --      1.0538                 1.1139                 1.1925
 Frc consts  --      1.4267                 1.5111                 1.6220
 IR Inten    --     11.3008                12.9910                23.9655

                     88                     89                     90
                      A                      A                      A
 Frequencies --   1528.4253              1531.4402              1547.9135
 Red. masses --      1.1145                 1.0541                 1.0505
 Frc consts  --      1.5340                 1.4566                 1.4829
 IR Inten    --     14.0821                11.9763                10.6514

                     91                     92                     93
                      A                      A                      A
 Frequencies --   1762.3616              1839.9375              3020.9286
 Red. masses --      7.3978                 9.9867                 1.0732
 Frc consts  --     13.5377                19.9195                 5.7704
 IR Inten    --    261.8323               234.2257                20.7681

                     94                     95                     96
                      A                      A                      A
 Frequencies --   3023.6245              3028.6035              3036.2752
 Red. masses --      1.0800                 1.0828                 1.0722
 Frc consts  --      5.8174                 5.8517                 5.8238
 IR Inten    --     24.8009                13.6486                 5.4802

                     97                     98                     99
                      A                      A                      A
 Frequencies --   3044.9704              3045.4807              3058.7243
 Red. masses --      1.0737                 1.0391                 1.0607
 Frc consts  --      5.8653                 5.6781                 5.8470
 IR Inten    --     66.9059                32.4296                30.1734

                    100                    101                    102
                      A                      A                      A
 Frequencies --   3061.4514              3064.3698              3073.9240
 Red. masses --      1.0691                 1.0307                 1.0589
 Frc consts  --      5.9038                 5.7027                 5.8951
 IR Inten    --     50.9905                20.1644                16.8052

                    103                    104                    105
                      A                      A                      A
 Frequencies --   3104.1559              3106.5275              3123.5155
 Red. masses --      1.1028                 1.1022                 1.0938
 Frc consts  --      6.2607                 6.2669                 6.2875
 IR Inten    --     40.4492                38.1432                22.2310

                    106                    107                    108
                      A                      A                      A
 Frequencies --   3126.9685              3132.0502              3135.1122
 Red. masses --      1.1051                 1.0969                 1.0992
 Frc consts  --      6.3664                 6.3395                 6.3654
 IR Inten    --      5.9945                26.4159                19.1729

                    109                    110                    111
                      A                      A                      A
 Frequencies --   3147.1597              3156.3435              3161.6733
 Red. masses --      1.1066                 1.1048                 1.0920
 Frc consts  --      6.4578                 6.4850                 6.4312
 IR Inten    --     12.2004                 8.2037                 6.2813

                    112                    113                    114
                      A                      A                      A
 Frequencies --   3183.9108              3590.4573              3682.2494
 Red. masses --      1.0919                 1.0745                 1.0640
 Frc consts  --      6.5213                 8.1610                 8.4998
 IR Inten    --      2.3766                16.0330                53.1428

 - Thermochemistry -
 -------------------
 Temperature   298.150 Kelvin.  Pressure   1.00000 Atm.
 Atom     1 has atomic number  6 and mass  12.00000

 Molecular mass:   274.13511 amu.
 Principal axes and moments of inertia in atomic units:
                           1         2         3
     Eigenvalues --  2356.395989421.59133**********
           X            0.99977  -0.01807  -0.01184
           Y            0.01784   0.99966  -0.01924
           Z            0.01218   0.01903   0.99974
 This molecule is an asymmetric top.
 Rotational symmetry number  1.
 Warning -- assumption of classical behavior for rotation
           may cause significant error
 Rotational temperatures (Kelvin)      0.03676     0.00919     0.00840
 Rotational constants (GHZ):           0.76589     0.19155     0.17509
 Zero-point vibrational energy     910883.8 (Joules/Mol)
                                  217.70644 (Kcal/Mol)
 Warning -- explicit consideration of  30 degrees of freedom as
           vibrations may cause significant error
 Vibrational temperatures:     20.39    35.25    47.93    68.74    83.69
          (Kelvin)            104.88   123.52   134.69   148.09   211.73
                              244.45   280.98   291.20   340.87   390.36
                              397.55   425.22   461.08   505.30   518.92
                              552.85   588.17   611.37   659.53   730.21
                              759.84   798.78   822.40   849.81   859.53
                              985.14  1011.56  1041.29  1047.75  1068.48
                             1099.38  1141.74  1178.94  1182.36  1230.23
                             1248.54  1271.40  1337.10  1352.28  1376.02
                             1390.16  1427.82  1433.78  1442.48  1490.36
                             1502.87  1550.79  1594.65  1616.39  1618.89
                             1669.23  1670.96  1698.62  1717.35  1779.55
                             1807.08  1822.53  1846.28  1862.70  1878.36
                             1907.38  1930.77  1933.31  1951.59  1982.50
                             2003.29  2003.79  2011.22  2021.08  2031.37
                             2042.85  2063.99  2070.75  2111.43  2149.25
                             2154.49  2156.49  2158.84  2169.07  2181.01
                             2183.20  2186.09  2199.06  2203.40  2227.10
                             2535.65  2647.26  4346.44  4350.32  4357.48
                             4368.52  4381.03  4381.77  4400.82  4404.75
                             4408.94  4422.69  4466.19  4469.60  4494.04
                             4499.01  4506.32  4510.73  4528.06  4541.27
                             4548.94  4580.94  5165.87  5297.94

 Zero-point correction=                           0.346937 (Hartree/Particle)
 Thermal correction to Energy=                    0.366525
 Thermal correction to Enthalpy=                  0.367469
 Thermal correction to Gibbs Free Energy=         0.295823
 Sum of electronic and zero-point Energies=          -1203.658549
 Sum of electronic and thermal Energies=             -1203.638961
 Sum of electronic and thermal Enthalpies=           -1203.638017
 Sum of electronic and thermal Free Energies=        -1203.709663

                     E (Thermal)             CV                S
                      KCal/Mol        Cal/Mol-Kelvin    Cal/Mol-Kelvin
 Total                  229.998             72.395            150.792
 Electronic               0.000              0.000              0.000
 Translational            0.889              2.981             42.724
 Rotational               0.889              2.981             33.792
 Vibrational            228.221             66.433             74.276
 Vibration     1          0.593              1.986              7.318
 Vibration     2          0.593              1.985              6.232
 Vibration     3          0.594              1.983              5.622
 Vibration     4          0.595              1.978              4.907
 Vibration     5          0.596              1.974              4.518
 Vibration     6          0.599              1.967              4.074
 Vibration     7          0.601              1.959              3.752
 Vibration     8          0.603              1.954              3.583
 Vibration     9          0.605              1.947              3.398
 Vibration    10          0.617              1.906              2.709
 Vibration    11          0.625              1.880              2.437
 Vibration    12          0.636              1.846              2.177
 Vibration    13          0.639              1.836              2.111
 Vibration    14          0.656              1.784              1.826
 Vibration    15          0.675              1.726              1.588
 Vibration    16          0.678              1.717              1.556
 Vibration    17          0.690              1.682              1.442
 Vibration    18          0.706              1.634              1.308
 Vibration    19          0.728              1.573              1.161
 Vibration    20          0.735              1.553              1.119
 Vibration    21          0.753              1.504              1.022
 Vibration    22          0.773              1.451              0.931
 Vibration    23          0.787              1.416              0.875
 Vibration    24          0.816              1.342              0.771
 Vibration    25          0.863              1.233              0.640
 Vibration    26          0.883              1.188              0.591
 Vibration    27          0.911              1.128              0.534
 Vibration    28          0.928              1.093              0.501
 Vibration    29          0.948              1.052              0.466
 Vibration    30          0.955              1.037              0.454

 Optimization completed.
    -- Stationary point found.
 Normal termination of Gaussian 16 at Fri Dec 11 19:05:37 2020.

 ----------------------------------------------------------------------
 # B3LYP/6-311++G(d,p) empiricaldispersion=gd3bj scf=xqc pop=npa geom=c
 heck
 ----------------------------------------------------------------------

 --------------------------------------
 CID_63957310_JID_8029_Energie_neutraal
 --------------------------------------
 Structure from the checkpoint file:  "JID_8029.chk"
 Charge =  0 Multiplicity = 1

 SCF Done:  E(RB3LYP) =  -1204.27377386     A.U. after   15 cycles
 Normal termination of Gaussian 16 at Fri Dec 11 19:13:34 2020.

 ----------------------------------------------------------------------
 # B3LYP/6-311++G(d,p) empiricaldispersion=gd3bj scf=xqc pop=npa geom=c
 heck
 ----------------------------------------------------------------------

 ------------------------------------
 CID_63957310_JID_8029_Energie_kation
 ------------------------------------
 Structure from the checkpoint file:  "JID_8029.chk"
 Charge =  1 Multiplicity = 2

 SCF Done:  E(UB3LYP) =  -1203.98467257     A.U. after   28 cycles
 Normal termination of Gaussian 16 at Fri Dec 11 19:33:36 2020.
 Gaussian 16:  ES64L-G16RevA.03 25-Dec-2016

 ----------------------------------------------------------------------
 # B3LYP/6-311++G(d,p) empiricaldispersion=gd3bj scf=xqc pop=npa geom=c
 heck
 ----------------------------------------------------------------------

 -----------------------------------
 CID_63957310_JID_8029_Energie_anion
 -----------------------------------
 Structure from the checkpoint file:  "JID_8029.chk"
 Charge = -1 Multiplicity = 2

                         Standard orientation:
 ---------------------------------------------------------------------
 Center     Atomic      Atomic             Coordinates (Angstroms)
 Number     Number       Type             X           Y           Z
 ---------------------------------------------------------------------
      1          6           0       -3.260783    1.988747    0.375633
      2          6           0       -2.560491    1.209342   -0.741462
      3          6           0       -1.098068    1.671188   -0.930989
      4          7           0       -0.244876    1.510422    0.247707
      5          6           0        0.242289    0.274680    0.656128
      6          8           0        0.129224   -0.120456    1.814581
      7          7           0        0.834893   -0.488644   -0.342226
      8          6           0        1.103644   -1.893743   -0.034829
      9          6           0        2.551690   -2.119362    0.404747
     10          6           0        3.515844   -1.571354   -0.653096
     11          6           0        3.208766   -0.094671   -0.959494
     12          6           0        1.726128    0.101540   -1.338909
     13          6           0        3.576073    0.856809    0.173516
     14          8           0        3.036429    1.918355    0.393398
     15          8           0        4.626514    0.417879    0.909464
     16          6           0       -2.622114   -0.311003   -0.524956
     17         16           0       -4.313259   -1.033561   -0.534926
     18          6           0       -4.657439   -1.132193    1.257767
     19          1           0       -2.839117    1.741172    1.357459
     20          1           0       -4.327718    1.750448    0.398974
     21          1           0       -3.162181    3.070227    0.223638
     22          1           0       -3.075518    1.433495   -1.686608
     23          1           0       -0.650273    1.122389   -1.762433
     24          1           0       -1.088763    2.732820   -1.205701
     25          1           0       -0.570508    2.020884    1.059812
     26          1           0        0.897097   -2.476473   -0.944558
     27          1           0        0.404421   -2.203158    0.741483
     28          1           0        2.729897   -3.189408    0.564848
     29          1           0        2.711927   -1.612492    1.363286
     30          1           0        4.555466   -1.684078   -0.336052
     31          1           0        3.396233   -2.141763   -1.584665
     32          1           0        3.820960    0.228133   -1.815035
     33          1           0        1.515353    1.165742   -1.420951
     34          1           0        1.544533   -0.375412   -2.311421
     35          1           0        4.784591    1.107488    1.581743
     36          1           0       -2.070329   -0.821049   -1.320801
     37          1           0       -2.151162   -0.588745    0.422831
     38          1           0       -3.891047   -1.723975    1.766445
     39          1           0       -4.720398   -0.142854    1.717128
     40          1           0       -5.622001   -1.634972    1.367144
 ---------------------------------------------------------------------

 SCF Done:  E(UB3LYP) =  -1204.26474314     A.U. after   33 cycles
 SCF Done:  E(UB3LYP) =  -1204.26474314     a.u. after    1 cycles

 The electronic state is 2-A.
 Alpha  occ. eigenvalues --  -88.75536 -19.07655 -19.01513 -18.98949 -14.23629
 Alpha  occ. eigenvalues --  -14.22928 -10.20334 -10.19620 -10.11604 -10.11491
 Alpha  occ. eigenvalues --  -10.10931 -10.10769 -10.10276 -10.09633 -10.09337
 Alpha  occ. eigenvalues --  -10.07939 -10.07311 -10.07157  -7.84130  -5.80539
 Alpha  occ. eigenvalues --   -5.80164  -5.79484  -1.01519  -0.95329  -0.92364
 Alpha  occ. eigenvalues --   -0.84597  -0.82105  -0.73529  -0.71449  -0.68838
 Alpha  occ. eigenvalues --   -0.67401  -0.61788  -0.60822  -0.58406  -0.57418
 Alpha  occ. eigenvalues --   -0.53189  -0.52232  -0.49765  -0.48465  -0.45972
 Alpha  occ. eigenvalues --   -0.41918  -0.40026  -0.39810  -0.39127  -0.38661
 Alpha  occ. eigenvalues --   -0.38339  -0.37088  -0.36476  -0.35752  -0.35100
 Alpha  occ. eigenvalues --   -0.34184  -0.33623  -0.33397  -0.32316  -0.31817
 Alpha  occ. eigenvalues --   -0.31322  -0.31125  -0.30053  -0.28975  -0.28382
 Alpha  occ. eigenvalues --   -0.27658  -0.27153  -0.26360  -0.25820  -0.25022
 Alpha  occ. eigenvalues --   -0.23821  -0.23591  -0.22741  -0.22628  -0.18777
 Alpha  occ. eigenvalues --   -0.18311  -0.15373  -0.14244  -0.14045   0.04034
 Alpha virt. eigenvalues --    0.05460   0.06182   0.06612   0.07593   0.07831
 Alpha virt. eigenvalues --    0.08779   0.08896   0.09414   0.09650   0.09936
 Alpha virt. eigenvalues --    0.10479   0.10618   0.11031   0.11380   0.11680

  Beta  occ. eigenvalues --  -88.75534 -19.07634 -19.01475 -18.98947 -14.23628
  Beta  occ. eigenvalues --  -14.22925 -10.20257 -10.19618 -10.11585 -10.11481
  Beta  occ. eigenvalues --  -10.10923 -10.10737 -10.10264 -10.09627 -10.09324
  Beta  occ. eigenvalues --  -10.07923 -10.07284 -10.07149  -7.84127  -5.80537
  Beta  occ. eigenvalues --   -5.80158  -5.79482  -1.01442  -0.95324  -0.92298
  Beta  occ. eigenvalues --   -0.84585  -0.82092  -0.73513  -0.71391  -0.68819
  Beta  occ. eigenvalues --   -0.67362  -0.61765  -0.60788  -0.58340  -0.57337
  Beta  occ. eigenvalues --   -0.53163  -0.52172  -0.49715  -0.48441  -0.45927
  Beta  occ. eigenvalues --   -0.41864  -0.39990  -0.39776  -0.39056  -0.38617
  Beta  occ. eigenvalues --   -0.38203  -0.37046  -0.36450  -0.35734  -0.35078
  Beta  occ. eigenvalues --   -0.34133  -0.33606  -0.33320  -0.32298  -0.31779
  Beta  occ. eigenvalues --   -0.31302  -0.31078  -0.30018  -0.28936  -0.28356
  Beta  occ. eigenvalues --   -0.27592  -0.27133  -0.26337  -0.25793  -0.24987
  Beta  occ. eigenvalues --   -0.23768  -0.23537  -0.22718  -0.22499  -0.18762
  Beta  occ. eigenvalues --   -0.18267  -0.15361  -0.14211  -0.14035
  Beta virt. eigenvalues --    0.05554   0.06423   0.06689   0.07196   0.08012
  Beta virt. eigenvalues --    0.08271   0.08901   0.09173   0.09752   0.10014
  Beta virt. eigenvalues --    0.10454   0.10742   0.10799   0.11250   0.11614

 Mulliken charges and spin densities:
               1          2
     1  C   -0.250629  -0.683439
     2  C   -0.211314   0.271061
     3  C    0.082685  -0.385509
     4  N    0.025081   0.000271
     5  C   -0.868425  -0.021814
     6  O   -0.224397   0.009440
     7  N    0.306378   0.019816
     8  C    0.258499  -0.367875
     9  C   -0.544396   0.263631
    10  C    0.998598  -1.672874
    11  C    0.323650   0.256858
    12  C   -0.082235  -0.501726
    13  C    0.417228  -0.732649
    14  O   -0.250925   0.016246
    15  O   -0.159541   0.031666
    16  C    0.325105  -0.164865
    17  S    0.055420  -0.123836
    18  C   -0.548266  -0.164344
    19  H    0.115059   0.066648
    20  H   -0.025251   0.166113
    21  H    0.006707   0.128841
    22  H   -0.074780   0.256026
    23  H   -0.110386   0.281627
    24  H   -0.274440   0.487651
    25  H    0.275776   0.022637
    26  H   -0.014023   0.185044
    27  H    0.128057   0.042528
    28  H   -0.054202   0.226303
    29  H    0.181760  -0.011650
    30  H   -0.043113   0.238860
    31  H   -0.308578   0.460176
    32  H   -0.985139   1.278695
    33  H    0.284509  -0.083939
    34  H   -0.499269   0.697434
    35  H    0.077741   0.199449
    36  H    0.144892   0.145991
    37  H    0.262288  -0.071268
    38  H    0.127571   0.053837
    39  H    0.076041   0.072917
    40  H    0.056264   0.106022
 Sum of Mulliken charges =  -1.00000   1.00000

 Dipole moment (field-independent basis, Debye):
    X=             -5.2468    Y=             -0.2564    Z=              5.0773  Tot=              7.3057
 Quadrupole moment (field-independent basis, Debye-Ang):
   XX=           -201.8489   YY=           -158.5033   ZZ=           -163.9826
   XY=              2.5905   XZ=             11.3098   YZ=             -2.2046

 Summary of Natural Population Analysis:

                                       Natural Population
                Natural  -----------------------------------------------
    Atom  No    Charge         Core      Valence    Rydberg      Total
 -----------------------------------------------------------------------
      C    1   -0.29513      0.99964     2.28818    0.00731     3.29513
      C    2   -0.12362      0.99958     2.11191    0.01213     3.12362
      C    3   -0.08605      0.99958     2.07385    0.01262     3.08605
      N    4   -0.33282      0.99968     2.82343    0.00971     3.83282
      C    5    0.41622      0.99965     1.55989    0.02425     2.58378
      O    6   -0.33979      0.99988     3.33525    0.00466     4.33979
      N    7   -0.27803      0.99964     2.76638    0.01201     3.77803
      C    8   -0.08341      0.99961     2.07294    0.01085     3.08341
      C    9   -0.19816      0.99962     2.19063    0.00792     3.19816
      C   10   -0.19130      0.99962     2.18123    0.01046     3.19130
      C   11   -0.16214      0.99954     2.14927    0.01332     3.16214
      C   12   -0.08540      0.99959     2.07230    0.01352     3.08540
      C   13    0.41833      0.99968     1.55589    0.02610     2.58167
      O   14   -0.30439      0.99987     3.29835    0.00617     4.30439
      O   15   -0.34699      0.99987     3.34106    0.00605     4.34699
      C   16   -0.25411      0.99955     2.24303    0.01152     3.25411
      S   17    0.08271      4.99964     2.90018    0.01747     7.91729
      C   18   -0.34899      0.99962     2.34433    0.00504     3.34899
      H   19    0.09742      0.00000     0.40155    0.00103     0.40258
      H   20    0.10464      0.00000     0.39426    0.00110     0.39536
      H   21    0.10065      0.00000     0.39858    0.00077     0.39935
      H   22    0.09939      0.00000     0.39870    0.00191     0.40061
      H   23    0.10364      0.00000     0.39461    0.00175     0.39636
      H   24    0.09805      0.00000     0.40093    0.00102     0.40195
      H   25    0.18924      0.00000     0.30876    0.00199     0.31076
      H   26    0.09144      0.00000     0.40720    0.00137     0.40856
      H   27    0.10959      0.00000     0.38934    0.00107     0.39041
      H   28    0.09908      0.00000     0.40012    0.00080     0.40092
      H   29    0.10237      0.00000     0.39631    0.00132     0.39763
      H   30    0.10865      0.00000     0.38975    0.00160     0.39135
      H   31    0.10057      0.00000     0.39721    0.00222     0.39943
      H   32    0.12611      0.00000     0.36795    0.00593     0.37389
      H   33    0.11675      0.00000     0.38114    0.00211     0.38325
      H   34    0.09951      0.00000     0.39796    0.00253     0.40049
      H   35    0.23914      0.00000     0.25754    0.00333     0.26086
      H   36    0.11055      0.00000     0.38756    0.00189     0.38945
      H   37    0.10887      0.00000     0.38858    0.00254     0.39113
      H   38    0.10273      0.00000     0.39587    0.00141     0.39727
      H   39    0.10054      0.00000     0.39800    0.00146     0.39946
      H   40    0.10416      0.00000     0.39484    0.00100     0.39584
 =======================================================================
   * Total *    0.00000     21.99387    51.75486    0.25127    74.00000

 Normal termination of Gaussian 16 at Fri Dec 11 19:57:46 2020.
