 Gaussian 16, Revision A.03,

 -----------------------------------------------------------
 # opt freq B3LYP/6-31G(d) empiricaldispersion=gd3bj scf=xqc
 -----------------------------------------------------------

 -------------------------------
 CID_115200998_JID_1020_neutraal
 -------------------------------
 Symbolic Z-matrix:
 Charge =  0 Multiplicity = 1

 SCF Done:  E(RB3LYP) =  -478.135863571     A.U. after   14 cycles
 SCF Done:  E(RB3LYP) =  -478.139818379     A.U. after   12 cycles
 SCF Done:  E(RB3LYP) =  -478.140845813     A.U. after   12 cycles
 SCF Done:  E(RB3LYP) =  -478.141390281     A.U. after   12 cycles
 SCF Done:  E(RB3LYP) =  -478.142339955     A.U. after   12 cycles
 SCF Done:  E(RB3LYP) =  -478.143401893     A.U. after   13 cycles
 SCF Done:  E(RB3LYP) =  -478.144140622     A.U. after   12 cycles
 SCF Done:  E(RB3LYP) =  -478.144717729     A.U. after   12 cycles
 SCF Done:  E(RB3LYP) =  -478.145239847     A.U. after   12 cycles
 SCF Done:  E(RB3LYP) =  -478.145651863     A.U. after   11 cycles
 SCF Done:  E(RB3LYP) =  -478.146469297     A.U. after   11 cycles
 SCF Done:  E(RB3LYP) =  -478.146471263     A.U. after    8 cycles
 SCF Done:  E(RB3LYP) =  -478.146472562     A.U. after    8 cycles
 SCF Done:  E(RB3LYP) =  -478.146472742     A.U. after    8 cycles
 SCF Done:  E(RB3LYP) =  -478.146472814     A.U. after    7 cycles
 SCF Done:  E(RB3LYP) =  -478.146472833     A.U. after    7 cycles
 Optimization completed.
    -- Stationary point found.

 1\1\GINC-NODE315\FOpt\RB3LYP\6-31G(d)\C8H15N3\VSC10255\08-Dec-2020\0\\
 # opt freq B3LYP/6-31G(d) empiricaldispersion=gd3bj scf=xqc\\CID_11520
 0998_JID_1020_neutraal\\0,1\C,0.714078076,0.3086529133,-0.7506464869\C
 ,-0.1966516378,1.1218934489,-0.1120251378\N,-1.0644304842,0.3080845945
 ,0.5812122863\C,-0.7241439097,-1.0151933584,0.3970293575\C,0.378420015
 4,-1.0424779392,-0.4380908607\N,-1.4883847133,-2.0112954574,1.04015892
 93\C,-2.6498320737,-2.5140117903,0.2803073139\C,-2.3261919808,-3.22528
 17979,-1.0415021836\C,-1.4166829753,-4.4559248157,-0.9040570918\C,-1.9

 Normal termination of Gaussian 16 at Tue Dec  8 19:15:20 2020.

 --------------------------------------------------------------------
 #N Geom=AllCheck Guess=TCheck SCRF=Check GenChk RB3LYP/6-31G(d) Freq
 --------------------------------------------------------------------

 Structure from the checkpoint file:  "JID_1020.chk"
 -------------------------------
 CID_115200998_JID_1020_neutraal
 -------------------------------
 Charge =  0 Multiplicity = 1

 SCF Done:  E(RB3LYP) =  -478.146472833     A.U. after    1 cycles

  Exact polarizability: 131.002   3.626  97.211   9.052  -2.317  69.707
 Approx polarizability: 164.375   4.043 156.198  15.374  -3.121 106.117

                      1                      2                      3
                      A                      A                      A
 Frequencies --     29.2243                43.0078                52.0475
 Red. masses --      3.5851                 3.8514                 3.7688
 Frc consts  --      0.0018                 0.0042                 0.0060
 IR Inten    --      1.0663                 0.5495                 0.2624

                      4                      5                      6
                      A                      A                      A
 Frequencies --     91.2964               141.9479               196.1834
 Red. masses --      4.0906                 2.7234                 3.1438
 Frc consts  --      0.0201                 0.0323                 0.0713
 IR Inten    --      0.9663                 5.7150                10.3543

                      7                      8                      9
                      A                      A                      A
 Frequencies --    234.1522               297.8242               330.3656
 Red. masses --      1.4938                 1.5470                 2.6089
 Frc consts  --      0.0483                 0.0808                 0.1678
 IR Inten    --     27.2055                25.2466                 5.3111

                     10                     11                     12
                      A                      A                      A
 Frequencies --    383.3872               405.8615               459.3366
 Red. masses --      2.2583                 2.3170                 1.8033
 Frc consts  --      0.1956                 0.2249                 0.2242
 IR Inten    --      2.2654                11.1412                38.1067

                     13                     14                     15
                      A                      A                      A
 Frequencies --    492.3884               555.9107               633.3479
 Red. masses --      1.4595                 2.4298                 3.1744
 Frc consts  --      0.2085                 0.4424                 0.7502
 IR Inten    --     22.3230                 1.0653                 1.2831

                     16                     17                     18
                      A                      A                      A
 Frequencies --    639.9568               679.8574               699.6699
 Red. masses --      3.9401                 1.4583                 1.8703
 Frc consts  --      0.9507                 0.3971                 0.5394
 IR Inten    --      7.1401                48.2462                13.3164

                     19                     20                     21
                      A                      A                      A
 Frequencies --    727.6768               767.1752               783.9575
 Red. masses --      1.4870                 1.7198                 1.3218
 Frc consts  --      0.4639                 0.5964                 0.4786
 IR Inten    --     61.0039                20.1932                43.1516

                     22                     23                     24
                      A                      A                      A
 Frequencies --    825.7199               850.5444               873.4186
 Red. masses --      2.3606                 1.2556                 1.3107
 Frc consts  --      0.9483                 0.5352                 0.5891
 IR Inten    --     31.4613                 0.1506               138.1422

                     25                     26                     27
                      A                      A                      A
 Frequencies --    899.3944               907.1162               935.5908
 Red. masses --      2.9380                 2.7046                 1.9901
 Frc consts  --      1.4002                 1.3113                 1.0264
 IR Inten    --      0.4554                 4.1427                14.4211

                     28                     29                     30
                      A                      A                      A
 Frequencies --    987.8061              1033.6905              1046.0362
 Red. masses --      2.4028                 1.4854                 1.7703
 Frc consts  --      1.3814                 0.9351                 1.1413
 IR Inten    --      2.7076                11.5354                32.9797

                     31                     32                     33
                      A                      A                      A
 Frequencies --   1060.2530              1079.8695              1110.1695
 Red. masses --      1.4051                 2.0698                 2.0206
 Frc consts  --      0.9306                 1.4221                 1.4673
 IR Inten    --     12.8389                 4.2972                12.3006

                     34                     35                     36
                      A                      A                      A
 Frequencies --   1125.4862              1146.6553              1149.1548
 Red. masses --      2.0920                 2.2372                 1.5461
 Frc consts  --      1.5613                 1.7331                 1.2030
 IR Inten    --      7.4839                13.0096                 5.2786

                     37                     38                     39
                      A                      A                      A
 Frequencies --   1183.7309              1228.8607              1256.0081
 Red. masses --      1.4240                 1.2369                 1.4440
 Frc consts  --      1.1756                 1.1005                 1.3422
 IR Inten    --      3.1020                 4.1079                 8.6435

                     40                     41                     42
                      A                      A                      A
 Frequencies --   1286.7832              1310.6598              1330.1093
 Red. masses --      1.6928                 1.8387                 1.3245
 Frc consts  --      1.6515                 1.8610                 1.3806
 IR Inten    --      5.4517                 9.8030                 5.5714

                     43                     44                     45
                      A                      A                      A
 Frequencies --   1364.6599              1388.7695              1402.9035
 Red. masses --      1.1538                 1.3178                 1.5237
 Frc consts  --      1.2660                 1.4974                 1.7669
 IR Inten    --      3.0471                15.8690                 1.2113

                     46                     47                     48
                      A                      A                      A
 Frequencies --   1418.5364              1438.7720              1452.1716
 Red. masses --      1.3516                 1.9772                 1.4372
 Frc consts  --      1.6025                 2.4115                 1.7857
 IR Inten    --      3.7706                36.4647                16.0940

                     49                     50                     51
                      A                      A                      A
 Frequencies --   1455.4820              1502.7909              1508.5193
 Red. masses --      2.4904                 2.4084                 1.1143
 Frc consts  --      3.1084                 3.2046                 1.4940
 IR Inten    --      5.1407                11.7760                 2.5304

                     52                     53                     54
                      A                      A                      A
 Frequencies --   1516.1426              1520.8727              1534.9377
 Red. masses --      1.2125                 1.1388                 1.9016
 Frc consts  --      1.6421                 1.5519                 2.6397
 IR Inten    --      2.6088                10.4129                15.3892

                     55                     56                     57
                      A                      A                      A
 Frequencies --   1546.8142              1629.7253              1700.3309
 Red. masses --      1.0953                 4.0303                 1.0886
 Frc consts  --      1.5441                 6.3069                 1.8543
 IR Inten    --      3.1818                61.0950                32.8576

                     58                     59                     60
                      A                      A                      A
 Frequencies --   2935.6157              3039.8938              3043.7883
 Red. masses --      1.0744                 1.0672                 1.0619
 Frc consts  --      5.4553                 5.8106                 5.7965
 IR Inten    --     95.7329                25.9424                18.7738

                     61                     62                     63
                      A                      A                      A
 Frequencies --   3051.3930              3073.1706              3085.7967
 Red. masses --      1.0633                 1.0868                 1.0977
 Frc consts  --      5.8329                 6.0477                 6.1586
 IR Inten    --     45.7359                47.4585                24.8928

                     64                     65                     66
                      A                      A                      A
 Frequencies --   3092.3250              3097.3932              3248.1547
 Red. masses --      1.0995                 1.1023                 1.0901
 Frc consts  --      6.1945                 6.2310                 6.7765
 IR Inten    --     49.1355                55.8647                11.3796

                     67                     68                     69
                      A                      A                      A
 Frequencies --   3261.1972              3282.9197              3470.1137
 Red. masses --      1.0962                 1.1023                 1.0498
 Frc consts  --      6.8691                 6.9999                 7.4479
 IR Inten    --      6.0524                 4.5623                 1.8462

                     70                     71                     72
                      A                      A                      A
 Frequencies --   3535.4819              3552.7622              3664.8853
 Red. masses --      1.0737                 1.0921                 1.0802
 Frc consts  --      7.9070                 8.1217                 8.5483
 IR Inten    --      1.1444                 0.9623                49.8080

 - Thermochemistry -
 -------------------
 Temperature   298.150 Kelvin.  Pressure   1.00000 Atm.
 Atom     1 has atomic number  6 and mass  12.00000

 Molecular mass:   153.12660 amu.
 Principal axes and moments of inertia in atomic units:
                           1         2         3
     Eigenvalues --   581.310823722.069373961.45876
           X            0.99998   0.00192   0.00567
           Y           -0.00176   0.99957  -0.02910
           Z           -0.00572   0.02909   0.99956
 This molecule is an asymmetric top.
 Rotational symmetry number  1.
 Warning -- assumption of classical behavior for rotation
           may cause significant error
 Rotational temperatures (Kelvin)      0.14900     0.02327     0.02186
 Rotational constants (GHZ):           3.10461     0.48488     0.45557
 Zero-point vibrational energy     610621.6 (Joules/Mol)
                                  145.94205 (Kcal/Mol)
 Warning -- explicit consideration of  14 degrees of freedom as
           vibrations may cause significant error
 Vibrational temperatures:     42.05    61.88    74.88   131.36   204.23
          (Kelvin)            282.26   336.89   428.50   475.32   551.61
                              583.94   660.88   708.44   799.83   911.25
                              920.76   978.16  1006.67  1046.96  1103.79
                             1127.94  1188.03  1223.74  1256.65  1294.03
                             1305.14  1346.11  1421.23  1487.25  1505.01
                             1525.47  1553.69  1597.29  1619.32  1649.78
                             1653.38  1703.12  1768.06  1807.12  1851.39
                             1885.75  1913.73  1963.44  1998.13  2018.47
                             2040.96  2070.07  2089.35  2094.11  2162.18
                             2170.42  2181.39  2188.20  2208.43  2225.52
                             2344.81  2446.40  4223.70  4373.73  4379.33
                             4390.27  4421.61  4439.77  4449.17  4456.46
                             4673.37  4692.14  4723.39  4992.72  5086.77
                             5111.63  5272.95

 Zero-point correction=                           0.232573 (Hartree/Particle)
 Thermal correction to Energy=                    0.244102
 Thermal correction to Enthalpy=                  0.245046
 Thermal correction to Gibbs Free Energy=         0.193555
 Sum of electronic and zero-point Energies=           -477.913899
 Sum of electronic and thermal Energies=              -477.902371
 Sum of electronic and thermal Enthalpies=            -477.901427
 Sum of electronic and thermal Free Energies=         -477.952918

                     E (Thermal)             CV                S
                      KCal/Mol        Cal/Mol-Kelvin    Cal/Mol-Kelvin
 Total                  153.176             43.222            108.372
 Electronic               0.000              0.000              0.000
 Translational            0.889              2.981             40.988
 Rotational               0.889              2.981             30.528
 Vibrational            151.399             37.261             36.856
 Vibration     1          0.593              1.984              5.881
 Vibration     2          0.595              1.980              5.115
 Vibration     3          0.596              1.977              4.738
 Vibration     4          0.602              1.955              3.632
 Vibration     5          0.615              1.911              2.777
 Vibration     6          0.636              1.845              2.169
 Vibration     7          0.654              1.789              1.847
 Vibration     8          0.691              1.678              1.429
 Vibration     9          0.713              1.615              1.258
 Vibration    10          0.753              1.506              1.026
 Vibration    11          0.771              1.457              0.941
 Vibration    12          0.817              1.340              0.768
 Vibration    13          0.848              1.267              0.677
 Vibration    14          0.911              1.127              0.532

 Optimization completed.
    -- Stationary point found.

 1\1\GINC-NODE315\Freq\RB3LYP\6-31G(d)\C8H15N3\VSC10255\08-Dec-2020\0\\
 #N Geom=AllCheck Guess=TCheck SCRF=Check GenChk RB3LYP/6-31G(d) Freq\\
 CID_115200998_JID_1020_neutraal\\0,1\C,0.714078076,0.3086529133,-0.750
 6464869\C,-0.1966516378,1.1218934489,-0.1120251378\N,-1.0644304842,0.3
 080845945,0.5812122863\C,-0.7241439097,-1.0151933584,0.3970293575\C,0.
 3784200154,-1.0424779392,-0.4380908607\N,-1.4883847133,-2.0112954574,1
 .0401589293\C,-2.6498320737,-2.5140117903,0.2803073139\C,-2.3261919808
 ,-3.2252817979,-1.0415021836\C,-1.4166829753,-4.4559248157,-0.90405709

 Normal termination of Gaussian 16 at Tue Dec  8 19:20:04 2020.

 ----------------------------------------------------------------------
 # B3LYP/6-311++G(d,p) empiricaldispersion=gd3bj scf=xqc pop=npa geom=c
 heck
 ----------------------------------------------------------------------

 ---------------------------------------
 CID_115200998_JID_1020_Energie_neutraal
 ---------------------------------------
 Structure from the checkpoint file:  "JID_1020.chk"
 Charge =  0 Multiplicity = 1

 SCF Done:  E(RB3LYP) =  -478.295984727     A.U. after   13 cycles
 Normal termination of Gaussian 16 at Tue Dec  8 19:21:42 2020.

 ----------------------------------------------------------------------
 # B3LYP/6-311++G(d,p) empiricaldispersion=gd3bj scf=xqc pop=npa geom=c
 heck
 ----------------------------------------------------------------------

 -------------------------------------
 CID_115200998_JID_1020_Energie_kation
 -------------------------------------
 Structure from the checkpoint file:  "JID_1020.chk"
 Charge =  1 Multiplicity = 2

 SCF Done:  E(UB3LYP) =  -478.022337006     A.U. after   24 cycles
 Normal termination of Gaussian 16 at Tue Dec  8 19:25:39 2020.
 Gaussian 16:  ES64L-G16RevA.03 25-Dec-2016

 ------------------------------------
 CID_115200998_JID_1020_Energie_anion
 ------------------------------------
 Structure from the checkpoint file:  "JID_1020.chk"
 Charge = -1 Multiplicity = 2

                         Standard orientation:
 ---------------------------------------------------------------------
 Center     Atomic      Atomic             Coordinates (Angstroms)
 Number     Number       Type             X           Y           Z
 ---------------------------------------------------------------------
      1          6           0        3.229061    1.139498    0.156931
      2          6           0        3.643444   -0.168479    0.283854
      3          7           0        2.582326   -0.974920   -0.061955
      4          6           0        1.493254   -0.204001   -0.408926
      5          6           0        1.868426    1.120534   -0.272281
      6          7           0        0.303400   -0.846715   -0.810254
      7          6           0       -0.645409   -1.167212    0.274228
      8          6           0       -1.224240    0.035958    1.032624
      9          6           0       -1.991556    1.039317    0.157937
     10          6           0       -3.147272    0.437259   -0.647147
     11          7           0       -4.143042   -0.176973    0.237712
     12          1           0        3.829448    2.015468    0.361730
     13          1           0        4.590044   -0.588878    0.589568
     14          1           0        2.597038   -1.978618   -0.158971
     15          1           0        1.230521    1.975388   -0.451857
     16          1           0       -0.160643   -0.303484   -1.531900
     17          1           0       -1.447437   -1.767745   -0.172901
     18          1           0       -0.122583   -1.821948    0.980351
     19          1           0       -1.883968   -0.336368    1.827881
     20          1           0       -0.402446    0.561029    1.533179
     21          1           0       -2.392867    1.830172    0.801822
     22          1           0       -1.297267    1.524225   -0.541699
     23          1           0       -3.647284    1.242311   -1.198434
     24          1           0       -2.745487   -0.255094   -1.411376
     25          1           0       -4.945109   -0.484697   -0.309293
     26          1           0       -3.754989   -1.018761    0.660062
 ---------------------------------------------------------------------

 SCF Done:  E(UB3LYP) =  -478.283232650     A.U. after   30 cycles

 The electronic state is 2-A.
 Alpha  occ. eigenvalues --  -14.24881 -14.21128 -14.18821 -10.11844 -10.09229
 Alpha  occ. eigenvalues --  -10.08893 -10.08864 -10.06503 -10.06245 -10.05765
 Alpha  occ. eigenvalues --  -10.05360  -0.88217  -0.80526  -0.77949  -0.67739
 Alpha  occ. eigenvalues --   -0.67306  -0.61845  -0.58929  -0.53123  -0.48744
 Alpha  occ. eigenvalues --   -0.47723  -0.46542  -0.43499  -0.39933  -0.37893
 Alpha  occ. eigenvalues --   -0.36750  -0.34373  -0.33484  -0.32472  -0.31892
 Alpha  occ. eigenvalues --   -0.30623  -0.29786  -0.29295  -0.28493  -0.26754
 Alpha  occ. eigenvalues --   -0.24671  -0.23663  -0.22493  -0.15707  -0.14811
 Alpha  occ. eigenvalues --   -0.14104  -0.10240   0.04358
 Alpha virt. eigenvalues --    0.06093   0.07462   0.08198   0.08474   0.09007
 Alpha virt. eigenvalues --    0.10191   0.10732   0.11372   0.11449   0.11960
 Alpha virt. eigenvalues --    0.12483   0.13329   0.14109   0.14147   0.15398

  Beta  occ. eigenvalues --  -14.24841 -14.21120 -14.18772 -10.11845 -10.09199
  Beta  occ. eigenvalues --  -10.08876 -10.08835 -10.06497 -10.06237 -10.05765
  Beta  occ. eigenvalues --  -10.05351  -0.88178  -0.80500  -0.77872  -0.67700
  Beta  occ. eigenvalues --   -0.67259  -0.61801  -0.58878  -0.53047  -0.48673
  Beta  occ. eigenvalues --   -0.47702  -0.46488  -0.43457  -0.39881  -0.37836
  Beta  occ. eigenvalues --   -0.36697  -0.34319  -0.33447  -0.32418  -0.31864
  Beta  occ. eigenvalues --   -0.30588  -0.29754  -0.29254  -0.28466  -0.26720
  Beta  occ. eigenvalues --   -0.24648  -0.23632  -0.22465  -0.15688  -0.14782
  Beta  occ. eigenvalues --   -0.14054  -0.10224
  Beta virt. eigenvalues --    0.06776   0.07365   0.08016   0.08666   0.09073
  Beta virt. eigenvalues --    0.09389   0.10899   0.11094   0.11627   0.11809
  Beta virt. eigenvalues --    0.12231   0.12550   0.13841   0.14307   0.14478

 Mulliken charges and spin densities:
               1          2
     1  C    0.283051  -0.871849
     2  C    0.038431  -0.093439
     3  N   -0.283655   0.123368
     4  C    0.023682  -0.917012
     5  C    0.267479   0.327077
     6  N    0.027972   0.019362
     7  C    0.367652  -0.668036
     8  C   -0.149858  -0.088165
     9  C   -0.467144   0.214468
    10  C    1.552410  -2.032167
    11  N   -0.510894   0.174531
    12  H    0.069902   0.058816
    13  H   -0.745151   0.904122
    14  H   -0.369021   0.674161
    15  H   -0.110437   0.253299
    16  H    0.293802  -0.028484
    17  H   -0.489299   0.696937
    18  H   -0.239472   0.388777
    19  H   -0.108130   0.277427
    20  H    0.163248  -0.023405
    21  H    0.019178   0.123730
    22  H    0.200754  -0.074808
    23  H   -0.242063   0.399326
    24  H   -0.330969   0.444837
    25  H   -0.327781   0.569469
    26  H    0.066312   0.147659
 Sum of Mulliken charges =  -1.00000   1.00000

 Dipole moment (field-independent basis, Debye):
    X=              2.2757    Y=              4.5139    Z=              0.2495  Tot=              5.0612
 Quadrupole moment (field-independent basis, Debye-Ang):
   XX=           -162.8649   YY=           -104.9614   ZZ=            -95.9303
   XY=              4.3922   XZ=             -4.3687   YZ=             -0.1551

 Summary of Natural Population Analysis:

                                       Natural Population
                Natural  -----------------------------------------------
    Atom  No    Charge         Core      Valence    Rydberg      Total
 -----------------------------------------------------------------------
      C    1   -0.14893      0.99957     2.14051    0.00885     3.14893
      C    2   -0.02766      0.99958     2.01408    0.01400     3.02766
      N    3   -0.26848      0.99966     2.75771    0.01112     3.76848
      C    4    0.15655      0.99951     1.82752    0.01643     2.84345
      C    5   -0.16347      0.99949     2.15588    0.00810     3.16347
      N    6   -0.34132      0.99971     2.82915    0.01245     3.84132
      C    7   -0.08639      0.99960     2.07461    0.01217     3.08639
      C    8   -0.20575      0.99962     2.19767    0.00846     3.20575
      C    9   -0.19506      0.99962     2.18732    0.00811     3.19506
      C   10   -0.09074      0.99964     2.07901    0.01209     3.09074
      N   11   -0.42486      0.99977     2.91376    0.01133     3.92486
      H   12    0.10067      0.00000     0.39866    0.00067     0.39933
      H   13    0.10023      0.00000     0.39823    0.00154     0.39977
      H   14    0.20667      0.00000     0.28553    0.00780     0.29333
      H   15    0.10309      0.00000     0.39598    0.00093     0.39691
      H   16    0.18110      0.00000     0.31605    0.00285     0.31890
      H   17    0.09502      0.00000     0.40307    0.00191     0.40498
      H   18    0.09593      0.00000     0.40266    0.00140     0.40407
      H   19    0.09952      0.00000     0.39939    0.00110     0.40048
      H   20    0.10246      0.00000     0.39621    0.00133     0.39754
      H   21    0.09942      0.00000     0.39941    0.00117     0.40058
      H   22    0.09313      0.00000     0.40548    0.00140     0.40687
      H   23    0.09072      0.00000     0.40802    0.00126     0.40928
      H   24    0.07649      0.00000     0.42129    0.00222     0.42351
      H   25    0.17849      0.00000     0.31787    0.00364     0.32151
      H   26    0.17317      0.00000     0.32430    0.00254     0.32683
 =======================================================================
   * Total *   -0.00000     10.99578    30.84938    0.15485    42.00000

 Normal termination of Gaussian 16 at Tue Dec  8 19:30:31 2020.
