 Gaussian 16, Revision A.03,

 -----------------------------------------------------------
 # opt freq B3LYP/6-31G(d) empiricaldispersion=gd3bj scf=xqc
 -----------------------------------------------------------

 ------------------------------
 CID_79473112_JID_6004_neutraal
 ------------------------------
 Symbolic Z-matrix:
 Charge =  0 Multiplicity = 1

 SCF Done:  E(RB3LYP) =  -744.137083283     A.U. after   15 cycles
 SCF Done:  E(RB3LYP) =  -744.142433781     A.U. after   13 cycles
 SCF Done:  E(RB3LYP) =  -744.138893362     A.U. after   13 cycles
 SCF Done:  E(RB3LYP) =  -744.138217328     A.U. after   14 cycles
 SCF Done:  E(RB3LYP) =  -744.138818142     A.U. after   13 cycles
 SCF Done:  E(RB3LYP) =  -744.142813024     A.U. after   10 cycles
 SCF Done:  E(RB3LYP) =  -744.143499395     A.U. after   13 cycles
 SCF Done:  E(RB3LYP) =  -744.143989834     A.U. after   12 cycles
 SCF Done:  E(RB3LYP) =  -744.144129094     A.U. after   12 cycles
 SCF Done:  E(RB3LYP) =  -744.144386785     A.U. after   12 cycles
 SCF Done:  E(RB3LYP) =  -744.145318678     A.U. after   11 cycles
 SCF Done:  E(RB3LYP) =  -744.145320768     A.U. after   10 cycles
 SCF Done:  E(RB3LYP) =  -744.145321179     A.U. after    9 cycles
 SCF Done:  E(RB3LYP) =  -744.145321266     A.U. after    8 cycles
 Optimization completed.
    -- Stationary point found.
 Normal termination of Gaussian 16 at Thu Dec 10 21:16:45 2020.

 --------------------------------------------------------------------
 #N Geom=AllCheck Guess=TCheck SCRF=Check GenChk RB3LYP/6-31G(d) Freq
 --------------------------------------------------------------------

 Structure from the checkpoint file:  "JID_6004.chk"
 ------------------------------
 CID_79473112_JID_6004_neutraal
 ------------------------------
 Charge =  0 Multiplicity = 1

 SCF Done:  E(RB3LYP) =  -744.145321265     A.U. after    1 cycles

  Exact polarizability: 180.167  11.695 112.873   0.048 -14.189 116.260
 Approx polarizability: 233.214  25.589 178.602   0.178 -39.293 193.224

                      1                      2                      3
                      A                      A                      A
 Frequencies --     20.5111                35.8045                44.7678
 Red. masses --      4.1417                 4.8211                 5.3163
 Frc consts  --      0.0010                 0.0036                 0.0063
 IR Inten    --      0.2123                 2.7847                 0.4068

                      4                      5                      6
                      A                      A                      A
 Frequencies --     50.9079               102.9671               106.3475
 Red. masses --      5.9603                 2.3739                 1.6257
 Frc consts  --      0.0091                 0.0148                 0.0108
 IR Inten    --      1.7739                 4.3185                 0.6604

                      7                      8                      9
                      A                      A                      A
 Frequencies --    119.8433               149.0375               158.3282
 Red. masses --      1.9354                 3.5378                 4.0009
 Frc consts  --      0.0164                 0.0463                 0.0591
 IR Inten    --      0.4408                 0.1701                 9.0154

                     10                     11                     12
                      A                      A                      A
 Frequencies --    182.3672               225.9165               251.9162
 Red. masses --      3.8472                 3.0720                 4.2025
 Frc consts  --      0.0754                 0.0924                 0.1571
 IR Inten    --      1.4809                 3.7992                 1.5318

                     13                     14                     15
                      A                      A                      A
 Frequencies --    309.2908               328.2983               362.1202
 Red. masses --      2.7673                 1.2298                 3.2198
 Frc consts  --      0.1560                 0.0781                 0.2488
 IR Inten    --      4.1510                91.5420                16.2999

                     16                     17                     18
                      A                      A                      A
 Frequencies --    396.8797               404.4728               410.6545
 Red. masses --      4.0788                 2.5103                 2.9034
 Frc consts  --      0.3785                 0.2420                 0.2885
 IR Inten    --     17.7516                 7.8189                 2.1696

                     19                     20                     21
                      A                      A                      A
 Frequencies --    417.8928               465.3553               480.3871
 Red. masses --      2.5276                 2.8803                 3.2260
 Frc consts  --      0.2601                 0.3675                 0.4386
 IR Inten    --      3.5060                 1.0217                 4.4341

                     22                     23                     24
                      A                      A                      A
 Frequencies --    505.4711               581.4068               615.9506
 Red. masses --      2.7052                 4.8066                 5.6855
 Frc consts  --      0.4072                 0.9573                 1.2709
 IR Inten    --      2.3046                18.4227                 1.4946

                     25                     26                     27
                      A                      A                      A
 Frequencies --    645.0073               729.5996               736.2862
 Red. masses --      6.8940                 2.9096                 3.9270
 Frc consts  --      1.6898                 0.9125                 1.2543
 IR Inten    --      6.2478                21.1042                13.8099

                     28                     29                     30
                      A                      A                      A
 Frequencies --    781.0202               804.0358               820.7467
 Red. masses --      3.4836                 1.5976                 2.2844
 Frc consts  --      1.2520                 0.6085                 0.9067
 IR Inten    --     15.8288                 7.3553                21.1119

                     31                     32                     33
                      A                      A                      A
 Frequencies --    828.6523               882.5062               947.9051
 Red. masses --      4.5656                 1.4606                 1.6401
 Frc consts  --      1.8471                 0.6702                 0.8682
 IR Inten    --      6.9310               144.4401                11.8973

                     34                     35                     36
                      A                      A                      A
 Frequencies --    950.3116               955.7143               985.7228
 Red. masses --      1.7646                 1.4048                 1.9408
 Frc consts  --      0.9389                 0.7560                 1.1110
 IR Inten    --      6.5724                 0.8926                 6.5582

                     37                     38                     39
                      A                      A                      A
 Frequencies --    993.1058               996.5428              1024.5766
 Red. masses --      2.1822                 1.4199                 1.9463
 Frc consts  --      1.2681                 0.8308                 1.2038
 IR Inten    --     14.9804                 2.2564                 4.6243

                     40                     41                     42
                      A                      A                      A
 Frequencies --   1042.3860              1049.7330              1075.9600
 Red. masses --      3.4872                 2.1444                 2.6110
 Frc consts  --      2.2325                 1.3922                 1.7810
 IR Inten    --     16.2650                39.2962                 1.2983

                     43                     44                     45
                      A                      A                      A
 Frequencies --   1077.8853              1121.6681              1136.1493
 Red. masses --      2.0640                 2.4278                 2.8420
 Frc consts  --      1.4129                 1.7997                 2.1614
 IR Inten    --      7.6988                44.2982                97.0058

                     46                     47                     48
                      A                      A                      A
 Frequencies --   1153.2631              1161.7257              1167.9089
 Red. masses --      1.4223                 1.9269                 1.5127
 Frc consts  --      1.1145                 1.5322                 1.2157
 IR Inten    --      5.0992                11.6499                12.2600

                     49                     50                     51
                      A                      A                      A
 Frequencies --   1227.2817              1232.4115              1242.9484
 Red. masses --      2.3247                 1.2152                 1.6110
 Frc consts  --      2.0630                 1.0874                 1.4664
 IR Inten    --      3.0878                11.3374                 2.1204

                     52                     53                     54
                      A                      A                      A
 Frequencies --   1264.6106              1284.4528              1302.9657
 Red. masses --      1.5661                 1.4839                 5.2193
 Frc consts  --      1.4757                 1.4424                 5.2207
 IR Inten    --     39.6322                34.0807                 4.7007

                     55                     56                     57
                      A                      A                      A
 Frequencies --   1306.6965              1324.4803              1360.8415
 Red. masses --      1.8926                 1.3585                 1.1877
 Frc consts  --      1.9040                 1.4041                 1.2959
 IR Inten    --     14.6807                22.3281                13.7509

                     58                     59                     60
                      A                      A                      A
 Frequencies --   1373.9820              1392.8468              1407.1604
 Red. masses --      1.3914                 1.2493                 1.2945
 Frc consts  --      1.5476                 1.4280                 1.5102
 IR Inten    --      5.1647                 6.7238                 1.3188

                     61                     62                     63
                      A                      A                      A
 Frequencies --   1415.7069              1452.3660              1456.2319
 Red. masses --      1.2857                 1.3201                 1.4083
 Frc consts  --      1.5183                 1.6406                 1.7596
 IR Inten    --      8.1696                44.6750                 4.3155

                     64                     65                     66
                      A                      A                      A
 Frequencies --   1472.6378              1486.9342              1521.7574
 Red. masses --      2.2769                 1.8610                 1.0977
 Frc consts  --      2.9093                 2.4242                 1.4977
 IR Inten    --     93.5647                44.2473                 6.7069

                     67                     68                     69
                      A                      A                      A
 Frequencies --   1525.6442              1527.1247              1527.8652
 Red. masses --      1.1465                 1.1428                 1.6283
 Frc consts  --      1.5723                 1.5703                 2.2395
 IR Inten    --      0.6756                 2.2218                20.9889

                     70                     71                     72
                      A                      A                      A
 Frequencies --   1536.2254              1542.5750              1549.7750
 Red. masses --      1.1197                 1.0842                 1.2320
 Frc consts  --      1.5569                 1.5200                 1.7434
 IR Inten    --      1.3169                 6.1147                18.6149

                     73                     74                     75
                      A                      A                      A
 Frequencies --   1632.6786              1653.9830              1721.4959
 Red. masses --      5.1455                 5.4067                 1.2430
 Frc consts  --      8.0813                 8.7145                 2.1704
 IR Inten    --     17.0975                 3.4680               147.4908

                     76                     77                     78
                      A                      A                      A
 Frequencies --   1748.6204              2945.9731              3033.4242
 Red. masses --      4.4580                 1.0743                 1.0673
 Frc consts  --      8.0313                 5.4935                 5.7862
 IR Inten    --    241.2721                70.5279                32.9394

                     79                     80                     81
                      A                      A                      A
 Frequencies --   3047.0093              3052.1833              3059.1384
 Red. masses --      1.0543                 1.0540                 1.0880
 Frc consts  --      5.7670                 5.7849                 5.9990
 IR Inten    --     13.2014                63.1722                45.4722

                     82                     83                     84
                      A                      A                      A
 Frequencies --   3064.6874              3103.0964              3110.2687
 Red. masses --      1.0579                 1.1046                 1.1081
 Frc consts  --      5.8540                 6.2669                 6.3159
 IR Inten    --     13.9201                27.0678                24.9649

                     85                     86                     87
                      A                      A                      A
 Frequencies --   3121.9575              3128.0503              3175.3932
 Red. masses --      1.0974                 1.0927                 1.0871
 Frc consts  --      6.3021                 6.2993                 6.4583
 IR Inten    --     39.7620                22.9787                18.6258

                     88                     89                     90
                      A                      A                      A
 Frequencies --   3178.5828              3180.5439              3196.7218
 Red. masses --      1.0894                 1.0917                 1.0977
 Frc consts  --      6.4848                 6.5064                 6.6092
 IR Inten    --     18.2638                17.2709                 0.7282

                     91                     92                     93
                      A                      A                      A
 Frequencies --   3212.5903              3463.7586              3556.0519
 Red. masses --      1.0960                 1.0513                 1.0929
 Frc consts  --      6.6646                 7.4314                 8.1427
 IR Inten    --     21.9885                61.5973                20.9363

 - Thermochemistry -
 -------------------
 Temperature   298.150 Kelvin.  Pressure   1.00000 Atm.
 Atom     1 has atomic number  6 and mass  12.00000

 Molecular mass:   223.13208 amu.
 Principal axes and moments of inertia in atomic units:
                           1         2         3
     Eigenvalues --  1541.986136928.423447338.52645
           X            0.99998  -0.00280  -0.00610
           Y            0.00295   0.99968   0.02527
           Z            0.00603  -0.02528   0.99966
 This molecule is an asymmetric top.
 Rotational symmetry number  1.
 Warning -- assumption of classical behavior for rotation
           may cause significant error
 Rotational temperatures (Kelvin)      0.05617     0.01250     0.01180
 Rotational constants (GHZ):           1.17040     0.26048     0.24593
 Zero-point vibrational energy     741188.5 (Joules/Mol)
                                  177.14830 (Kcal/Mol)
 Warning -- explicit consideration of  24 degrees of freedom as
           vibrations may cause significant error
 Vibrational temperatures:     29.51    51.51    64.41    73.25   148.15
          (Kelvin)            153.01   172.43   214.43   227.80   262.39
                              325.04   362.45   445.00   472.35   521.01
                              571.02   581.95   590.84   601.25   669.54
                              691.17   727.26   836.51   886.22   928.02
                             1049.73  1059.35  1123.71  1156.83  1180.87
                             1192.25  1269.73  1363.82  1367.29  1375.06
                             1418.24  1428.86  1433.80  1474.14  1499.76
                             1510.33  1548.07  1550.84  1613.83  1634.67
                             1659.29  1671.46  1680.36  1765.78  1773.17
                             1788.33  1819.49  1848.04  1874.68  1880.04
                             1905.63  1957.95  1976.85  2004.00  2024.59
                             2036.89  2089.63  2095.19  2118.80  2139.37
                             2189.47  2195.06  2197.19  2198.26  2210.29
                             2219.42  2229.78  2349.06  2379.71  2476.85
                             2515.87  4238.60  4364.42  4383.97  4391.41
                             4401.42  4409.40  4464.66  4474.98  4491.80
                             4500.57  4568.68  4573.27  4576.09  4599.37
                             4622.20  4983.58  5116.37

 Zero-point correction=                           0.282304 (Hartree/Particle)
 Thermal correction to Energy=                    0.298380
 Thermal correction to Enthalpy=                  0.299324
 Thermal correction to Gibbs Free Energy=         0.236670
 Sum of electronic and zero-point Energies=           -743.863017
 Sum of electronic and thermal Energies=              -743.846942
 Sum of electronic and thermal Enthalpies=            -743.845998
 Sum of electronic and thermal Free Energies=         -743.908651

                     E (Thermal)             CV                S
                      KCal/Mol        Cal/Mol-Kelvin    Cal/Mol-Kelvin
 Total                  187.236             59.135            131.865
 Electronic               0.000              0.000              0.000
 Translational            0.889              2.981             42.110
 Rotational               0.889              2.981             32.728
 Vibrational            185.459             53.173             57.027
 Vibration     1          0.593              1.986              6.584
 Vibration     2          0.594              1.982              5.479
 Vibration     3          0.595              1.979              5.036
 Vibration     4          0.595              1.977              4.782
 Vibration     5          0.605              1.947              3.397
 Vibration     6          0.605              1.944              3.335
 Vibration     7          0.609              1.933              3.103
 Vibration     8          0.618              1.904              2.684
 Vibration     9          0.621              1.893              2.570
 Vibration    10          0.630              1.864              2.304
 Vibration    11          0.650              1.802              1.911
 Vibration    12          0.664              1.760              1.717
 Vibration    13          0.699              1.656              1.366
 Vibration    14          0.712              1.619              1.268
 Vibration    15          0.736              1.550              1.113
 Vibration    16          0.763              1.477              0.974
 Vibration    17          0.770              1.460              0.946
 Vibration    18          0.775              1.447              0.924
 Vibration    19          0.781              1.431              0.899
 Vibration    20          0.823              1.327              0.751
 Vibration    21          0.837              1.294              0.709
 Vibration    22          0.861              1.238              0.645
 Vibration    23          0.938              1.072              0.483
 Vibration    24          0.976              0.998              0.423

                           ! Non-Optimized Parameters !
 Normal termination of Gaussian 16 at Thu Dec 10 21:27:21 2020.

 ----------------------------------------------------------------------
 # B3LYP/6-311++G(d,p) empiricaldispersion=gd3bj scf=xqc pop=npa geom=c
 heck
 ----------------------------------------------------------------------

 --------------------------------------
 CID_79473112_JID_6004_Energie_neutraal
 --------------------------------------
 Structure from the checkpoint file:  "JID_6004.chk"
 Charge =  0 Multiplicity = 1

 SCF Done:  E(RB3LYP) =  -744.361237432     A.U. after   16 cycles
 Normal termination of Gaussian 16 at Thu Dec 10 21:31:58 2020.

 ----------------------------------------------------------------------
 # B3LYP/6-311++G(d,p) empiricaldispersion=gd3bj scf=xqc pop=npa geom=c
 heck
 ----------------------------------------------------------------------

 ------------------------------------
 CID_79473112_JID_6004_Energie_kation
 ------------------------------------
 Structure from the checkpoint file:  "JID_6004.chk"
 Charge =  1 Multiplicity = 2

 SCF Done:  E(UB3LYP) =  -744.054214147     A.U. after   33 cycles
 SCF Done:  E(UB3LYP) =  -744.054214148     a.u. after    1 cycles
 Normal termination of Gaussian 16 at Thu Dec 10 21:46:49 2020.
 Gaussian 16:  ES64L-G16RevA.03 25-Dec-2016

 ----------------------------------------------------------------------
 # B3LYP/6-311++G(d,p) empiricaldispersion=gd3bj scf=xqc pop=npa geom=c
 heck
 ----------------------------------------------------------------------

 -----------------------------------
 CID_79473112_JID_6004_Energie_anion
 -----------------------------------
 Structure from the checkpoint file:  "JID_6004.chk"
 Charge = -1 Multiplicity = 2

                         Standard orientation:
 ---------------------------------------------------------------------
 Center     Atomic      Atomic             Coordinates (Angstroms)
 Number     Number       Type             X           Y           Z
 ---------------------------------------------------------------------
      1          6           0       -0.146555    2.078233    1.418256
      2          7           0        0.163040    0.828229    0.735225
      3          6           0       -0.687962   -0.313128    1.043586
      4          6           0       -2.057745   -0.263526    0.390914
      5          6           0       -2.309927    0.486561   -0.762370
      6          7           0       -3.490600    0.524891   -1.392854
      7          6           0       -4.486223   -0.204938   -0.879827
      8          6           0       -4.351273   -0.985691    0.269846
      9          6           0       -3.118044   -1.009712    0.913205
     10          6           0        1.080711    0.832997   -0.277049
     11          8           0        1.691787    1.846937   -0.616361
     12          6           0        1.353211   -0.489975   -1.012597
     13          8           0        1.764516   -1.567546   -0.193217
     14          6           0        2.955793   -1.339291    0.572629
     15          6           0        4.197101   -0.979465   -0.257613
     16          7           0        4.471636    0.457342   -0.228802
     17          1           0       -0.104656    1.926080    2.502514
     18          1           0       -1.150625    2.429250    1.151002
     19          1           0        0.588315    2.823196    1.118012
     20          1           0       -0.159512   -1.225709    0.759231
     21          1           0       -0.808723   -0.356047    2.133431
     22          1           0       -1.522629    1.099728   -1.196236
     23          1           0       -5.436022   -0.160789   -1.409417
     24          1           0       -5.194168   -1.554161    0.650770
     25          1           0       -2.975812   -1.602392    1.814408
     26          1           0        0.444016   -0.831452   -1.519531
     27          1           0        2.099107   -0.251378   -1.778451
     28          1           0        2.788629   -0.552009    1.321693
     29          1           0        3.104471   -2.286572    1.096967
     30          1           0        5.063246   -1.485961    0.186258
     31          1           0        4.063540   -1.423958   -1.262016
     32          1           0        5.279230    0.670169   -0.810274
     33          1           0        3.688116    1.001256   -0.590593
 ---------------------------------------------------------------------

 SCF Done:  E(UB3LYP) =  -744.354307753     A.U. after   33 cycles
 SCF Done:  E(UB3LYP) =  -744.354307753     a.u. after    1 cycles

 The electronic state is 2-A.
 Alpha  occ. eigenvalues --  -19.04339 -19.00155 -14.25573 -14.19507 -14.18145
 Alpha  occ. eigenvalues --  -10.18145 -10.13582 -10.12482 -10.11010 -10.10396
 Alpha  occ. eigenvalues --  -10.10252 -10.08647 -10.08558 -10.07399 -10.06469
 Alpha  occ. eigenvalues --  -10.06139  -0.96122  -0.94338  -0.85001  -0.82256
 Alpha  occ. eigenvalues --   -0.78670  -0.69924  -0.66781  -0.65917  -0.62681
 Alpha  occ. eigenvalues --   -0.60569  -0.58226  -0.51810  -0.51595  -0.50371
 Alpha  occ. eigenvalues --   -0.45460  -0.42472  -0.42108  -0.41500  -0.40108
 Alpha  occ. eigenvalues --   -0.39085  -0.37219  -0.36106  -0.35368  -0.35207
 Alpha  occ. eigenvalues --   -0.34157  -0.33078  -0.31928  -0.31741  -0.30905
 Alpha  occ. eigenvalues --   -0.29792  -0.29486  -0.28469  -0.27647  -0.27525
 Alpha  occ. eigenvalues --   -0.27498  -0.25487  -0.24093  -0.19221  -0.17476
 Alpha  occ. eigenvalues --   -0.16390  -0.16104  -0.14796  -0.14578  -0.13930
 Alpha  occ. eigenvalues --    0.04378
 Alpha virt. eigenvalues --    0.05804   0.06815   0.07582   0.07774   0.08289
 Alpha virt. eigenvalues --    0.08883   0.09241   0.09386   0.09919   0.10360
 Alpha virt. eigenvalues --    0.10872   0.11357   0.12274   0.12608   0.13386

  Beta  occ. eigenvalues --  -19.04339 -19.00149 -14.25574 -14.19498 -14.17849
  Beta  occ. eigenvalues --  -10.18140 -10.13570 -10.12469 -10.10993 -10.10386
  Beta  occ. eigenvalues --  -10.10231 -10.08620 -10.08521 -10.07392 -10.06447
  Beta  occ. eigenvalues --  -10.05899  -0.96114  -0.94331  -0.84983  -0.81869
  Beta  occ. eigenvalues --   -0.78647  -0.69626  -0.66751  -0.65716  -0.62646
  Beta  occ. eigenvalues --   -0.60470  -0.58182  -0.51636  -0.51376  -0.50210
  Beta  occ. eigenvalues --   -0.45422  -0.42449  -0.42053  -0.41427  -0.40013
  Beta  occ. eigenvalues --   -0.39047  -0.37144  -0.36038  -0.35305  -0.35170
  Beta  occ. eigenvalues --   -0.34078  -0.33045  -0.31878  -0.31635  -0.30827
  Beta  occ. eigenvalues --   -0.29757  -0.29413  -0.28288  -0.27600  -0.27477
  Beta  occ. eigenvalues --   -0.26852  -0.25394  -0.24074  -0.19184  -0.16472
  Beta  occ. eigenvalues --   -0.16217  -0.15964  -0.14692  -0.14184  -0.13630
  Beta virt. eigenvalues --    0.06438   0.07128   0.07862   0.07929   0.08534
  Beta virt. eigenvalues --    0.08649   0.09183   0.09409   0.09511   0.10141
  Beta virt. eigenvalues --    0.10669   0.11055   0.11531   0.12223   0.12596

 Mulliken charges and spin densities:
               1          2
     1  C    0.042824  -0.281338
     2  N    0.272105   0.039988
     3  C   -0.484999  -1.195010
     4  C    1.116707   0.304214
     5  C   -0.950575   0.194700
     6  N   -0.039978   0.148298
     7  C   -0.134625  -0.155237
     8  C    0.470046  -0.617168
     9  C   -0.684845   0.722212
    10  C   -0.066222   0.064261
    11  O   -0.294617   0.008889
    12  C   -0.198304  -0.411896
    13  O   -0.052672   0.027646
    14  C   -0.394941   0.143910
    15  C    0.593233  -0.988950
    16  N   -0.404431   0.058760
    17  H   -0.070060   0.233310
    18  H    0.125170   0.035674
    19  H    0.169208   0.011561
    20  H    0.322307  -0.075451
    21  H   -0.334573   0.500720
    22  H    0.266091  -0.025419
    23  H    0.119401   0.032172
    24  H   -0.090428   0.238371
    25  H   -0.476516   0.633996
    26  H    0.106523   0.086354
    27  H    0.170409   0.034341
    28  H    0.269547  -0.080016
    29  H   -0.311174   0.473976
    30  H   -0.376863   0.548646
    31  H   -0.024920   0.157677
    32  H    0.105189   0.115273
    33  H    0.241984   0.015539
 Sum of Mulliken charges =  -1.00000   1.00000

 Dipole moment (field-independent basis, Debye):
    X=              0.4371    Y=              1.2723    Z=             -1.5625  Tot=              2.0618
 Quadrupole moment (field-independent basis, Debye-Ang):
   XX=           -179.9622   YY=           -128.7031   ZZ=           -130.7658
   XY=              3.1751   XZ=             -3.9856   YZ=              6.1847

 Summary of Natural Population Analysis:

                                       Natural Population
                Natural  -----------------------------------------------
    Atom  No    Charge         Core      Valence    Rydberg      Total
 -----------------------------------------------------------------------
      C    1   -0.18241      0.99963     2.17520    0.00758     3.18241
      N    2   -0.24571      0.99964     2.73570    0.01037     3.74571
      C    3   -0.09697      0.99956     2.08531    0.01210     3.09697
      C    4   -0.04491      0.99949     2.03597    0.00945     3.04491
      C    5    0.02166      0.99953     1.96535    0.01346     2.97834
      N    6   -0.20027      0.99971     2.68824    0.01232     3.70027
      C    7    0.02158      0.99960     1.96454    0.01428     2.97842
      C    8   -0.12091      0.99956     2.11117    0.01017     3.12091
      C    9   -0.04635      0.99952     2.03676    0.01008     3.04635
      C   10    0.33082      0.99964     1.64716    0.02238     2.66918
      O   11   -0.33387      0.99988     3.32853    0.00546     4.33387
      C   12   -0.05485      0.99954     2.04383    0.01148     3.05485
      O   13   -0.29749      0.99989     3.28870    0.00891     4.29749
      C   14   -0.01811      0.99957     2.00502    0.01353     3.01811
      C   15   -0.10981      0.99964     2.09920    0.01097     3.10981
      N   16   -0.43219      0.99977     2.92116    0.01126     3.93219
      H   17    0.09607      0.00000     0.40309    0.00085     0.40393
      H   18    0.09821      0.00000     0.40087    0.00091     0.40179
      H   19    0.11312      0.00000     0.38594    0.00093     0.38688
      H   20    0.11870      0.00000     0.37937    0.00193     0.38130
      H   21    0.10451      0.00000     0.39300    0.00250     0.39549
      H   22    0.08644      0.00000     0.41151    0.00205     0.41356
      H   23    0.08341      0.00000     0.41541    0.00118     0.41659
      H   24    0.09839      0.00000     0.40073    0.00088     0.40161
      H   25    0.09775      0.00000     0.40096    0.00130     0.40225
      H   26    0.10568      0.00000     0.39308    0.00124     0.39432
      H   27    0.09201      0.00000     0.40656    0.00143     0.40799
      H   28    0.08535      0.00000     0.41286    0.00179     0.41465
      H   29    0.09471      0.00000     0.40384    0.00144     0.40529
      H   30    0.09508      0.00000     0.40312    0.00180     0.40492
      H   31    0.08122      0.00000     0.41722    0.00156     0.41878
      H   32    0.17218      0.00000     0.32644    0.00137     0.32782
      H   33    0.18697      0.00000     0.31060    0.00243     0.31303
 =======================================================================
   * Total *   -0.00000     15.99416    43.79643    0.20941    60.00000

 Normal termination of Gaussian 16 at Thu Dec 10 22:01:09 2020.
