 Gaussian 16, Revision A.03,

 -----------------------------------------------------------
 # opt freq B3LYP/6-31G(d) empiricaldispersion=gd3bj scf=xqc
 -----------------------------------------------------------

 -------------------------------
 CID_131594239_JID_5723_neutraal
 -------------------------------
 Symbolic Z-matrix:
 Charge =  0 Multiplicity = 1

 SCF Done:  E(RB3LYP) =  -661.304022213     A.U. after   16 cycles
 SCF Done:  E(RB3LYP) =  -661.380285128     A.U. after   16 cycles
 SCF Done:  E(RB3LYP) =  -661.409413333     A.U. after   15 cycles
 SCF Done:  E(RB3LYP) =  -661.443725437     A.U. after   13 cycles
 SCF Done:  E(RB3LYP) =  -661.454904810     A.U. after   14 cycles
 SCF Done:  E(RB3LYP) =  -661.459782390     A.U. after   14 cycles
 SCF Done:  E(RB3LYP) =  -661.460359965     A.U. after   14 cycles
 SCF Done:  E(RB3LYP) =  -661.462814552     A.U. after   13 cycles
 SCF Done:  E(RB3LYP) =  -661.463478767     A.U. after   12 cycles
 SCF Done:  E(RB3LYP) =  -661.463748477     A.U. after   12 cycles
 SCF Done:  E(RB3LYP) =  -661.468439680     A.U. after   10 cycles
 SCF Done:  E(RB3LYP) =  -661.468446660     A.U. after   10 cycles
 SCF Done:  E(RB3LYP) =  -661.468449608     A.U. after   10 cycles
 SCF Done:  E(RB3LYP) =  -661.468450930     A.U. after    9 cycles
 SCF Done:  E(RB3LYP) =  -661.468451209     A.U. after    8 cycles
 SCF Done:  E(RB3LYP) =  -661.468451300     A.U. after    8 cycles
 Optimization completed.
    -- Stationary point found.
 Normal termination of Gaussian 16 at Thu Dec 10 16:47:57 2020.

 --------------------------------------------------------------------
 #N Geom=AllCheck Guess=TCheck SCRF=Check GenChk RB3LYP/6-31G(d) Freq
 --------------------------------------------------------------------

 Structure from the checkpoint file:  "JID_5723.chk"
 -------------------------------
 CID_131594239_JID_5723_neutraal
 -------------------------------
 Charge =  0 Multiplicity = 1

 SCF Done:  E(RB3LYP) =  -661.468451300     A.U. after    1 cycles

  Exact polarizability: 162.088   4.563 148.445  13.027  -0.004  80.646
 Approx polarizability: 246.875  13.676 251.665  31.145  -4.296 132.559

                      1                      2                      3
                      A                      A                      A
 Frequencies --     34.1287                49.0688                74.8519
 Red. masses --      7.2139                 6.9426                 1.6451
 Frc consts  --      0.0050                 0.0098                 0.0054
 IR Inten    --      3.5040                 1.6420                 1.5421

                      4                      5                      6
                      A                      A                      A
 Frequencies --     90.9299               143.6458               160.0831
 Red. masses --      1.7903                 2.5872                 2.1377
 Frc consts  --      0.0087                 0.0315                 0.0323
 IR Inten    --      0.6701                 4.8643                 3.9951

                      7                      8                      9
                      A                      A                      A
 Frequencies --    188.1754               197.4167               231.4276
 Red. masses --      1.4880                 5.1093                 2.8465
 Frc consts  --      0.0310                 0.1173                 0.0898
 IR Inten    --      2.5903                 5.2930                 0.7103

                     10                     11                     12
                      A                      A                      A
 Frequencies --    236.0637               270.7817               304.5191
 Red. masses --      5.7232                 2.5685                 5.2485
 Frc consts  --      0.1879                 0.1110                 0.2868
 IR Inten    --      3.1264                 4.5042                 3.6093

                     13                     14                     15
                      A                      A                      A
 Frequencies --    346.9109               357.9959               403.7482
 Red. masses --      4.2586                 3.4921                 3.1476
 Frc consts  --      0.3020                 0.2637                 0.3023
 IR Inten    --      0.1482                 1.5238                 3.7984

                     16                     17                     18
                      A                      A                      A
 Frequencies --    491.4508               553.1983               566.4214
 Red. masses --      5.9107                 5.4785                 4.9230
 Frc consts  --      0.8411                 0.9878                 0.9306
 IR Inten    --      7.2583                 0.9189                13.4398

                     19                     20                     21
                      A                      A                      A
 Frequencies --    578.8271               611.0932               617.7011
 Red. masses --      4.9007                 4.3990                 4.4817
 Frc consts  --      0.9674                 0.9679                 1.0075
 IR Inten    --      5.5199                 4.0387                 4.2917

                     22                     23                     24
                      A                      A                      A
 Frequencies --    657.6286               684.5288               703.9916
 Red. masses --      5.8147                 4.6796                 6.0797
 Frc consts  --      1.4816                 1.2919                 1.7753
 IR Inten    --      0.0304                13.8870                13.9567

                     25                     26                     27
                      A                      A                      A
 Frequencies --    781.6796               797.5537               827.8633
 Red. masses --      1.6589                 4.2118                 3.7568
 Frc consts  --      0.5972                 1.5785                 1.5170
 IR Inten    --     59.8268                 9.3277                 9.4890

                     28                     29                     30
                      A                      A                      A
 Frequencies --    834.7571               913.0796               945.1843
 Red. masses --      1.8218                 4.9505                 3.2205
 Frc consts  --      0.7479                 2.4317                 1.6951
 IR Inten    --     59.3540                36.2181                 8.8324

                     31                     32                     33
                      A                      A                      A
 Frequencies --    961.2385              1020.2510              1024.4310
 Red. masses --      1.3692                 2.7898                 1.6650
 Frc consts  --      0.7454                 1.7109                 1.0295
 IR Inten    --      0.8817                 8.7455                 1.8321

                     34                     35                     36
                      A                      A                      A
 Frequencies --   1075.0805              1080.3202              1098.4411
 Red. masses --      1.5389                 2.9059                 2.5985
 Frc consts  --      1.0479                 1.9982                 1.8472
 IR Inten    --      4.9056                24.9074                23.3513

                     37                     38                     39
                      A                      A                      A
 Frequencies --   1112.0049              1163.6631              1166.1800
 Red. masses --      2.2737                 2.5557                 1.3031
 Frc consts  --      1.6565                 2.0390                 1.0442
 IR Inten    --     15.6787                26.9128                 0.6009

                     40                     41                     42
                      A                      A                      A
 Frequencies --   1233.5412              1286.0894              1292.5456
 Red. masses --      2.5442                 1.4103                 2.9882
 Frc consts  --      2.2809                 1.3744                 2.9414
 IR Inten    --      4.3798                 9.3690                90.3147

                     43                     44                     45
                      A                      A                      A
 Frequencies --   1313.4154              1362.2141              1382.3459
 Red. masses --      2.3681                 2.8517                 1.3132
 Frc consts  --      2.4069                 3.1178                 1.4784
 IR Inten    --      7.7568                32.8856                 5.8489

                     46                     47                     48
                      A                      A                      A
 Frequencies --   1405.9811              1412.6882              1443.8336
 Red. masses --      2.7829                 2.9457                 1.5013
 Frc consts  --      3.2412                 3.4636                 1.8440
 IR Inten    --     13.5643                32.6900                11.2578

                     49                     50                     51
                      A                      A                      A
 Frequencies --   1464.6129              1485.0121              1493.7566
 Red. masses --      1.4583                 1.3506                 1.7691
 Frc consts  --      1.8431                 1.7548                 2.3257
 IR Inten    --     11.7454                13.8372                 5.5240

                     52                     53                     54
                      A                      A                      A
 Frequencies --   1510.1125              1513.7523              1520.0491
 Red. masses --      1.2460                 1.0438                 1.2929
 Frc consts  --      1.6741                 1.4092                 1.7600
 IR Inten    --      3.4767                 6.3004                14.4284

                     55                     56                     57
                      A                      A                      A
 Frequencies --   1522.4873              1538.4571              1546.1067
 Red. masses --      1.3689                 1.4562                 2.2404
 Frc consts  --      1.8696                 2.0307                 3.1553
 IR Inten    --     82.4014                 9.5780                 6.8740

                     58                     59                     60
                      A                      A                      A
 Frequencies --   1567.9103              1623.9682              1655.2487
 Red. masses --      2.6183                 6.6739                 5.3498
 Frc consts  --      3.7924                10.3702                 8.6360
 IR Inten    --     42.7644               173.5921                82.1614

                     61                     62                     63
                      A                      A                      A
 Frequencies --   2364.4277              3037.9041              3070.0614
 Red. masses --     12.5662                 1.0476                 1.0333
 Frc consts  --     41.3911                 5.6965                 5.7380
 IR Inten    --      1.0473                33.7169                59.5722

                     64                     65                     66
                      A                      A                      A
 Frequencies --   3091.9278              3105.4703              3133.8843
 Red. masses --      1.0684                 1.0883                 1.1064
 Frc consts  --      6.0181                 6.1840                 6.4024
 IR Inten    --     12.9996                13.7307                18.1989

                     67                     68                     69
                      A                      A                      A
 Frequencies --   3149.0970              3169.7218              3178.4418
 Red. masses --      1.1022                 1.0946                 1.0887
 Frc consts  --      6.4399                 6.4794                 6.4802
 IR Inten    --      8.5864                 0.9492                22.5637

                     70                     71                     72
                      A                      A                      A
 Frequencies --   3180.3608              3202.4727              3527.5575
 Red. masses --      1.1030                 1.0935                 1.0744
 Frc consts  --      6.5730                 6.6074                 7.8772
 IR Inten    --      1.2617                15.6866                 6.3525

 - Thermochemistry -
 -------------------
 Temperature   298.150 Kelvin.  Pressure   1.00000 Atm.
 Atom     1 has atomic number  6 and mass  12.00000

 Molecular mass:   201.10145 amu.
 Principal axes and moments of inertia in atomic units:
                           1         2         3
     Eigenvalues --  1874.933953823.947954913.73914
           X            0.99972  -0.01298   0.01981
           Y            0.01303   0.99991  -0.00232
           Z           -0.01978   0.00258   0.99980
 This molecule is an asymmetric top.
 Rotational symmetry number  1.
 Warning -- assumption of classical behavior for rotation
           may cause significant error
 Rotational temperatures (Kelvin)      0.04620     0.02265     0.01763
 Rotational constants (GHZ):           0.96256     0.47196     0.36728
 Zero-point vibrational energy     545148.9 (Joules/Mol)
                                  130.29370 (Kcal/Mol)
 Warning -- explicit consideration of  21 degrees of freedom as
           vibrations may cause significant error
 Vibrational temperatures:     49.10    70.60   107.70   130.83   206.67
          (Kelvin)            230.32   270.74   284.04   332.97   339.64
                              389.59   438.14   499.13   515.08   580.90
                              707.09   795.93   814.95   832.80   879.23
                              888.73   946.18   984.88  1012.89  1124.66
                             1147.50  1191.11  1201.03  1313.72  1359.91
                             1383.01  1467.91  1473.93  1546.80  1554.34
                             1580.41  1599.93  1674.25  1677.87  1774.79
                             1850.40  1859.68  1889.71  1959.92  1988.89
                             2022.89  2032.54  2077.35  2107.25  2136.60
                             2149.18  2172.72  2177.95  2187.01  2190.52
                             2213.50  2224.50  2255.87  2336.53  2381.53
                             3401.88  4370.87  4417.13  4448.59  4468.08
                             4508.96  4530.85  4560.52  4573.07  4575.83
                             4607.64  5075.37

 Zero-point correction=                           0.207636 (Hartree/Particle)
 Thermal correction to Energy=                    0.221274
 Thermal correction to Enthalpy=                  0.222218
 Thermal correction to Gibbs Free Energy=         0.166371
 Sum of electronic and zero-point Energies=           -661.260815
 Sum of electronic and thermal Energies=              -661.247177
 Sum of electronic and thermal Enthalpies=            -661.246233
 Sum of electronic and thermal Free Energies=         -661.302081

                     E (Thermal)             CV                S
                      KCal/Mol        Cal/Mol-Kelvin    Cal/Mol-Kelvin
 Total                  138.852             50.261            117.542
 Electronic               0.000              0.000              0.000
 Translational            0.889              2.981             41.801
 Rotational               0.889              2.981             31.933
 Vibrational            137.074             44.299             43.809
 Vibration     1          0.594              1.983              5.574
 Vibration     2          0.595              1.978              4.855
 Vibration     3          0.599              1.966              4.022
 Vibration     4          0.602              1.956              3.640
 Vibration     5          0.616              1.910              2.755
 Vibration     6          0.622              1.891              2.549
 Vibration     7          0.633              1.856              2.246
 Vibration     8          0.637              1.843              2.157
 Vibration     9          0.653              1.793              1.868
 Vibration    10          0.655              1.786              1.832
 Vibration    11          0.674              1.727              1.591
 Vibration    12          0.695              1.665              1.392
 Vibration    13          0.725              1.582              1.180
 Vibration    14          0.733              1.559              1.131
 Vibration    15          0.769              1.462              0.949
 Vibration    16          0.847              1.269              0.680
 Vibration    17          0.909              1.133              0.538
 Vibration    18          0.922              1.104              0.511
 Vibration    19          0.935              1.077              0.488
 Vibration    20          0.970              1.008              0.431
 Vibration    21          0.977              0.994              0.420

                           ! Non-Optimized Parameters !
 Normal termination of Gaussian 16 at Thu Dec 10 16:55:47 2020.

 ----------------------------------------------------------------------
 # B3LYP/6-311++G(d,p) empiricaldispersion=gd3bj scf=xqc pop=npa geom=c
 heck
 ----------------------------------------------------------------------

 ---------------------------------------
 CID_131594239_JID_5723_Energie_neutraal
 ---------------------------------------
 Structure from the checkpoint file:  "JID_5723.chk"
 Charge =  0 Multiplicity = 1

 SCF Done:  E(RB3LYP) =  -661.643146115     A.U. after   15 cycles
 Normal termination of Gaussian 16 at Thu Dec 10 16:58:59 2020.

 ----------------------------------------------------------------------
 # B3LYP/6-311++G(d,p) empiricaldispersion=gd3bj scf=xqc pop=npa geom=c
 heck
 ----------------------------------------------------------------------

 -------------------------------------
 CID_131594239_JID_5723_Energie_kation
 -------------------------------------
 Structure from the checkpoint file:  "JID_5723.chk"
 Charge =  1 Multiplicity = 2

 SCF Done:  E(UB3LYP) =  -661.347646856     A.U. after   24 cycles
 Normal termination of Gaussian 16 at Thu Dec 10 17:07:42 2020.
 Gaussian 16:  ES64L-G16RevA.03 25-Dec-2016

 ----------------------------------------------------------------------
 # B3LYP/6-311++G(d,p) empiricaldispersion=gd3bj scf=xqc pop=npa geom=c
 heck
 ----------------------------------------------------------------------

 ------------------------------------
 CID_131594239_JID_5723_Energie_anion
 ------------------------------------
 Structure from the checkpoint file:  "JID_5723.chk"
 Charge = -1 Multiplicity = 2

                         Standard orientation:
 ---------------------------------------------------------------------
 Center     Atomic      Atomic             Coordinates (Angstroms)
 Number     Number       Type             X           Y           Z
 ---------------------------------------------------------------------
      1          6           0       -0.128801   -2.820209    0.471584
      2          6           0       -0.810536   -1.519370    0.178382
      3          7           0       -2.074382   -1.515028   -0.227319
      4          7           0       -2.448023   -0.215150   -0.375151
      5          6           0       -1.436805    0.637227   -0.046752
      6          7           0       -1.517758    1.974625   -0.019794
      7          6           0       -0.403948    2.566503    0.405170
      8          6           0        0.775458    1.890637    0.775357
      9          6           0        0.842675    0.499243    0.720824
     10          6           0       -0.326149   -0.175799    0.306333
     11          7           0        2.010184   -0.198309    1.098633
     12          6           0        2.686891   -0.963729    0.048809
     13          6           0        3.325620   -0.106508   -0.971892
     14          7           0        3.823312    0.616074   -1.731528
     15          6           0       -3.792529    0.132449   -0.778553
     16          1           0       -0.881435   -3.591965    0.651707
     17          1           0        0.513310   -2.735979    1.353989
     18          1           0        0.493092   -3.163199   -0.366304
     19          1           0       -0.425280    3.653619    0.444777
     20          1           0        1.646942    2.465645    1.073982
     21          1           0        2.670340    0.433637    1.543950
     22          1           0        3.450354   -1.601347    0.506094
     23          1           0        1.967044   -1.619091   -0.441960
     24          1           0       -3.856009    1.221262   -0.798546
     25          1           0       -4.005650   -0.271186   -1.772631
     26          1           0       -4.517293   -0.269544   -0.064515
 ---------------------------------------------------------------------

 SCF Done:  E(UB3LYP) =  -661.646973989     A.U. after   28 cycles

 The electronic state is 2-A.
 Alpha  occ. eigenvalues --  -14.25137 -14.21564 -14.20582 -14.19371 -14.16184
 Alpha  occ. eigenvalues --  -10.13184 -10.10269 -10.10192 -10.09853 -10.07802
 Alpha  occ. eigenvalues --  -10.07207 -10.06666 -10.05715 -10.04185 -10.03942
 Alpha  occ. eigenvalues --   -0.92084  -0.83298  -0.80454  -0.79552  -0.72916
 Alpha  occ. eigenvalues --   -0.66938  -0.64304  -0.62612  -0.60918  -0.56038
 Alpha  occ. eigenvalues --   -0.51164  -0.49494  -0.44748  -0.42757  -0.40411
 Alpha  occ. eigenvalues --   -0.38733  -0.38172  -0.36296  -0.34958  -0.33664
 Alpha  occ. eigenvalues --   -0.31838  -0.31551  -0.31014  -0.29753  -0.28360
 Alpha  occ. eigenvalues --   -0.27668  -0.26868  -0.26726  -0.25586  -0.23579
 Alpha  occ. eigenvalues --   -0.23317  -0.22426  -0.20193  -0.16892  -0.14087
 Alpha  occ. eigenvalues --   -0.13571  -0.12004  -0.09512   0.04297
 Alpha virt. eigenvalues --    0.07087   0.08113   0.08702   0.09680   0.10131
 Alpha virt. eigenvalues --    0.10838   0.11328   0.12205   0.12606   0.12834
 Alpha virt. eigenvalues --    0.13174   0.13327   0.13651   0.14272   0.15079

  Beta  occ. eigenvalues --  -14.25115 -14.21559 -14.20555 -14.19081 -14.15895
  Beta  occ. eigenvalues --  -10.13082 -10.10258 -10.10231 -10.09854 -10.07409
  Beta  occ. eigenvalues --  -10.07160 -10.06493 -10.05710 -10.04171 -10.04011
  Beta  occ. eigenvalues --   -0.91865  -0.83061  -0.80088  -0.79399  -0.72747
  Beta  occ. eigenvalues --   -0.66536  -0.64077  -0.62535  -0.60757  -0.55947
  Beta  occ. eigenvalues --   -0.50711  -0.49359  -0.44598  -0.42613  -0.40306
  Beta  occ. eigenvalues --   -0.38564  -0.37966  -0.36053  -0.34716  -0.33527
  Beta  occ. eigenvalues --   -0.31764  -0.31448  -0.30916  -0.29621  -0.27995
  Beta  occ. eigenvalues --   -0.27595  -0.26791  -0.26657  -0.25426  -0.23238
  Beta  occ. eigenvalues --   -0.22607  -0.22333  -0.19186  -0.16524  -0.13688
  Beta  occ. eigenvalues --   -0.13220  -0.11120  -0.08597
  Beta virt. eigenvalues --    0.07519   0.08124   0.08871   0.09340   0.09813
  Beta virt. eigenvalues --    0.10538   0.11011   0.11419   0.12358   0.12690
  Beta virt. eigenvalues --    0.12875   0.13187   0.13499   0.13712   0.14449

 Mulliken charges and spin densities:
               1          2
     1  C   -0.507620  -0.238403
     2  C   -0.394305  -0.096024
     3  N   -0.178298   0.162853
     4  N    0.068460  -0.011087
     5  C   -0.686858   0.005436
     6  N   -0.171542   0.127304
     7  C    0.048560  -0.013067
     8  C   -0.193847   0.208036
     9  C   -0.268131   0.089873
    10  C    1.085947  -0.033879
    11  N   -0.113492   0.145534
    12  C    0.502409  -0.464654
    13  C    0.105549  -0.276131
    14  N   -0.330229   0.012682
    15  C   -0.322386  -0.008675
    16  H    0.136931   0.007950
    17  H    0.088666   0.083356
    18  H   -0.057892   0.200049
    19  H    0.135243  -0.006940
    20  H    0.019035   0.100582
    21  H    0.036182   0.203120
    22  H   -0.739592   0.949971
    23  H    0.290464  -0.164580
    24  H    0.173989  -0.000842
    25  H    0.129475   0.015809
    26  H    0.143281   0.001727
 Sum of Mulliken charges =  -1.00000   1.00000

 Dipole moment (field-independent basis, Debye):
    X=             -4.3735    Y=              0.0077    Z=              0.6892  Tot=              4.4275
 Quadrupole moment (field-independent basis, Debye-Ang):
   XX=           -138.0290   YY=           -117.5929   ZZ=           -108.7133
   XY=              2.6033   XZ=              6.2575   YZ=              3.6372

 Summary of Natural Population Analysis:

                                       Natural Population
                Natural  -----------------------------------------------
    Atom  No    Charge         Core      Valence    Rydberg      Total
 -----------------------------------------------------------------------
      C    1   -0.30153      0.99963     2.29621    0.00569     3.30153
      C    2    0.08230      0.99959     1.90431    0.01381     2.91770
      N    3   -0.11767      0.99969     2.60671    0.01127     3.61767
      N    4   -0.12459      0.99961     2.61304    0.01194     3.62459
      C    5    0.19042      0.99948     1.79472    0.01538     2.80958
      N    6   -0.22903      0.99967     2.71964    0.00972     3.72903
      C    7    0.06377      0.99962     1.92150    0.01510     2.93623
      C    8   -0.17582      0.99953     2.16654    0.00976     3.17582
      C    9    0.16661      0.99944     1.82272    0.01123     2.83339
      C   10   -0.09375      0.99941     2.08563    0.00872     3.09375
      N   11   -0.31106      0.99971     2.79893    0.01242     3.81106
      C   12   -0.13538      0.99952     2.12466    0.01120     3.13538
      C   13    0.15453      0.99965     1.82942    0.01640     2.84547
      N   14   -0.18856      0.99979     2.67739    0.01138     3.68856
      C   15   -0.17355      0.99966     2.16722    0.00667     3.17355
      H   16    0.10590      0.00000     0.39314    0.00097     0.39410
      H   17    0.10647      0.00000     0.39230    0.00124     0.39353
      H   18    0.09731      0.00000     0.40132    0.00137     0.40269
      H   19    0.07938      0.00000     0.41938    0.00123     0.42062
      H   20    0.09717      0.00000     0.40185    0.00097     0.40283
      H   21    0.17892      0.00000     0.31827    0.00281     0.32108
      H   22    0.11645      0.00000     0.37896    0.00460     0.38355
      H   23    0.11735      0.00000     0.38067    0.00198     0.38265
      H   24    0.10975      0.00000     0.38923    0.00102     0.39025
      H   25    0.09252      0.00000     0.40628    0.00120     0.40748
      H   26    0.09210      0.00000     0.40669    0.00122     0.40790
 =======================================================================
   * Total *    0.00000     14.99399    37.81673    0.18927    53.00000

 Normal termination of Gaussian 16 at Thu Dec 10 17:21:40 2020.
