 Gaussian 16, Revision A.03,

 -----------------------------------------------------------
 # opt freq B3LYP/6-31G(d) empiricaldispersion=gd3bj scf=xqc
 -----------------------------------------------------------

 -------------------------------
 CID_105842168_JID_6987_neutraal
 -------------------------------
 Symbolic Z-matrix:
 Charge =  0 Multiplicity = 1

 SCF Done:  E(RB3LYP) =  -730.469825797     A.U. after   14 cycles
 SCF Done:  E(RB3LYP) =  -730.478747230     A.U. after   13 cycles
 SCF Done:  E(RB3LYP) =  -730.473171130     A.U. after   13 cycles
 SCF Done:  E(RB3LYP) =  -730.479171998     A.U. after   12 cycles
 SCF Done:  E(RB3LYP) =  -730.480327351     A.U. after   12 cycles
 SCF Done:  E(RB3LYP) =  -730.481170766     A.U. after   12 cycles
 SCF Done:  E(RB3LYP) =  -730.481502736     A.U. after   12 cycles
 SCF Done:  E(RB3LYP) =  -730.482104715     A.U. after   11 cycles
 SCF Done:  E(RB3LYP) =  -730.482277392     A.U. after   11 cycles
 SCF Done:  E(RB3LYP) =  -730.482418918     A.U. after   11 cycles
 SCF Done:  E(RB3LYP) =  -730.482824345     A.U. after    9 cycles
 SCF Done:  E(RB3LYP) =  -730.482827109     A.U. after    8 cycles
 SCF Done:  E(RB3LYP) =  -730.482829155     A.U. after    9 cycles
 SCF Done:  E(RB3LYP) =  -730.482829477     A.U. after    7 cycles
 SCF Done:  E(RB3LYP) =  -730.482829547     A.U. after    7 cycles
 Optimization completed.
    -- Stationary point found.
 Normal termination of Gaussian 16 at Fri Dec 11 01:40:30 2020.

 --------------------------------------------------------------------
 #N Geom=AllCheck Guess=TCheck SCRF=Check GenChk RB3LYP/6-31G(d) Freq
 --------------------------------------------------------------------

 Structure from the checkpoint file:  "JID_6987.chk"
 -------------------------------
 CID_105842168_JID_6987_neutraal
 -------------------------------
 Charge =  0 Multiplicity = 1

 SCF Done:  E(RB3LYP) =  -730.482829547     A.U. after    1 cycles

  Exact polarizability: 169.274   1.584 126.789   4.500   3.956 124.950
 Approx polarizability: 209.787   6.803 186.055  10.751  12.786 191.472

                      1                      2                      3
                      A                      A                      A
 Frequencies --     28.7487                45.6860                54.7790
 Red. masses --      3.4011                 4.7411                 3.6421
 Frc consts  --      0.0017                 0.0058                 0.0064
 IR Inten    --      0.9124                 0.8031                 0.4108

                      4                      5                      6
                      A                      A                      A
 Frequencies --     64.9707                94.2656               120.1464
 Red. masses --      4.6778                 3.4351                 1.4958
 Frc consts  --      0.0116                 0.0180                 0.0127
 IR Inten    --      1.1487                 0.2667                 2.4323

                      7                      8                      9
                      A                      A                      A
 Frequencies --    139.3200               149.6509               175.6595
 Red. masses --      2.1542                 2.6126                 2.9352
 Frc consts  --      0.0246                 0.0345                 0.0534
 IR Inten    --      0.2272                 0.7956                 2.2583

                     10                     11                     12
                      A                      A                      A
 Frequencies --    213.7112               228.2427               237.7087
 Red. masses --      2.0109                 3.2617                 2.7203
 Frc consts  --      0.0541                 0.1001                 0.0906
 IR Inten    --      9.4111                 1.5848                 1.1575

                     13                     14                     15
                      A                      A                      A
 Frequencies --    263.6779               303.4043               339.1820
 Red. masses --      2.8525                 2.6005                 2.6018
 Frc consts  --      0.1169                 0.1410                 0.1764
 IR Inten    --      4.6750                 6.4006                 7.0419

                     16                     17                     18
                      A                      A                      A
 Frequencies --    347.7188               353.0982               380.5898
 Red. masses --      2.3608                 1.6509                 1.7860
 Frc consts  --      0.1682                 0.1213                 0.1524
 IR Inten    --      4.3123                 9.8797                11.1524

                     19                     20                     21
                      A                      A                      A
 Frequencies --    404.4211               450.3652               461.8313
 Red. masses --      2.4105                 2.2755                 3.0113
 Frc consts  --      0.2323                 0.2719                 0.3784
 IR Inten    --      3.8758                 9.2459                12.9144

                     22                     23                     24
                      A                      A                      A
 Frequencies --    476.1635               492.0044               552.5529
 Red. masses --      3.5087                 3.1983                 2.2543
 Frc consts  --      0.4687                 0.4561                 0.4055
 IR Inten    --      3.3113                 1.6042                16.1656

                     25                     26                     27
                      A                      A                      A
 Frequencies --    617.6265               649.3884               679.5349
 Red. masses --      3.4188                 2.5412                 1.6079
 Frc consts  --      0.7684                 0.6314                 0.4375
 IR Inten    --      9.1782                10.0258                27.5138

                     28                     29                     30
                      A                      A                      A
 Frequencies --    717.0335               737.6061               773.0121
 Red. masses --      1.5391                 1.8635                 2.3806
 Frc consts  --      0.4662                 0.5974                 0.8381
 IR Inten    --     38.4003                39.7953                22.9028

                     31                     32                     33
                      A                      A                      A
 Frequencies --    804.7431               809.5493               855.7156
 Red. masses --      1.4458                 1.2340                 2.1337
 Frc consts  --      0.5517                 0.4765                 0.9206
 IR Inten    --      3.8117                 0.1301                 0.4796

                     34                     35                     36
                      A                      A                      A
 Frequencies --    878.9034               885.4379               903.8966
 Red. masses --      2.7324                 2.1967                 2.0430
 Frc consts  --      1.2436                 1.0147                 0.9835
 IR Inten    --      0.5721                 5.5022                 1.3685

                     37                     38                     39
                      A                      A                      A
 Frequencies --    921.1155               925.1513               934.0147
 Red. masses --      2.3520                 2.2214                 1.9789
 Frc consts  --      1.1758                 1.1202                 1.0171
 IR Inten    --      5.8638               111.0209                10.8365

                     40                     41                     42
                      A                      A                      A
 Frequencies --    947.0156               953.4629               975.3215
 Red. masses --      2.4533                 2.4373                 2.2573
 Frc consts  --      1.2963                 1.3055                 1.2651
 IR Inten    --      2.5887                 0.9704                 1.3859

                     43                     44                     45
                      A                      A                      A
 Frequencies --    984.6717              1000.2029              1021.3072
 Red. masses --      2.5668                 1.6889                 2.4906
 Frc consts  --      1.4663                 0.9955                 1.5306
 IR Inten    --      5.4111                94.6741                 9.5478

                     46                     47                     48
                      A                      A                      A
 Frequencies --   1060.3157              1074.4173              1076.1501
 Red. masses --      1.1467                 1.9722                 1.6469
 Frc consts  --      0.7595                 1.3413                 1.1237
 IR Inten    --      2.8163                11.3601                13.3567

                     49                     50                     51
                      A                      A                      A
 Frequencies --   1098.6580              1155.2400              1164.9900
 Red. masses --      2.5903                 1.7433                 3.6904
 Frc consts  --      1.8421                 1.3708                 2.9510
 IR Inten    --     47.9457                81.9045                32.5276

                     52                     53                     54
                      A                      A                      A
 Frequencies --   1173.8766              1189.8092              1201.3237
 Red. masses --      2.8043                 1.2635                 2.2402
 Frc consts  --      2.2767                 1.0538                 1.9049
 IR Inten    --     20.0282                 1.4167                34.0819

                     55                     56                     57
                      A                      A                      A
 Frequencies --   1208.1298              1216.7971              1218.7869
 Red. masses --      1.6748                 1.3845                 1.6372
 Frc consts  --      1.4403                 1.2078                 1.4329
 IR Inten    --     13.3765                 1.7739                27.9197

                     58                     59                     60
                      A                      A                      A
 Frequencies --   1234.2641              1237.8519              1266.1139
 Red. masses --      1.3515                 1.5193                 1.2507
 Frc consts  --      1.2131                 1.3716                 1.1813
 IR Inten    --     13.8772                16.7409                 4.0253

                     61                     62                     63
                      A                      A                      A
 Frequencies --   1274.5841              1280.6094              1289.8575
 Red. masses --      1.3514                 1.3424                 1.3976
 Frc consts  --      1.2935                 1.2971                 1.3700
 IR Inten    --      4.1184                17.1521                22.5259

                     64                     65                     66
                      A                      A                      A
 Frequencies --   1291.6462              1293.4469              1307.4224
 Red. masses --      1.3429                 1.5302                 1.6714
 Frc consts  --      1.3200                 1.5083                 1.6833
 IR Inten    --      1.2819                 0.9118                16.8966

                     67                     68                     69
                      A                      A                      A
 Frequencies --   1324.7224              1330.6727              1339.5913
 Red. masses --      1.5521                 1.6246                 2.2415
 Frc consts  --      1.6048                 1.6949                 2.3700
 IR Inten    --     38.7809                21.2966                34.7689

                     70                     71                     72
                      A                      A                      A
 Frequencies --   1370.9126              1396.5462              1428.2416
 Red. masses --      1.6451                 1.4223                 1.7724
 Frc consts  --      1.8217                 1.6344                 2.1301
 IR Inten    --      2.1328                26.3164               110.4202

                     73                     74                     75
                      A                      A                      A
 Frequencies --   1493.4634              1500.7842              1501.6511
 Red. masses --      1.1573                 1.0905                 1.1040
 Frc consts  --      1.5209                 1.4472                 1.4667
 IR Inten    --      2.2929                 0.9696                11.2375

                     76                     77                     78
                      A                      A                      A
 Frequencies --   1503.7845              1506.2850              1510.0758
 Red. masses --      1.1234                 1.2245                 1.3561
 Frc consts  --      1.4968                 1.6368                 1.8220
 IR Inten    --      9.3564                 9.0550                48.7618

                     79                     80                     81
                      A                      A                      A
 Frequencies --   1514.4637              1523.0104              1528.9979
 Red. masses --      1.1069                 1.1845                 1.0845
 Frc consts  --      1.4959                 1.6188                 1.4939
 IR Inten    --      3.9280                39.8596                 1.5757

                     82                     83                     84
                      A                      A                      A
 Frequencies --   1534.7167              1538.6740              1549.0709
 Red. masses --      1.1263                 1.1270                 1.0548
 Frc consts  --      1.5630                 1.5721                 1.4913
 IR Inten    --      2.8961                 3.4137                 6.1084

                     85                     86                     87
                      A                      A                      A
 Frequencies --   1712.5464              1748.0054              3037.6101
 Red. masses --      1.1048                 6.3559                 1.0706
 Frc consts  --      1.9091                11.4423                 5.8202
 IR Inten    --     41.9600               308.1272                53.4015

                     88                     89                     90
                      A                      A                      A
 Frequencies --   3040.0335              3046.2404              3060.5916
 Red. masses --      1.0411                 1.0690                 1.0584
 Frc consts  --      5.6688                 5.8444                 5.8413
 IR Inten    --     29.5699                13.7743                46.0531

                     91                     92                     93
                      A                      A                      A
 Frequencies --   3069.0026              3076.0369              3079.7218
 Red. masses --      1.0611                 1.0609                 1.0582
 Frc consts  --      5.8885                 5.9143                 5.9134
 IR Inten    --     44.6264                23.3116                37.3815

                     94                     95                     96
                      A                      A                      A
 Frequencies --   3085.9564              3087.4139              3110.0477
 Red. masses --      1.0619                 1.0616                 1.1067
 Frc consts  --      5.9581                 5.9620                 6.3069
 IR Inten    --     34.7796                34.2624                 8.8972

                     97                     98                     99
                      A                      A                      A
 Frequencies --   3113.5831              3119.8014              3122.6251
 Red. masses --      1.0951                 1.0954                 1.1054
 Frc consts  --      6.2548                 6.2815                 6.3503
 IR Inten    --     42.7957                36.8426                 5.0064

                    100                    101                    102
                      A                      A                      A
 Frequencies --   3131.9606              3133.6268              3146.6033
 Red. masses --      1.1089                 1.1062                 1.1057
 Frc consts  --      6.4088                 6.4000                 6.4504
 IR Inten    --      7.6770                 8.4715                50.3683

                    103                    104                    105
                      A                      A                      A
 Frequencies --   3148.5405              3149.5326              3158.6380
 Red. masses --      1.1046                 1.1064                 1.0891
 Frc consts  --      6.4516                 6.4665                 6.4020
 IR Inten    --     17.2089                43.1486                16.0754

                    106                    107                    108
                      A                      A                      A
 Frequencies --   3437.9202              3521.0520              3558.7117
 Red. masses --      1.0499                 1.0907                 1.0744
 Frc consts  --      7.3109                 7.9672                 8.0166
 IR Inten    --     12.5972                14.7066                10.1038

 - Thermochemistry -
 -------------------
 Temperature   298.150 Kelvin.  Pressure   1.00000 Atm.
 Atom     1 has atomic number  6 and mass  12.00000

 Molecular mass:   226.16813 amu.
 Principal axes and moments of inertia in atomic units:
                           1         2         3
     Eigenvalues --  1883.235035934.962846496.60320
           X            0.99996  -0.00892  -0.00254
           Y            0.00890   0.99995  -0.00439
           Z            0.00258   0.00437   0.99999
 This molecule is an asymmetric top.
 Rotational symmetry number  1.
 Warning -- assumption of classical behavior for rotation
           may cause significant error
 Rotational temperatures (Kelvin)      0.04599     0.01459     0.01333
 Rotational constants (GHZ):           0.95832     0.30409     0.27780
 Zero-point vibrational energy     890968.9 (Joules/Mol)
                                  212.94668 (Kcal/Mol)
 Warning -- explicit consideration of  25 degrees of freedom as
           vibrations may cause significant error
 Vibrational temperatures:     41.36    65.73    78.81    93.48   135.63
          (Kelvin)            172.86   200.45   215.31   252.73   307.48
                              328.39   342.01   379.37   436.53   488.01
                              500.29   508.03   547.58   581.87   647.98
                              664.47   685.09   707.88   795.00   888.63
                              934.33   977.70  1031.65  1061.25  1112.19
                             1157.85  1164.76  1231.18  1264.55  1273.95
                             1300.51  1325.28  1331.09  1343.84  1362.54
                             1371.82  1403.27  1416.72  1439.07  1469.43
                             1525.56  1545.85  1548.34  1580.72  1662.13
                             1676.16  1688.95  1711.87  1728.44  1738.23
                             1750.70  1753.56  1775.83  1780.99  1821.66
                             1833.84  1842.51  1855.82  1858.39  1860.98
                             1881.09  1905.98  1914.54  1927.37  1972.44
                             2009.32  2054.92  2148.76  2159.29  2160.54
                             2163.61  2167.21  2172.66  2178.98  2191.27
                             2199.89  2208.12  2213.81  2228.77  2463.97
                             2514.99  4370.44  4373.93  4382.86  4403.51
                             4415.61  4425.73  4431.03  4440.00  4442.10
                             4474.66  4479.75  4488.70  4492.76  4506.19
                             4508.59  4527.26  4530.05  4531.47  4544.58
                             4946.40  5066.01  5120.19

 Zero-point correction=                           0.339352 (Hartree/Particle)
 Thermal correction to Energy=                    0.356178
 Thermal correction to Enthalpy=                  0.357122
 Thermal correction to Gibbs Free Energy=         0.294395
 Sum of electronic and zero-point Energies=           -730.143477
 Sum of electronic and thermal Energies=              -730.126652
 Sum of electronic and thermal Enthalpies=            -730.125708
 Sum of electronic and thermal Free Energies=         -730.188435

                     E (Thermal)             CV                S
                      KCal/Mol        Cal/Mol-Kelvin    Cal/Mol-Kelvin
 Total                  223.505             64.574            132.020
 Electronic               0.000              0.000              0.000
 Translational            0.889              2.981             42.151
 Rotational               0.889              2.981             32.651
 Vibrational            221.727             58.612             57.218
 Vibration     1          0.593              1.984              5.914
 Vibration     2          0.595              1.979              4.996
 Vibration     3          0.596              1.976              4.637
 Vibration     4          0.597              1.971              4.300
 Vibration     5          0.603              1.953              3.570
 Vibration     6          0.609              1.932              3.098
 Vibration     7          0.615              1.914              2.813
 Vibration     8          0.618              1.903              2.677
 Vibration     9          0.628              1.872              2.374
 Vibration    10          0.644              1.820              2.012
 Vibration    11          0.651              1.798              1.893
 Vibration    12          0.656              1.783              1.820
 Vibration    13          0.670              1.739              1.637
 Vibration    14          0.695              1.667              1.398
 Vibration    15          0.719              1.597              1.216
 Vibration    16          0.725              1.580              1.177
 Vibration    17          0.729              1.569              1.152
 Vibration    18          0.750              1.512              1.037
 Vibration    19          0.770              1.461              0.947
 Vibration    20          0.809              1.360              0.795
 Vibration    21          0.820              1.335              0.761
 Vibration    22          0.833              1.303              0.720
 Vibration    23          0.848              1.268              0.678
 Vibration    24          0.908              1.134              0.539
 Vibration    25          0.977              0.995              0.420

 Optimization completed.
    -- Stationary point found.
 Normal termination of Gaussian 16 at Fri Dec 11 01:56:04 2020.

 ----------------------------------------------------------------------
 # B3LYP/6-311++G(d,p) empiricaldispersion=gd3bj scf=xqc pop=npa geom=c
 heck
 ----------------------------------------------------------------------

 ---------------------------------------
 CID_105842168_JID_6987_Energie_neutraal
 ---------------------------------------
 Structure from the checkpoint file:  "JID_6987.chk"
 Charge =  0 Multiplicity = 1

 SCF Done:  E(RB3LYP) =  -730.697739375     A.U. after   14 cycles
 Normal termination of Gaussian 16 at Fri Dec 11 02:03:40 2020.

 ----------------------------------------------------------------------
 # B3LYP/6-311++G(d,p) empiricaldispersion=gd3bj scf=xqc pop=npa geom=c
 heck
 ----------------------------------------------------------------------

 -------------------------------------
 CID_105842168_JID_6987_Energie_kation
 -------------------------------------
 Structure from the checkpoint file:  "JID_6987.chk"
 Charge =  1 Multiplicity = 2

 SCF Done:  E(UB3LYP) =  -730.397599637     A.U. after   26 cycles
 Normal termination of Gaussian 16 at Fri Dec 11 02:23:39 2020.
 Gaussian 16:  ES64L-G16RevA.03 25-Dec-2016

 ----------------------------------------------------------------------
 # B3LYP/6-311++G(d,p) empiricaldispersion=gd3bj scf=xqc pop=npa geom=c
 heck
 ----------------------------------------------------------------------

 ------------------------------------
 CID_105842168_JID_6987_Energie_anion
 ------------------------------------
 Structure from the checkpoint file:  "JID_6987.chk"
 Charge = -1 Multiplicity = 2

                         Standard orientation:
 ---------------------------------------------------------------------
 Center     Atomic      Atomic             Coordinates (Angstroms)
 Number     Number       Type             X           Y           Z
 ---------------------------------------------------------------------
      1          6           0       -1.063049   -0.508547    2.014238
      2          8           0       -1.442299   -1.107728    0.780431
      3          6           0       -2.284755   -0.365045   -0.080787
      4          6           0       -3.260810   -1.264456   -0.880486
      5          6           0       -4.380481   -0.224265   -0.622696
      6          6           0       -3.522797    0.362402    0.528611
      7          6           0       -1.469150    0.516235   -1.041085
      8          7           0       -0.687100    1.539620   -0.370321
      9          6           0        0.664727    1.609222   -0.152830
     10          8           0        1.092898    2.331360    0.750246
     11          6           0        1.608156    0.839673   -1.061629
     12          6           0        2.631406   -0.004834   -0.270708
     13          6           0        2.053176   -1.165706    0.592189
     14          6           0        3.184549   -2.080399    0.059356
     15          6           0        3.411611   -1.069830   -1.093829
     16          7           0        3.572559    0.775972    0.530148
     17          1           0       -0.591291   -1.301695    2.598757
     18          1           0       -1.936329   -0.138780    2.567436
     19          1           0       -0.347346    0.310441    1.893529
     20          1           0       -2.996164   -1.493766   -1.918126
     21          1           0       -3.425966   -2.196912   -0.335329
     22          1           0       -5.366553   -0.609949   -0.352780
     23          1           0       -4.498387    0.476736   -1.454295
     24          1           0       -3.799482   -0.080272    1.488842
     25          1           0       -3.482017    1.451432    0.642238
     26          1           0       -0.800012   -0.135286   -1.603223
     27          1           0       -2.148529    0.987007   -1.764655
     28          1           0       -1.193155    2.124958    0.286744
     29          1           0        1.073067    0.204942   -1.771328
     30          1           0        2.150502    1.588577   -1.654958
     31          1           0        2.020886   -0.978110    1.668680
     32          1           0        1.061210   -1.479459    0.252786
     33          1           0        2.912149   -3.102446   -0.219852
     34          1           0        4.036145   -2.107178    0.742194
     35          1           0        2.875339   -1.355420   -2.005558
     36          1           0        4.444411   -0.814612   -1.352575
     37          1           0        4.144162    1.343865   -0.097241
     38          1           0        3.028861    1.441013    1.082450
 ---------------------------------------------------------------------

 SCF Done:  E(UB3LYP) =  -730.686074088     A.U. after   33 cycles
 SCF Done:  E(UB3LYP) =  -730.686074088     a.u. after    1 cycles

 The electronic state is 2-A.
 Alpha  occ. eigenvalues --  -19.03354 -18.99772 -14.24523 -14.19425 -10.18413
 Alpha  occ. eigenvalues --  -10.13779 -10.11792 -10.11778 -10.11399 -10.08428
 Alpha  occ. eigenvalues --  -10.07625 -10.07567 -10.07525 -10.07224 -10.07090
 Alpha  occ. eigenvalues --  -10.06881  -0.95012  -0.94410  -0.83102  -0.81049
 Alpha  occ. eigenvalues --   -0.75350  -0.71986  -0.65863  -0.63754  -0.60089
 Alpha  occ. eigenvalues --   -0.57346  -0.57079  -0.53892  -0.52641  -0.48608
 Alpha  occ. eigenvalues --   -0.45233  -0.44430  -0.42640  -0.40901  -0.40131
 Alpha  occ. eigenvalues --   -0.39648  -0.38079  -0.38042  -0.37401  -0.35958
 Alpha  occ. eigenvalues --   -0.35294  -0.33986  -0.33125  -0.31652  -0.31287
 Alpha  occ. eigenvalues --   -0.30800  -0.29207  -0.28994  -0.28630  -0.26770
 Alpha  occ. eigenvalues --   -0.25320  -0.24953  -0.24154  -0.23731  -0.23255
 Alpha  occ. eigenvalues --   -0.22100  -0.21540  -0.20685  -0.18436  -0.17061
 Alpha  occ. eigenvalues --   -0.15188  -0.14625   0.04233
 Alpha virt. eigenvalues --    0.06204   0.07030   0.07213   0.07848   0.08292
 Alpha virt. eigenvalues --    0.08719   0.09182   0.09914   0.10286   0.10509
 Alpha virt. eigenvalues --    0.10701   0.10888   0.11374   0.11650   0.12914

  Beta  occ. eigenvalues --  -19.03351 -18.99766 -14.24512 -14.19417 -10.18408
  Beta  occ. eigenvalues --  -10.13778 -10.11793 -10.11767 -10.11367 -10.08405
  Beta  occ. eigenvalues --  -10.07611 -10.07563 -10.07489 -10.07187 -10.07071
  Beta  occ. eigenvalues --  -10.06876  -0.95001  -0.94404  -0.83078  -0.81039
  Beta  occ. eigenvalues --   -0.75325  -0.71972  -0.65827  -0.63713  -0.60054
  Beta  occ. eigenvalues --   -0.57314  -0.57020  -0.53872  -0.52569  -0.48575
  Beta  occ. eigenvalues --   -0.45170  -0.44401  -0.42611  -0.40866  -0.40074
  Beta  occ. eigenvalues --   -0.39625  -0.38053  -0.38004  -0.37373  -0.35940
  Beta  occ. eigenvalues --   -0.35262  -0.33967  -0.33092  -0.31633  -0.31257
  Beta  occ. eigenvalues --   -0.30778  -0.29185  -0.28967  -0.28603  -0.26737
  Beta  occ. eigenvalues --   -0.25309  -0.24911  -0.24131  -0.23702  -0.23210
  Beta  occ. eigenvalues --   -0.22084  -0.21525  -0.20660  -0.18416  -0.17049
  Beta  occ. eigenvalues --   -0.15166  -0.14611
  Beta virt. eigenvalues --    0.06413   0.07036   0.07395   0.07760   0.08569
  Beta virt. eigenvalues --    0.08655   0.09060   0.09362   0.10262   0.10524
  Beta virt. eigenvalues --    0.10819   0.10912   0.11255   0.11658   0.11950

 Mulliken charges and spin densities:
               1          2
     1  C   -0.090118  -0.141995
     2  O   -0.004291  -0.010957
     3  C   -2.724465   2.763546
     4  C    0.088599  -0.442683
     5  C    1.223166  -1.601260
     6  C    0.393548  -0.604360
     7  C    2.498639  -3.097241
     8  N   -0.154357   0.177773
     9  C   -0.671368   0.526435
    10  O   -0.333544   0.013783
    11  C    1.148348  -1.601493
    12  C   -0.808182   1.184914
    13  C   -0.030208  -0.449019
    14  C   -0.504549   0.369920
    15  C    0.440505  -1.050474
    16  N   -0.242533  -0.003839
    17  H    0.098563   0.073045
    18  H   -0.157380   0.279879
    19  H    0.191814  -0.034748
    20  H   -0.345242   0.490251
    21  H   -0.021677   0.187185
    22  H   -0.424294   0.585934
    23  H   -0.176344   0.323100
    24  H   -0.229372   0.369910
    25  H   -0.263261   0.400461
    26  H    0.012942   0.185498
    27  H   -0.559832   0.766913
    28  H    0.018185   0.299018
    29  H    0.080523   0.083359
    30  H   -0.201284   0.402873
    31  H    0.133427   0.043379
    32  H    0.128662  -0.022782
    33  H    0.100369   0.048295
    34  H    0.100659   0.016990
    35  H   -0.215378   0.345530
    36  H    0.092147   0.040668
    37  H    0.164131   0.062448
    38  H    0.243452   0.019746
 Sum of Mulliken charges =  -1.00000   1.00000

 Dipole moment (field-independent basis, Debye):
    X=              6.0335    Y=             -1.8783    Z=              2.4995  Tot=              6.7955
 Quadrupole moment (field-independent basis, Debye-Ang):
   XX=           -187.1297   YY=           -140.5429   ZZ=           -142.4148
   XY=             -0.4897   XZ=             -5.7897   YZ=             -1.6807

 Summary of Natural Population Analysis:

                                       Natural Population
                Natural  -----------------------------------------------
    Atom  No    Charge         Core      Valence    Rydberg      Total
 -----------------------------------------------------------------------
      C    1   -0.10222      0.99958     2.09383    0.00881     3.10222
      O    2   -0.30548      0.99986     3.29584    0.00979     4.30548
      C    3    0.13518      0.99946     1.84652    0.01883     2.86482
      C    4   -0.18919      0.99959     2.18019    0.00941     3.18919
      C    5   -0.18933      0.99965     2.18127    0.00841     3.18933
      C    6   -0.20302      0.99959     2.19462    0.00882     3.20302
      C    7   -0.09786      0.99952     2.08477    0.01357     3.09786
      N    8   -0.31361      0.99967     2.80260    0.01134     3.81361
      C    9    0.34851      0.99965     1.62872    0.02311     2.65149
      O   10   -0.33903      0.99988     3.33380    0.00535     4.33903
      C   11   -0.23991      0.99952     2.22999    0.01039     3.23991
      C   12    0.05864      0.99957     1.92674    0.01504     2.94136
      C   13   -0.19288      0.99959     2.18563    0.00766     3.19288
      C   14   -0.18985      0.99965     2.18256    0.00764     3.18985
      C   15   -0.18579      0.99960     2.17756    0.00864     3.18579
      N   16   -0.42986      0.99974     2.92092    0.00919     3.92986
      H   17    0.08892      0.00000     0.41028    0.00079     0.41108
      H   18    0.08179      0.00000     0.41706    0.00115     0.41821
      H   19    0.08602      0.00000     0.41264    0.00134     0.41398
      H   20    0.09985      0.00000     0.39874    0.00142     0.40015
      H   21    0.10529      0.00000     0.39315    0.00156     0.39471
      H   22    0.09932      0.00000     0.39909    0.00158     0.40068
      H   23    0.09946      0.00000     0.39791    0.00263     0.40054
      H   24    0.10445      0.00000     0.39397    0.00158     0.39555
      H   25    0.09945      0.00000     0.39873    0.00183     0.40055
      H   26    0.10405      0.00000     0.39392    0.00204     0.39595
      H   27    0.10208      0.00000     0.39546    0.00246     0.39792
      H   28    0.19414      0.00000     0.30322    0.00264     0.30586
      H   29    0.10589      0.00000     0.39216    0.00195     0.39411
      H   30    0.11329      0.00000     0.38534    0.00137     0.38671
      H   31    0.09957      0.00000     0.39937    0.00106     0.40043
      H   32    0.10625      0.00000     0.39195    0.00180     0.39375
      H   33    0.09325      0.00000     0.40560    0.00115     0.40675
      H   34    0.09868      0.00000     0.40009    0.00123     0.40132
      H   35    0.09862      0.00000     0.40010    0.00128     0.40138
      H   36    0.09609      0.00000     0.40299    0.00092     0.40391
      H   37    0.16908      0.00000     0.32928    0.00163     0.33092
      H   38    0.19015      0.00000     0.30806    0.00179     0.30985
 =======================================================================
   * Total *   -0.00000     15.99410    45.79467    0.21123    62.00000

 Normal termination of Gaussian 16 at Fri Dec 11 02:48:52 2020.
