 Gaussian 16, Revision A.03,

 -----------------------------------------------------------
 # opt freq B3LYP/6-31G(d) empiricaldispersion=gd3bj scf=xqc
 -----------------------------------------------------------

 ------------------------------
 CID_13343743_JID_5391_neutraal
 ------------------------------
 Symbolic Z-matrix:
 Charge =  0 Multiplicity = 1

 SCF Done:  E(RB3LYP) =  -707.461536441     A.U. after   15 cycles
 SCF Done:  E(RB3LYP) =  -707.465253964     A.U. after   12 cycles
 SCF Done:  E(RB3LYP) =  -707.465386930     A.U. after   12 cycles
 SCF Done:  E(RB3LYP) =  -707.465741031     A.U. after   11 cycles
 SCF Done:  E(RB3LYP) =  -707.465806703     A.U. after   11 cycles
 SCF Done:  E(RB3LYP) =  -707.465983696     A.U. after   13 cycles
 SCF Done:  E(RB3LYP) =  -707.466063101     A.U. after   13 cycles
 SCF Done:  E(RB3LYP) =  -707.466289474     A.U. after   11 cycles
 SCF Done:  E(RB3LYP) =  -707.466176793     A.U. after   13 cycles
 SCF Done:  E(RB3LYP) =  -707.463689230     A.U. after   13 cycles
 SCF Done:  E(RB3LYP) =  -707.467188163     A.U. after   10 cycles
 SCF Done:  E(RB3LYP) =  -707.467196585     A.U. after   10 cycles
 SCF Done:  E(RB3LYP) =  -707.467199694     A.U. after    9 cycles
 SCF Done:  E(RB3LYP) =  -707.467201408     A.U. after    9 cycles
 SCF Done:  E(RB3LYP) =  -707.467201631     A.U. after    8 cycles
 Optimization completed.
    -- Stationary point found.
 Normal termination of Gaussian 16 at Thu Dec 10 15:53:38 2020.

 --------------------------------------------------------------------
 #N Geom=AllCheck Guess=TCheck SCRF=Check GenChk RB3LYP/6-31G(d) Freq
 --------------------------------------------------------------------

 Structure from the checkpoint file:  "JID_5391.chk"
 ------------------------------
 CID_13343743_JID_5391_neutraal
 ------------------------------
 Charge =  0 Multiplicity = 1

 SCF Done:  E(RB3LYP) =  -707.467201631     A.U. after    1 cycles

  Exact polarizability: 193.756   2.142 126.441   3.245  -4.068  74.790
 Approx polarizability: 267.871   1.943 200.794  12.654 -18.594 117.912

                      1                      2                      3
                      A                      A                      A
 Frequencies --     38.3380                52.2771                70.1747
 Red. masses --      3.6311                 5.2538                 5.4035
 Frc consts  --      0.0031                 0.0085                 0.0157
 IR Inten    --      1.3167                 0.8932                 1.5897

                      4                      5                      6
                      A                      A                      A
 Frequencies --    107.1105               140.0417               182.2784
 Red. masses --      4.3358                 3.8168                 1.0422
 Frc consts  --      0.0293                 0.0441                 0.0204
 IR Inten    --      3.0337                 0.5094                 0.0446

                      7                      8                      9
                      A                      A                      A
 Frequencies --    213.4331               260.5457               280.9164
 Red. masses --      2.2963                 4.0562                 3.7748
 Frc consts  --      0.0616                 0.1622                 0.1755
 IR Inten    --      1.1903                 2.2095                 4.9099

                     10                     11                     12
                      A                      A                      A
 Frequencies --    307.0092               321.2356               375.6800
 Red. masses --      4.3998                 5.3888                 4.3778
 Frc consts  --      0.2443                 0.3276                 0.3640
 IR Inten    --      2.8576                 4.7844                 2.0108

                     13                     14                     15
                      A                      A                      A
 Frequencies --    386.1051               417.2113               474.6117
 Red. masses --      4.8664                 4.9438                 4.2119
 Frc consts  --      0.4274                 0.5070                 0.5590
 IR Inten    --      0.7506                 5.4183                 1.7502

                     16                     17                     18
                      A                      A                      A
 Frequencies --    490.7865               520.5595               521.1928
 Red. masses --      3.3552                 2.6047                 1.9083
 Frc consts  --      0.4762                 0.4159                 0.3054
 IR Inten    --      1.3651                14.9348                34.2823

                     19                     20                     21
                      A                      A                      A
 Frequencies --    586.2083               612.7582               640.7732
 Red. masses --      3.5586                 3.8471                 2.2657
 Frc consts  --      0.7205                 0.8511                 0.5481
 IR Inten    --      2.2373                22.7636                50.4602

                     22                     23                     24
                      A                      A                      A
 Frequencies --    648.3252               663.5549               718.9249
 Red. masses --      3.6169                 2.6505                 4.2082
 Frc consts  --      0.8957                 0.6876                 1.2815
 IR Inten    --      5.0009                41.2775                 2.2758

                     25                     26                     27
                      A                      A                      A
 Frequencies --    750.4219               781.7857               805.5082
 Red. masses --      5.2222                 2.5006                 1.7799
 Frc consts  --      1.7327                 0.9005                 0.6805
 IR Inten    --     11.4551                 2.3336                 7.5893

                     28                     29                     30
                      A                      A                      A
 Frequencies --    831.9094               863.1787               880.9901
 Red. masses --      1.6741                 4.2664                 1.6552
 Frc consts  --      0.6826                 1.8729                 0.7569
 IR Inten    --     14.3123                10.4064                13.3630

                     31                     32                     33
                      A                      A                      A
 Frequencies --    883.2534               935.4256               968.3566
 Red. masses --      2.4467                 1.2828                 2.8707
 Frc consts  --      1.1246                 0.6613                 1.5860
 IR Inten    --     10.0051                 1.0219                 6.7547

                     34                     35                     36
                      A                      A                      A
 Frequencies --   1002.4944              1030.8293              1039.1519
 Red. masses --      2.5417                 2.0224                 1.5857
 Frc consts  --      1.5050                 1.2662                 1.0089
 IR Inten    --     29.8752                51.6368                23.2058

                     37                     38                     39
                      A                      A                      A
 Frequencies --   1067.9591              1093.3319              1097.1976
 Red. masses --      1.7144                 3.0240                 2.6129
 Frc consts  --      1.1520                 2.1298                 1.8533
 IR Inten    --      6.9536                 9.2702                63.2410

                     40                     41                     42
                      A                      A                      A
 Frequencies --   1136.4489              1151.9950              1199.9207
 Red. masses --      2.0996                 1.7953                 2.2295
 Frc consts  --      1.5976                 1.4037                 1.8913
 IR Inten    --     24.9566                10.4181                53.0315

                     43                     44                     45
                      A                      A                      A
 Frequencies --   1241.5081              1273.3388              1284.9343
 Red. masses --      1.8850                 1.2891                 1.5365
 Frc consts  --      1.7118                 1.2314                 1.4947
 IR Inten    --    141.8581                 0.1722                 9.3733

                     46                     47                     48
                      A                      A                      A
 Frequencies --   1304.2473              1307.8706              1326.1233
 Red. masses --      2.3506                 1.5492                 1.4029
 Frc consts  --      2.3558                 1.5613                 1.4536
 IR Inten    --    210.1273                19.2946                 8.1563

                     49                     50                     51
                      A                      A                      A
 Frequencies --   1347.7789              1374.3072              1399.4186
 Red. masses --      2.7933                 3.0909                 1.4540
 Frc consts  --      2.9896                 3.4395                 1.6777
 IR Inten    --    293.1183                80.2041                 0.8609

                     52                     53                     54
                      A                      A                      A
 Frequencies --   1405.6740              1427.4920              1440.5443
 Red. masses --      1.3219                 1.4103                 1.3853
 Frc consts  --      1.5390                 1.6932                 1.6937
 IR Inten    --      2.4151                83.8444                73.0918

                     55                     56                     57
                      A                      A                      A
 Frequencies --   1459.1894              1497.7767              1503.9090
 Red. masses --      2.7306                 1.6650                 1.2191
 Frc consts  --      3.4256                 2.2007                 1.6246
 IR Inten    --     30.4070                18.2942                 5.8476

                     58                     59                     60
                      A                      A                      A
 Frequencies --   1508.0503              1516.6819              1531.5993
 Red. masses --      1.0956                 1.0937                 1.1734
 Frc consts  --      1.4680                 1.4823                 1.6217
 IR Inten    --      4.1529                10.6531                27.2572

                     61                     62                     63
                      A                      A                      A
 Frequencies --   1535.3895              1558.1808              1632.3171
 Red. masses --      1.1324                 2.8036                 7.0287
 Frc consts  --      1.5729                 4.0105                11.0340
 IR Inten    --      4.4028               312.5050                26.8702

                     64                     65                     66
                      A                      A                      A
 Frequencies --   1674.2696              1793.3454              3054.9316
 Red. masses --      6.5285                 7.9275                 1.0591
 Frc consts  --     10.7824                15.0216                 5.8237
 IR Inten    --     31.1583               478.6449                18.5150

                     67                     68                     69
                      A                      A                      A
 Frequencies --   3061.9840              3066.3991              3069.7205
 Red. masses --      1.0655                 1.0639                 1.0393
 Frc consts  --      5.8860                 5.8939                 5.7699
 IR Inten    --     49.1704                23.1642                 2.9695

                     70                     71                     72
                      A                      A                      A
 Frequencies --   3097.5956              3125.6373              3128.3246
 Red. masses --      1.0992                 1.1059                 1.1072
 Frc consts  --      6.2139                 6.3655                 6.3842
 IR Inten    --     34.5127                36.7384                35.6601

                     73                     74                     75
                      A                      A                      A
 Frequencies --   3137.9569              3174.2182              3199.0816
 Red. masses --      1.0966                 1.1042                 1.0887
 Frc consts  --      6.3622                 6.5552                 6.5646
 IR Inten    --      8.4199                11.6710                 8.7412

                     76                     77                     78
                      A                      A                      A
 Frequencies --   3219.7002              3239.9178              3583.1719
 Red. masses --      1.0940                 1.0907                 1.0753
 Frc consts  --      6.6818                 6.7457                 8.1345
 IR Inten    --      6.5587                 1.7316                24.1462

 - Thermochemistry -
 -------------------
 Temperature   298.150 Kelvin.  Pressure   1.00000 Atm.
 Atom     1 has atomic number  6 and mass  12.00000

 Molecular mass:   207.08954 amu.
 Principal axes and moments of inertia in atomic units:
                           1         2         3
     Eigenvalues --  1186.532795742.215316642.63587
           X            0.99998   0.00165  -0.00535
           Y           -0.00154   0.99980   0.02002
           Z            0.00538  -0.02002   0.99979
 This molecule is an asymmetric top.
 Rotational symmetry number  1.
 Warning -- assumption of classical behavior for rotation
           may cause significant error
 Rotational temperatures (Kelvin)      0.07300     0.01508     0.01304
 Rotational constants (GHZ):           1.52102     0.31429     0.27169
 Zero-point vibrational energy     604429.9 (Joules/Mol)
                                  144.46222 (Kcal/Mol)
 Warning -- explicit consideration of  20 degrees of freedom as
           vibrations may cause significant error
 Vibrational temperatures:     55.16    75.22   100.97   154.11   201.49
          (Kelvin)            262.26   307.08   374.87   404.18   441.72
                              462.19   540.52   555.52   600.27   682.86
                              706.13   748.97   749.88   843.42   881.62
                              921.93   932.80   954.71  1034.37  1079.69
                             1124.82  1158.95  1196.93  1241.92  1267.55
                             1270.80  1345.87  1393.25  1442.37  1483.13
                             1495.11  1536.55  1573.06  1578.62  1635.10
                             1657.46  1726.42  1786.25  1832.05  1848.73
                             1876.52  1881.73  1908.00  1939.15  1977.32
                             2013.45  2022.45  2053.84  2072.62  2099.45
                             2154.97  2163.79  2169.75  2182.17  2203.63
                             2209.08  2241.87  2348.54  2408.90  2580.22
                             4395.37  4405.51  4411.86  4416.64  4456.75
                             4497.09  4500.96  4514.82  4566.99  4602.76
                             4632.43  4661.52  5155.39

 Zero-point correction=                           0.230215 (Hartree/Particle)
 Thermal correction to Energy=                    0.243424
 Thermal correction to Enthalpy=                  0.244368
 Thermal correction to Gibbs Free Energy=         0.189714
 Sum of electronic and zero-point Energies=           -707.236986
 Sum of electronic and thermal Energies=              -707.223778
 Sum of electronic and thermal Enthalpies=            -707.222834
 Sum of electronic and thermal Free Energies=         -707.277488

                     E (Thermal)             CV                S
                      KCal/Mol        Cal/Mol-Kelvin    Cal/Mol-Kelvin
 Total                  152.751             51.257            115.028
 Electronic               0.000              0.000              0.000
 Translational            0.889              2.981             41.888
 Rotational               0.889              2.981             32.182
 Vibrational            150.973             45.295             40.959
 Vibration     1          0.594              1.982              5.343
 Vibration     2          0.596              1.977              4.729
 Vibration     3          0.598              1.968              4.148
 Vibration     4          0.606              1.944              3.321
 Vibration     5          0.615              1.913              2.803
 Vibration     6          0.630              1.864              2.305
 Vibration     7          0.644              1.820              2.014
 Vibration     8          0.669              1.745              1.658
 Vibration     9          0.681              1.709              1.528
 Vibration    10          0.697              1.660              1.378
 Vibration    11          0.707              1.633              1.304
 Vibration    12          0.747              1.522              1.057
 Vibration    13          0.755              1.500              1.015
 Vibration    14          0.780              1.433              0.901
 Vibration    15          0.831              1.306              0.725
 Vibration    16          0.847              1.270              0.682
 Vibration    17          0.876              1.204              0.609
 Vibration    18          0.876              1.203              0.607
 Vibration    19          0.943              1.061              0.474
 Vibration    20          0.972              1.005              0.428

                           ! Non-Optimized Parameters !
 Normal termination of Gaussian 16 at Thu Dec 10 16:01:43 2020.

 ----------------------------------------------------------------------
 # B3LYP/6-311++G(d,p) empiricaldispersion=gd3bj scf=xqc pop=npa geom=c
 heck
 ----------------------------------------------------------------------

 --------------------------------------
 CID_13343743_JID_5391_Energie_neutraal
 --------------------------------------
 Structure from the checkpoint file:  "JID_5391.chk"
 Charge =  0 Multiplicity = 1

 SCF Done:  E(RB3LYP) =  -707.667233202     A.U. after   16 cycles
 Normal termination of Gaussian 16 at Thu Dec 10 16:05:40 2020.

 ----------------------------------------------------------------------
 # B3LYP/6-311++G(d,p) empiricaldispersion=gd3bj scf=xqc pop=npa geom=c
 heck
 ----------------------------------------------------------------------

 ------------------------------------
 CID_13343743_JID_5391_Energie_kation
 ------------------------------------
 Structure from the checkpoint file:  "JID_5391.chk"
 Charge =  1 Multiplicity = 2

 SCF Done:  E(UB3LYP) =  -707.381410243     A.U. after   24 cycles
 Normal termination of Gaussian 16 at Thu Dec 10 16:16:28 2020.
 Gaussian 16:  ES64L-G16RevA.03 25-Dec-2016

 ----------------------------------------------------------------------
 # B3LYP/6-311++G(d,p) empiricaldispersion=gd3bj scf=xqc pop=npa geom=c
 heck
 ----------------------------------------------------------------------

 -----------------------------------
 CID_13343743_JID_5391_Energie_anion
 -----------------------------------
 Structure from the checkpoint file:  "JID_5391.chk"
 Charge = -1 Multiplicity = 2

                         Standard orientation:
 ---------------------------------------------------------------------
 Center     Atomic      Atomic             Coordinates (Angstroms)
 Number     Number       Type             X           Y           Z
 ---------------------------------------------------------------------
      1          6           0        3.234679   -1.569178   -0.734436
      2          6           0        3.738254   -0.361865    0.033385
      3          8           0        4.919892   -0.214219    0.311232
      4          7           0        2.819597    0.598609    0.414117
      5          6           0        1.425481    0.681695    0.190214
      6          6           0        0.577114   -0.403338    0.423763
      7          6           0       -0.796631   -0.302256    0.200625
      8          6           0       -1.350596    0.928572   -0.204280
      9          6           0       -0.497664    2.011828   -0.422200
     10          6           0        0.876125    1.894339   -0.246469
     11          8           0       -2.694431    1.133970   -0.413659
     12          6           0       -3.576227    0.486004    0.513594
     13          6           0       -3.911643   -0.937378    0.068776
     14          6           0       -2.656623   -1.651229   -0.430217
     15          8           0       -1.539183   -1.432540    0.443059
     16          1           0        4.071267   -1.955154   -1.319132
     17          1           0        2.390774   -1.335604   -1.388129
     18          1           0        2.916934   -2.355119   -0.040187
     19          1           0        3.269121    1.413400    0.815543
     20          1           0        0.959882   -1.349446    0.785554
     21          1           0       -0.943230    2.950407   -0.735165
     22          1           0        1.526930    2.741547   -0.440662
     23          1           0       -4.473540    1.109269    0.555238
     24          1           0       -3.114428    0.481390    1.507388
     25          1           0       -4.353848   -1.476255    0.915408
     26          1           0       -4.652634   -0.927070   -0.739744
     27          1           0       -2.801707   -2.734451   -0.456789
     28          1           0       -2.396535   -1.314028   -1.439729
 ---------------------------------------------------------------------

 SCF Done:  E(UB3LYP) =  -707.655865508     A.U. after   33 cycles
 SCF Done:  E(UB3LYP) =  -707.655865508     a.u. after    1 cycles

 The electronic state is 2-A.
 Alpha  occ. eigenvalues --  -19.05089 -19.04995 -19.00172 -14.25791 -10.18922
 Alpha  occ. eigenvalues --  -10.14044 -10.13581 -10.12605 -10.12419 -10.12331
 Alpha  occ. eigenvalues --  -10.08691 -10.08578 -10.08383 -10.08359 -10.07037
 Alpha  occ. eigenvalues --   -0.97824  -0.95487  -0.95320  -0.84851  -0.75960
 Alpha  occ. eigenvalues --   -0.69325  -0.66757  -0.65755  -0.63444  -0.60245
 Alpha  occ. eigenvalues --   -0.54261  -0.51556  -0.50969  -0.48812  -0.44812
 Alpha  occ. eigenvalues --   -0.42754  -0.41654  -0.39563  -0.38755  -0.38104
 Alpha  occ. eigenvalues --   -0.36763  -0.35353  -0.34510  -0.33835  -0.32212
 Alpha  occ. eigenvalues --   -0.31843  -0.31446  -0.31002  -0.30025  -0.29034
 Alpha  occ. eigenvalues --   -0.28286  -0.27295  -0.24963  -0.23467  -0.22318
 Alpha  occ. eigenvalues --   -0.20434  -0.18613  -0.17544  -0.14869  -0.12050
 Alpha  occ. eigenvalues --    0.04396
 Alpha virt. eigenvalues --    0.06562   0.06850   0.07263   0.07523   0.08108
 Alpha virt. eigenvalues --    0.08534   0.09211   0.09360   0.09838   0.10930
 Alpha virt. eigenvalues --    0.11245   0.11584   0.12187   0.12752   0.13226

  Beta  occ. eigenvalues --  -19.05092 -19.04999 -19.00136 -14.25805 -10.18878
  Beta  occ. eigenvalues --  -10.14003 -10.13533 -10.12555 -10.12387 -10.12297
  Beta  occ. eigenvalues --  -10.08680 -10.08587 -10.08368 -10.08342 -10.06995
  Beta  occ. eigenvalues --   -0.97802  -0.95419  -0.95303  -0.84813  -0.75904
  Beta  occ. eigenvalues --   -0.69254  -0.66708  -0.65698  -0.63365  -0.60174
  Beta  occ. eigenvalues --   -0.54223  -0.51478  -0.50885  -0.48757  -0.44776
  Beta  occ. eigenvalues --   -0.42712  -0.41583  -0.39520  -0.38700  -0.38044
  Beta  occ. eigenvalues --   -0.36656  -0.35291  -0.34449  -0.33795  -0.32156
  Beta  occ. eigenvalues --   -0.31803  -0.31413  -0.30938  -0.29964  -0.28977
  Beta  occ. eigenvalues --   -0.28212  -0.27170  -0.24914  -0.23353  -0.22233
  Beta  occ. eigenvalues --   -0.20388  -0.18551  -0.17506  -0.14803  -0.11853
  Beta virt. eigenvalues --    0.06438   0.07050   0.07453   0.07553   0.08143
  Beta virt. eigenvalues --    0.08760   0.09033   0.09483   0.10017   0.10137
  Beta virt. eigenvalues --    0.11449   0.11680   0.11912   0.12394   0.12887

 Mulliken charges and spin densities:
               1          2
     1  C   -0.114790  -0.354559
     2  C    0.109507  -0.005404
     3  O   -0.366031   0.019888
     4  N   -0.157298  -0.001835
     5  C   -0.023832  -0.600033
     6  C    0.509539  -0.683056
     7  C    0.025508   0.507471
     8  C   -0.308794   0.370895
     9  C    0.264193  -0.844605
    10  C   -0.221626   0.316846
    11  O   -0.165485   0.073541
    12  C   -0.239475   0.044432
    13  C    2.017485  -2.363984
    14  C   -0.294864   0.130452
    15  O   -0.158944   0.073943
    16  H    0.118073   0.056767
    17  H    0.039931   0.131126
    18  H   -0.120554   0.299321
    19  H    0.280757   0.004811
    20  H    0.086268   0.117562
    21  H   -0.038856   0.224042
    22  H    0.046798   0.106059
    23  H   -0.810694   1.020636
    24  H    0.069270   0.101272
    25  H   -0.335507   0.491888
    26  H   -0.396169   0.554240
    27  H   -0.826158   1.043995
    28  H    0.011746   0.164289
 Sum of Mulliken charges =  -1.00000   1.00000

 Dipole moment (field-independent basis, Debye):
    X=              6.2282    Y=              3.9127    Z=              0.0970  Tot=              7.3559
 Quadrupole moment (field-independent basis, Debye-Ang):
   XX=           -202.5901   YY=           -126.6746   ZZ=           -112.5967
   XY=             -3.6704   XZ=             -2.8475   YZ=              1.9337

 Summary of Natural Population Analysis:

                                       Natural Population
                Natural  -----------------------------------------------
    Atom  No    Charge         Core      Valence    Rydberg      Total
 -----------------------------------------------------------------------
      C    1   -0.33690      0.99963     2.33208    0.00520     3.33690
      C    2    0.35037      0.99970     1.62871    0.02121     2.64963
      O    3   -0.32243      0.99988     3.31646    0.00609     4.32243
      N    4   -0.31626      0.99964     2.80688    0.00973     3.81626
      C    5    0.06738      0.99949     1.92125    0.01188     2.93262
      C    6   -0.11266      0.99949     2.10716    0.00601     3.11266
      C    7    0.14061      0.99935     1.84576    0.01429     2.85939
      C    8    0.13425      0.99932     1.85389    0.01254     2.86575
      C    9   -0.10968      0.99953     2.10071    0.00944     3.10968
      C   10   -0.11183      0.99953     2.10358    0.00871     3.11183
      O   11   -0.28661      0.99987     3.27658    0.01016     4.28661
      C   12   -0.00990      0.99956     1.99674    0.01360     3.00990
      C   13   -0.21406      0.99963     2.20572    0.00871     3.21406
      C   14   -0.00983      0.99956     1.99679    0.01348     3.00983
      O   15   -0.28634      0.99987     3.27492    0.01155     4.28634
      H   16    0.11119      0.00000     0.38801    0.00080     0.38881
      H   17    0.11201      0.00000     0.38704    0.00095     0.38799
      H   18    0.11365      0.00000     0.38497    0.00138     0.38635
      H   19    0.19504      0.00000     0.30249    0.00247     0.30496
      H   20    0.10841      0.00000     0.38968    0.00191     0.39159
      H   21    0.10694      0.00000     0.39198    0.00108     0.39306
      H   22    0.09973      0.00000     0.39935    0.00091     0.40027
      H   23    0.09727      0.00000     0.40014    0.00259     0.40273
      H   24    0.08555      0.00000     0.41273    0.00173     0.41445
      H   25    0.10420      0.00000     0.39340    0.00240     0.39580
      H   26    0.10492      0.00000     0.39218    0.00289     0.39508
      H   27    0.09836      0.00000     0.39865    0.00299     0.40164
      H   28    0.08665      0.00000     0.41138    0.00197     0.41335
 =======================================================================
   * Total *    0.00004     14.99403    39.81926    0.18667    54.99996

 Normal termination of Gaussian 16 at Thu Dec 10 16:31:09 2020.
