 Gaussian 16, Revision A.03,

 -----------------------------------------------------------
 # opt freq B3LYP/6-31G(d) empiricaldispersion=gd3bj scf=xqc
 -----------------------------------------------------------

 -------------------------------
 CID_152171878_JID_9233_neutraal
 -------------------------------
 Symbolic Z-matrix:
 Charge =  0 Multiplicity = 1

 SCF Done:  E(RB3LYP) =  -1288.94944860     A.U. after   15 cycles
 SCF Done:  E(RB3LYP) =  -1288.95654233     A.U. after   13 cycles
 SCF Done:  E(RB3LYP) =  -1288.95113252     A.U. after   15 cycles
 SCF Done:  E(RB3LYP) =  -1288.95535459     A.U. after   13 cycles
 SCF Done:  E(RB3LYP) =  -1288.95835128     A.U. after   10 cycles
 SCF Done:  E(RB3LYP) =  -1288.95913978     A.U. after   12 cycles
 SCF Done:  E(RB3LYP) =  -1288.95945933     A.U. after   13 cycles
 SCF Done:  E(RB3LYP) =  -1288.95857173     A.U. after   13 cycles
 SCF Done:  E(RB3LYP) =  -1288.95969066     A.U. after   13 cycles
 SCF Done:  E(RB3LYP) =  -1288.95973290     A.U. after   12 cycles
 SCF Done:  E(RB3LYP) =  -1288.96862635     A.U. after    8 cycles
 SCF Done:  E(RB3LYP) =  -1288.96862648     A.U. after    8 cycles
 SCF Done:  E(RB3LYP) =  -1288.96862660     A.U. after    8 cycles
 SCF Done:  E(RB3LYP) =  -1288.96862672     A.U. after    8 cycles
 SCF Done:  E(RB3LYP) =  -1288.96862677     A.U. after    7 cycles
 Optimization completed.
    -- Stationary point found.
 Normal termination of Gaussian 16 at Sat Dec 12 10:17:37 2020.

 --------------------------------------------------------------------
 #N Geom=AllCheck Guess=TCheck SCRF=Check GenChk RB3LYP/6-31G(d) Freq
 --------------------------------------------------------------------

 Structure from the checkpoint file:  "JID_9233.chk"
 -------------------------------
 CID_152171878_JID_9233_neutraal
 -------------------------------
 Charge =  0 Multiplicity = 1

 SCF Done:  E(RB3LYP) =  -1288.96862677     A.U. after    1 cycles

  Exact polarizability: 188.535  21.438 152.507  -3.228  -8.479 134.427
 Approx polarizability: 240.517  37.230 231.318 -12.877 -28.316 248.874

                      1                      2                      3
                      A                      A                      A
 Frequencies --      8.9661                35.5211                43.0132
 Red. masses --      4.5289                 9.6016                 5.4892
 Frc consts  --      0.0002                 0.0071                 0.0060
 IR Inten    --      0.8385                 0.7879                 0.7106

                      4                      5                      6
                      A                      A                      A
 Frequencies --     50.2779                59.1616                77.2075
 Red. masses --      3.6273                 3.6480                 5.1732
 Frc consts  --      0.0054                 0.0075                 0.0182
 IR Inten    --      1.1019                 0.3374                 3.2054

                      7                      8                      9
                      A                      A                      A
 Frequencies --     95.9226               108.7500               130.5346
 Red. masses --      1.1889                 6.3487                 4.2177
 Frc consts  --      0.0064                 0.0442                 0.0423
 IR Inten    --      0.3386                 2.6652                 0.2575

                     10                     11                     12
                      A                      A                      A
 Frequencies --    160.7737               173.4042               207.2423
 Red. masses --      5.1472                 4.9852                 1.1427
 Frc consts  --      0.0784                 0.0883                 0.0289
 IR Inten    --      2.1065                 2.2817                 0.2633

                     13                     14                     15
                      A                      A                      A
 Frequencies --    209.9226               215.0408               252.3322
 Red. masses --      3.5135                 4.2035                 2.3300
 Frc consts  --      0.0912                 0.1145                 0.0874
 IR Inten    --      2.2274                 6.9212                 2.3563

                     16                     17                     18
                      A                      A                      A
 Frequencies --    257.2159               270.5355               297.7743
 Red. masses --      1.4317                 1.0860                 3.8137
 Frc consts  --      0.0558                 0.0468                 0.1992
 IR Inten    --      0.8603                 0.2142                 4.1298

                     19                     20                     21
                      A                      A                      A
 Frequencies --    322.1166               333.3146               341.2667
 Red. masses --      2.8447                 3.4101                 2.7340
 Frc consts  --      0.1739                 0.2232                 0.1876
 IR Inten    --      8.1229                 5.0705                23.4543

                     22                     23                     24
                      A                      A                      A
 Frequencies --    355.2845               364.3666               378.9419
 Red. masses --      2.1648                 1.8741                 2.7046
 Frc consts  --      0.1610                 0.1466                 0.2288
 IR Inten    --     11.0113                 8.9074                 4.4896

                     25                     26                     27
                      A                      A                      A
 Frequencies --    417.4657               430.8899               460.4850
 Red. masses --      5.0498                 2.7144                 3.1772
 Frc consts  --      0.5185                 0.2969                 0.3969
 IR Inten    --      7.5546                 2.4735                 4.7117

                     28                     29                     30
                      A                      A                      A
 Frequencies --    465.2074               489.0936               516.4476
 Red. masses --      2.6950                 5.3265                 4.3753
 Frc consts  --      0.3436                 0.7507                 0.6876
 IR Inten    --      4.6227                 3.2081                15.9134

                     31                     32                     33
                      A                      A                      A
 Frequencies --    536.2320               607.2170               612.4566
 Red. masses --      1.1185                 4.6917                 4.8067
 Frc consts  --      0.1895                 1.0192                 1.0623
 IR Inten    --      5.8626                 6.3484                 1.3855

                     34                     35                     36
                      A                      A                      A
 Frequencies --    675.0484               694.9007               718.8406
 Red. masses --      7.3942                10.5846                 4.9849
 Frc consts  --      1.9852                 3.0114                 1.5176
 IR Inten    --     15.9339                 0.3298                17.9964

                     37                     38                     39
                      A                      A                      A
 Frequencies --    750.6378               769.5872               784.2647
 Red. masses --      5.6815                 5.2135                 6.7497
 Frc consts  --      1.8861                 1.8193                 2.4460
 IR Inten    --     45.8557                 2.0872                 3.2626

                     40                     41                     42
                      A                      A                      A
 Frequencies --    843.9189               859.9823               916.0639
 Red. masses --      4.5989                 3.6855                 1.7029
 Frc consts  --      1.9298                 1.6059                 0.8419
 IR Inten    --     18.8639                78.1482               221.2807

                     43                     44                     45
                      A                      A                      A
 Frequencies --    938.2286               938.4596               948.9304
 Red. masses --      1.6333                 1.6319                 1.9943
 Frc consts  --      0.8471                 0.8468                 1.0580
 IR Inten    --      0.9216                 0.2014                12.0051

                     46                     47                     48
                      A                      A                      A
 Frequencies --    964.9718               981.1403               993.6407
 Red. masses --      2.7784                 1.2000                 2.9260
 Frc consts  --      1.5243                 0.6806                 1.7021
 IR Inten    --     46.4419                 0.2591                 1.7503

                     49                     50                     51
                      A                      A                      A
 Frequencies --   1021.5432              1043.1643              1060.7952
 Red. masses --      1.8015                 2.6049                 4.3036
 Frc consts  --      1.1076                 1.6701                 2.8533
 IR Inten    --     86.0516                44.0795                16.8643

                     52                     53                     54
                      A                      A                      A
 Frequencies --   1066.4560              1073.6105              1086.2706
 Red. masses --      1.4066                 1.4702                 5.0955
 Frc consts  --      0.9425                 0.9984                 3.5425
 IR Inten    --      0.6428                 3.0927                45.6452

                     55                     56                     57
                      A                      A                      A
 Frequencies --   1128.0245              1161.6279              1171.8849
 Red. masses --      3.6611                 1.3178                 2.3857
 Frc consts  --      2.7448                 1.0477                 1.9304
 IR Inten    --    102.7958                 0.0584                28.5786

                     58                     59                     60
                      A                      A                      A
 Frequencies --   1215.4621              1245.6570              1273.0050
 Red. masses --      2.4241                 3.2656                 4.1492
 Frc consts  --      2.1100                 2.9854                 3.9616
 IR Inten    --    194.2552                 0.5359                41.6885

                     61                     62                     63
                      A                      A                      A
 Frequencies --   1286.8815              1299.2657              1304.2508
 Red. masses --      2.7187                 2.7438                 3.2344
 Frc consts  --      2.6527                 2.7290                 3.2417
 IR Inten    --     14.8988                21.6221                 7.0583

                     64                     65                     66
                      A                      A                      A
 Frequencies --   1307.6962              1346.9077              1376.5238
 Red. masses --      1.7168                 2.0346                 2.0248
 Frc consts  --      1.7298                 2.1747                 2.2605
 IR Inten    --     16.6091               126.0044               127.1948

                     67                     68                     69
                      A                      A                      A
 Frequencies --   1417.2362              1425.8158              1427.5674
 Red. masses --      9.0893                 1.3085                 1.9259
 Frc consts  --     10.7564                 1.5673                 2.3125
 IR Inten    --      9.4874                13.0033                15.6295

                     70                     71                     72
                      A                      A                      A
 Frequencies --   1427.9961              1453.1507              1468.0265
 Red. masses --      2.3103                 1.2361                 1.1930
 Frc consts  --      2.7756                 1.5379                 1.5149
 IR Inten    --      7.8859                16.9591                 0.5786

                     73                     74                     75
                      A                      A                      A
 Frequencies --   1499.4088              1500.2929              1504.3884
 Red. masses --      1.0520                 1.2690                 1.0437
 Frc consts  --      1.3935                 1.6829                 1.3917
 IR Inten    --      1.0141                 9.4455                 6.4622

                     76                     77                     78
                      A                      A                      A
 Frequencies --   1512.4244              1517.6695              1519.1607
 Red. masses --      2.4297                 1.1200                 1.0733
 Frc consts  --      3.2746                 1.5199                 1.4595
 IR Inten    --     21.3021                 3.4863                 0.8009

                     79                     80                     81
                      A                      A                      A
 Frequencies --   1526.2412              1532.2588              1534.1237
 Red. masses --      1.0730                 1.1097                 1.1351
 Frc consts  --      1.4727                 1.5350                 1.5740
 IR Inten    --     12.0399                 7.1792                 5.2060

                     82                     83                     84
                      A                      A                      A
 Frequencies --   1554.8336              1716.2024              1786.5094
 Red. masses --      1.0558                 1.1309                 7.7418
 Frc consts  --      1.5038                 1.9626                14.5580
 IR Inten    --     14.0383                83.7102               155.6358

                     85                     86                     87
                      A                      A                      A
 Frequencies --   1812.8075              2653.9693              3060.1632
 Red. masses --     12.6417                 1.0373                 1.0352
 Frc consts  --     24.4770                 4.3048                 5.7118
 IR Inten    --    183.7903                37.2535                11.4010

                     88                     89                     90
                      A                      A                      A
 Frequencies --   3063.5067              3070.7980              3090.3850
 Red. masses --      1.0380                 1.0385                 1.0323
 Frc consts  --      5.7398                 5.7698                 5.8087
 IR Inten    --     19.8654                15.9957                18.4217

                     91                     92                     93
                      A                      A                      A
 Frequencies --   3101.2765              3125.6207              3128.8533
 Red. masses --      1.0625                 1.1025                 1.1025
 Frc consts  --      6.0208                 6.3458                 6.3589
 IR Inten    --      2.7347                 9.3005                 5.7039

                     94                     95                     96
                      A                      A                      A
 Frequencies --   3136.1409              3140.9419              3165.7006
 Red. masses --      1.1024                 1.1029                 1.1062
 Frc consts  --      6.3883                 6.4104                 6.5316
 IR Inten    --     47.6911                38.6290                 6.1641

                     97                     98                     99
                      A                      A                      A
 Frequencies --   3173.5892              3176.5243              3180.3213
 Red. masses --      1.1000                 1.0994                 1.1032
 Frc consts  --      6.5274                 6.5360                 6.5744
 IR Inten    --      0.8326                10.2185                 1.2778

                    100                    101                    102
                      A                      A                      A
 Frequencies --   3200.9460              3485.8971              3571.2311
 Red. masses --      1.1056                 1.0508                 1.0932
 Frc consts  --      6.6741                 7.5234                 8.2146
 IR Inten    --      0.5653                40.6483                40.5137

 - Thermochemistry -
 -------------------
 Temperature   298.150 Kelvin.  Pressure   1.00000 Atm.
 Atom     1 has atomic number  6 and mass  12.00000

 Molecular mass:   287.10521 amu.
 Principal axes and moments of inertia in atomic units:
                           1         2         3
     Eigenvalues --  3654.276736789.399028720.80385
           X            0.99999  -0.00198  -0.00411
           Y            0.00192   0.99991  -0.01298
           Z            0.00414   0.01297   0.99991
 This molecule is an asymmetric top.
 Rotational symmetry number  1.
 Warning -- assumption of classical behavior for rotation
           may cause significant error
 Rotational temperatures (Kelvin)      0.02370     0.01276     0.00993
 Rotational constants (GHZ):           0.49387     0.26582     0.20695
 Zero-point vibrational energy     754807.8 (Joules/Mol)
                                  180.40339 (Kcal/Mol)
 Warning -- explicit consideration of  33 degrees of freedom as
           vibrations may cause significant error
 Vibrational temperatures:     12.90    51.11    61.89    72.34    85.12
          (Kelvin)            111.08   138.01   156.47   187.81   231.32
                              249.49   298.18   302.03   309.40   363.05
                              370.08   389.24   428.43   463.45   479.57
                              491.01   511.18   524.24   545.21   600.64
                              619.95   662.54   669.33   703.70   743.05
                              771.52   873.65   881.19   971.24   999.81
                             1034.25  1080.00  1107.26  1128.38  1214.21
                             1237.32  1318.01  1349.90  1350.23  1365.30
                             1388.38  1411.64  1429.63  1469.77  1500.88
                             1526.25  1534.39  1544.69  1562.90  1622.98
                             1671.32  1686.08  1748.78  1792.22  1831.57
                             1851.54  1869.35  1876.53  1881.48  1937.90
                             1980.51  2039.09  2051.43  2053.95  2054.57
                             2090.76  2112.16  2157.31  2158.59  2164.48
                             2176.04  2183.59  2185.73  2195.92  2204.58
                             2207.26  2237.06  2469.23  2570.39  2608.23
                             3818.47  4402.89  4407.70  4418.19  4446.37
                             4462.05  4497.07  4501.72  4512.21  4519.11
                             4554.74  4566.09  4570.31  4575.77  4605.45
                             5015.43  5138.20

 Zero-point correction=                           0.287491 (Hartree/Particle)
 Thermal correction to Energy=                    0.307916
 Thermal correction to Enthalpy=                  0.308860
 Thermal correction to Gibbs Free Energy=         0.236257
 Sum of electronic and zero-point Energies=          -1288.681136
 Sum of electronic and thermal Energies=             -1288.660711
 Sum of electronic and thermal Enthalpies=           -1288.659767
 Sum of electronic and thermal Free Energies=        -1288.732370

                     E (Thermal)             CV                S
                      KCal/Mol        Cal/Mol-Kelvin    Cal/Mol-Kelvin
 Total                  193.220             74.548            152.806
 Electronic               0.000              0.000              0.000
 Translational            0.889              2.981             42.862
 Rotational               0.889              2.981             33.736
 Vibrational            191.443             68.587             76.208
 Vibration     1          0.593              1.987              8.228
 Vibration     2          0.594              1.982              5.494
 Vibration     3          0.595              1.980              5.115
 Vibration     4          0.595              1.977              4.806
 Vibration     5          0.597              1.974              4.485
 Vibration     6          0.599              1.964              3.961
 Vibration     7          0.603              1.952              3.536
 Vibration     8          0.606              1.942              3.291
 Vibration     9          0.612              1.923              2.938
 Vibration    10          0.622              1.890              2.541
 Vibration    11          0.627              1.875              2.398
 Vibration    12          0.641              1.830              2.068
 Vibration    13          0.642              1.826              2.044
 Vibration    14          0.645              1.818              2.000
 Vibration    15          0.664              1.759              1.714
 Vibration    16          0.667              1.751              1.681
 Vibration    17          0.674              1.727              1.593
 Vibration    18          0.691              1.678              1.429
 Vibration    19          0.707              1.631              1.299
 Vibration    20          0.715              1.609              1.244
 Vibration    21          0.721              1.593              1.206
 Vibration    22          0.731              1.564              1.143
 Vibration    23          0.738              1.546              1.103
 Vibration    24          0.749              1.515              1.043
 Vibration    25          0.781              1.432              0.901
 Vibration    26          0.792              1.403              0.856
 Vibration    27          0.818              1.338              0.765
 Vibration    28          0.823              1.327              0.751
 Vibration    29          0.845              1.274              0.686
 Vibration    30          0.871              1.214              0.618
 Vibration    31          0.891              1.170              0.573
 Vibration    32          0.966              1.017              0.437
 Vibration    33          0.972              1.005              0.429

 Optimization completed.
    -- Stationary point found.
 Normal termination of Gaussian 16 at Sat Dec 12 10:36:44 2020.

 ----------------------------------------------------------------------
 # B3LYP/6-311++G(d,p) empiricaldispersion=gd3bj scf=xqc pop=npa geom=c
 heck
 ----------------------------------------------------------------------

 ---------------------------------------
 CID_152171878_JID_9233_Energie_neutraal
 ---------------------------------------
 Structure from the checkpoint file:  "JID_9233.chk"
 Charge =  0 Multiplicity = 1

 SCF Done:  E(RB3LYP) =  -1289.25323274     A.U. after   18 cycles
 Normal termination of Gaussian 16 at Sat Dec 12 10:45:14 2020.

 ----------------------------------------------------------------------
 # B3LYP/6-311++G(d,p) empiricaldispersion=gd3bj scf=xqc pop=npa geom=c
 heck
 ----------------------------------------------------------------------

 -------------------------------------
 CID_152171878_JID_9233_Energie_kation
 -------------------------------------
 Structure from the checkpoint file:  "JID_9233.chk"
 Charge =  1 Multiplicity = 2

 SCF Done:  E(UB3LYP) =  -1288.93134265     A.U. after   32 cycles
 Normal termination of Gaussian 16 at Sat Dec 12 11:05:39 2020.
 Gaussian 16:  ES64L-G16RevA.03 25-Dec-2016

 ----------------------------------------------------------------------
 # B3LYP/6-311++G(d,p) empiricaldispersion=gd3bj scf=xqc pop=npa geom=c
 heck
 ----------------------------------------------------------------------

 ------------------------------------
 CID_152171878_JID_9233_Energie_anion
 ------------------------------------
 Structure from the checkpoint file:  "JID_9233.chk"
 Charge = -1 Multiplicity = 2

                         Standard orientation:
 ---------------------------------------------------------------------
 Center     Atomic      Atomic             Coordinates (Angstroms)
 Number     Number       Type             X           Y           Z
 ---------------------------------------------------------------------
      1          6           0        3.748378    0.072200   -1.215639
      2          6           0        3.046828   -0.818194   -0.191824
      3          6           0        3.714545   -2.190440   -0.103699
      4          6           0        2.955731   -0.120653    1.166857
      5          8           0        1.693084   -0.949748   -0.767346
      6          6           0        0.721056   -1.605673   -0.127659
      7          8           0        0.854793   -2.268405    0.886827
      8          6           0       -0.625917   -1.360372   -0.780845
      9          6           0       -1.474557   -0.418133    0.121540
     10          6           0       -0.747853    0.890489    0.336209
     11          7           0       -0.129101    1.592003   -0.612662
     12          7           0        0.341823    2.620947    0.083450
     13          7           0        0.046272    2.580659    1.382004
     14          7           0       -0.648854    1.480597    1.553613
     15          6           0        1.124957    3.688479   -0.510683
     16          6           0       -2.777788   -0.135650   -0.682492
     17          8           0       -2.817074    0.566664   -1.660308
     18         16           0       -4.189730   -1.034918   -0.009028
     19          7           0       -1.818055   -1.084402    1.363171
     20          1           0        4.775683    0.274616   -0.896802
     21          1           0        3.216639    1.023531   -1.318685
     22          1           0        3.775223   -0.412775   -2.196160
     23          1           0        4.760157   -2.067202    0.198778
     24          1           0        3.209772   -2.827431    0.623450
     25          1           0        3.698235   -2.683347   -1.081337
     26          1           0        2.422104    0.831064    1.076550
     27          1           0        2.440091   -0.742473    1.899506
     28          1           0        3.965931    0.088141    1.534639
     29          1           0       -0.506105   -0.901411   -1.761677
     30          1           0       -1.160455   -2.310490   -0.869179
     31          1           0        1.339746    4.409021    0.277801
     32          1           0        2.053769    3.279857   -0.915671
     33          1           0        0.549745    4.157022   -1.311524
     34          1           0       -4.996745   -0.573141   -0.993486
     35          1           0       -1.067081   -1.714396    1.640945
     36          1           0       -1.944333   -0.400918    2.106289
 ---------------------------------------------------------------------

 SCF Done:  E(UB3LYP) =  -1289.25357659     A.U. after   33 cycles
 SCF Done:  E(UB3LYP) =  -1289.25357659     a.u. after    1 cycles

 The electronic state is 2-A.
 Alpha  occ. eigenvalues --  -88.74251 -19.06291 -19.01049 -18.99503 -14.30932
 Alpha  occ. eigenvalues --  -14.25734 -14.22685 -14.22452 -14.19055 -10.20040
 Alpha  occ. eigenvalues --  -10.14992 -10.14826 -10.13112 -10.12029 -10.11385
 Alpha  occ. eigenvalues --  -10.08288 -10.07054 -10.06743 -10.06415  -7.82896
 Alpha  occ. eigenvalues --   -5.79238  -5.78840  -5.78392  -1.02695  -1.00464
 Alpha  occ. eigenvalues --   -0.93692  -0.92186  -0.83431  -0.81067  -0.76955
 Alpha  occ. eigenvalues --   -0.72469  -0.66701  -0.64829  -0.64403  -0.60523
 Alpha  occ. eigenvalues --   -0.60166  -0.58167  -0.53349  -0.51640  -0.50744
 Alpha  occ. eigenvalues --   -0.43981  -0.42701  -0.41574  -0.40359  -0.39766
 Alpha  occ. eigenvalues --   -0.38803  -0.38320  -0.37681  -0.36448  -0.35044
 Alpha  occ. eigenvalues --   -0.34271  -0.33211  -0.32997  -0.32456  -0.31905
 Alpha  occ. eigenvalues --   -0.31127  -0.30569  -0.29928  -0.28869  -0.28585
 Alpha  occ. eigenvalues --   -0.27765  -0.27437  -0.26562  -0.26064  -0.25833
 Alpha  occ. eigenvalues --   -0.24770  -0.23773  -0.21129  -0.20217  -0.19497
 Alpha  occ. eigenvalues --   -0.18135  -0.17794  -0.17678  -0.16118  -0.15403
 Alpha  occ. eigenvalues --   -0.13068   0.04141
 Alpha virt. eigenvalues --    0.05858   0.07089   0.07568   0.08453   0.08682
 Alpha virt. eigenvalues --    0.09013   0.09624   0.10304   0.10740   0.11153
 Alpha virt. eigenvalues --    0.11252   0.11435   0.11887   0.12467   0.13013

  Beta  occ. eigenvalues --  -88.74251 -19.06269 -19.01021 -18.99285 -14.30674
  Beta  occ. eigenvalues --  -14.25502 -14.22476 -14.22473 -14.19053 -10.19978
  Beta  occ. eigenvalues --  -10.14991 -10.14545 -10.13132 -10.12023 -10.11380
  Beta  occ. eigenvalues --  -10.08253 -10.07035 -10.06710 -10.06405  -7.82896
  Beta  occ. eigenvalues --   -5.79243  -5.78848  -5.78379  -1.02370  -1.00400
  Beta  occ. eigenvalues --   -0.93255  -0.92133  -0.83153  -0.80950  -0.76693
  Beta  occ. eigenvalues --   -0.72435  -0.66587  -0.64673  -0.64274  -0.60484
  Beta  occ. eigenvalues --   -0.60131  -0.58023  -0.53248  -0.51395  -0.50517
  Beta  occ. eigenvalues --   -0.43731  -0.42615  -0.41421  -0.39724  -0.39599
  Beta  occ. eigenvalues --   -0.38592  -0.38237  -0.37576  -0.36328  -0.34936
  Beta  occ. eigenvalues --   -0.34138  -0.33062  -0.32921  -0.32398  -0.31690
  Beta  occ. eigenvalues --   -0.30930  -0.30376  -0.29810  -0.28606  -0.28206
  Beta  occ. eigenvalues --   -0.27656  -0.27111  -0.26472  -0.25929  -0.25765
  Beta  occ. eigenvalues --   -0.24443  -0.23701  -0.20926  -0.19441  -0.19183
  Beta  occ. eigenvalues --   -0.18017  -0.17638  -0.17149  -0.15775  -0.15044
  Beta  occ. eigenvalues --   -0.12916
  Beta virt. eigenvalues --    0.06440   0.07484   0.08041   0.08561   0.08781
  Beta virt. eigenvalues --    0.09131   0.09613   0.10237   0.10605   0.10807
  Beta virt. eigenvalues --    0.11187   0.11300   0.11680   0.11991   0.12470

 Mulliken charges and spin densities:
               1          2
     1  C    0.416171  -0.802012
     2  C   -0.689885   0.669397
     3  C   -0.257570  -0.212778
     4  C   -0.108744  -0.427188
     5  O    0.233627  -0.005272
     6  C   -0.156727  -0.022639
     7  O   -0.242077   0.013337
     8  C   -0.881411  -0.015952
     9  C    1.667018   0.327345
    10  C   -1.105851  -0.449142
    11  N   -0.075511   0.200033
    12  N    0.223736   0.046294
    13  N   -0.057597   0.109255
    14  N   -0.157996  -0.017447
    15  C    0.215922  -0.520187
    16  C   -0.554700   0.221173
    17  O   -0.273646   0.075949
    18  S   -0.092524   0.029644
    19  N   -0.218763  -0.034259
    20  H   -0.295239   0.442123
    21  H    0.236946  -0.100897
    22  H   -0.057692   0.205828
    23  H   -0.016374   0.172108
    24  H    0.094510   0.097134
    25  H    0.119795   0.019637
    26  H    0.060305   0.075894
    27  H    0.202766   0.000614
    28  H   -0.019973   0.186775
    29  H    0.200010   0.019148
    30  H    0.164861   0.023312
    31  H    0.084851   0.080562
    32  H   -0.379683   0.581589
    33  H    0.165808   0.010609
    34  H    0.049987   0.001153
    35  H    0.254088   0.001174
    36  H    0.251559  -0.002314
 Sum of Mulliken charges =  -1.00000   1.00000

 Dipole moment (field-independent basis, Debye):
    X=             -0.1477    Y=             -1.3442    Z=             -0.2218  Tot=              1.3704
 Quadrupole moment (field-independent basis, Debye-Ang):
   XX=           -184.4999   YY=           -148.9774   ZZ=           -147.2193
   XY=             -4.7107   XZ=              2.2108   YZ=              1.1291

 Summary of Natural Population Analysis:

                                       Natural Population
                Natural  -----------------------------------------------
    Atom  No    Charge         Core      Valence    Rydberg      Total
 -----------------------------------------------------------------------
      C    1   -0.28825      0.99960     2.28122    0.00743     3.28825
      C    2    0.13318      0.99953     1.85366    0.01362     2.86682
      C    3   -0.30101      0.99960     2.29509    0.00632     3.30101
      C    4   -0.30227      0.99960     2.29562    0.00705     3.30227
      O    5   -0.28453      0.99984     3.27373    0.01096     4.28453
      C    6    0.42274      0.99968     1.55186    0.02572     2.57726
      O    7   -0.32331      0.99987     3.31829    0.00515     4.32331
      C    8   -0.22431      0.99956     2.21609    0.00866     3.22431
      C    9    0.00657      0.99947     1.97873    0.01522     2.99343
      C   10    0.14760      0.99960     1.83000    0.02280     2.85240
      N   11   -0.11164      0.99968     2.60048    0.01148     3.61164
      N   12    0.01408      0.99972     2.47027    0.01593     3.48592
      N   13   -0.01516      0.99977     2.49867    0.01672     3.51516
      N   14   -0.17084      0.99970     2.65885    0.01229     3.67084
      C   15   -0.17736      0.99964     2.17033    0.00739     3.17736
      C   16    0.25590      0.99965     1.71644    0.02801     2.74410
      O   17   -0.26628      0.99986     3.25744    0.00898     4.26628
      S   18   -0.01925      4.99957     3.00535    0.01433     8.01925
      N   19   -0.42454      0.99975     2.91617    0.00862     3.92454
      H   20    0.10102      0.00000     0.39781    0.00117     0.39898
      H   21    0.10715      0.00000     0.39144    0.00141     0.39285
      H   22    0.10180      0.00000     0.39727    0.00093     0.39820
      H   23    0.10147      0.00000     0.39776    0.00078     0.39853
      H   24    0.11352      0.00000     0.38564    0.00083     0.38648
      H   25    0.10077      0.00000     0.39845    0.00078     0.39923
      H   26    0.10674      0.00000     0.39141    0.00186     0.39326
      H   27    0.11262      0.00000     0.38639    0.00100     0.38738
      H   28    0.10101      0.00000     0.39818    0.00081     0.39899
      H   29    0.12359      0.00000     0.37511    0.00131     0.37641
      H   30    0.11309      0.00000     0.38575    0.00117     0.38691
      H   31    0.10612      0.00000     0.39285    0.00103     0.39388
      H   32    0.10620      0.00000     0.39206    0.00174     0.39380
      H   33    0.10162      0.00000     0.39755    0.00083     0.39838
      H   34    0.05009      0.00000     0.44631    0.00361     0.44991
      H   35    0.19229      0.00000     0.30578    0.00193     0.30771
      H   36    0.18958      0.00000     0.30910    0.00132     0.31042
 =======================================================================
   * Total *   -0.00000     22.99367    52.73714    0.26918    76.00000

 Normal termination of Gaussian 16 at Sat Dec 12 11:26:48 2020.
