 Gaussian 16, Revision A.03,

 -----------------------------------------------------------
 # opt freq B3LYP/6-31G(d) empiricaldispersion=gd3bj scf=xqc
 -----------------------------------------------------------

 ------------------------------
 CID_62536022_JID_2062_neutraal
 ------------------------------
 Symbolic Z-matrix:
 Charge =  0 Multiplicity = 1

 SCF Done:  E(RB3LYP) =  -540.932516227     A.U. after   13 cycles
 SCF Done:  E(RB3LYP) =  -540.935823808     A.U. after   11 cycles
 SCF Done:  E(RB3LYP) =  -540.935963744     A.U. after   10 cycles
 SCF Done:  E(RB3LYP) =  -540.936858970     A.U. after   10 cycles
 SCF Done:  E(RB3LYP) =  -540.937122299     A.U. after   11 cycles
 SCF Done:  E(RB3LYP) =  -540.937462396     A.U. after   11 cycles
 SCF Done:  E(RB3LYP) =  -540.937862085     A.U. after   11 cycles
 SCF Done:  E(RB3LYP) =  -540.937730211     A.U. after   11 cycles
 SCF Done:  E(RB3LYP) =  -540.938503466     A.U. after   10 cycles
 SCF Done:  E(RB3LYP) =  -540.939072431     A.U. after   11 cycles
 SCF Done:  E(RB3LYP) =  -540.948806480     A.U. after   10 cycles
 SCF Done:  E(RB3LYP) =  -540.948818652     A.U. after   10 cycles
 SCF Done:  E(RB3LYP) =  -540.948820091     A.U. after    9 cycles
 SCF Done:  E(RB3LYP) =  -540.948820796     A.U. after    7 cycles
 SCF Done:  E(RB3LYP) =  -540.948820658     A.U. after    7 cycles
 SCF Done:  E(RB3LYP) =  -540.948820831     A.U. after    6 cycles
 Optimization completed.
    -- Stationary point found.
 Normal termination of Gaussian 16 at Wed Dec  9 17:00:20 2020.

 --------------------------------------------------------------------
 #N Geom=AllCheck Guess=TCheck SCRF=Check GenChk RB3LYP/6-31G(d) Freq
 --------------------------------------------------------------------

 Structure from the checkpoint file:  "JID_2062.chk"
 ------------------------------
 CID_62536022_JID_2062_neutraal
 ------------------------------
 Charge =  0 Multiplicity = 1

 SCF Done:  E(RB3LYP) =  -540.948820831     A.U. after    1 cycles

  Exact polarizability: 128.046   0.083 114.310  -0.001  -2.269 101.525
 Approx polarizability: 158.347   1.843 151.515   1.666  -3.502 150.020

                      1                      2                      3
                      A                      A                      A
 Frequencies --     34.1047                43.2378                66.8114
 Red. masses --      3.1263                 3.6656                 2.6277
 Frc consts  --      0.0021                 0.0040                 0.0069
 IR Inten    --      0.1531                 0.0826                 0.0459

                      4                      5                      6
                      A                      A                      A
 Frequencies --     83.0880               124.9525               136.6630
 Red. masses --      2.9436                 2.6573                 2.1574
 Frc consts  --      0.0120                 0.0244                 0.0237
 IR Inten    --      0.8820                 7.3673                 0.6986

                      7                      8                      9
                      A                      A                      A
 Frequencies --    154.9527               183.6599               221.4583
 Red. masses --      3.3167                 2.3277                 1.8668
 Frc consts  --      0.0469                 0.0463                 0.0539
 IR Inten    --      0.1240                 0.5693                 0.2143

                     10                     11                     12
                      A                      A                      A
 Frequencies --    232.5917               247.4308               260.1621
 Red. masses --      1.2110                 1.4508                 1.2516
 Frc consts  --      0.0386                 0.0523                 0.0499
 IR Inten    --      0.9459                 6.1722                 0.1664

                     13                     14                     15
                      A                      A                      A
 Frequencies --    270.3608               313.3106               322.2225
 Red. masses --      1.2218                 2.0548                 2.1817
 Frc consts  --      0.0526                 0.1188                 0.1335
 IR Inten    --      0.6253                 2.5669                 4.4373

                     16                     17                     18
                      A                      A                      A
 Frequencies --    355.6022               381.8324               391.6110
 Red. masses --      2.5421                 2.2458                 2.4169
 Frc consts  --      0.1894                 0.1929                 0.2184
 IR Inten    --      0.5877                 6.0545                 1.6832

                     19                     20                     21
                      A                      A                      A
 Frequencies --    403.0831               433.5495               500.5853
 Red. masses --      2.0056                 2.0376                 2.4434
 Frc consts  --      0.1920                 0.2257                 0.3607
 IR Inten    --      2.2479                 0.6179                 1.9163

                     22                     23                     24
                      A                      A                      A
 Frequencies --    614.9374               633.6953               727.2972
 Red. masses --      2.4847                 2.5385                 2.0707
 Frc consts  --      0.5536                 0.6006                 0.6454
 IR Inten    --      5.2169                13.0359                84.9305

                     25                     26                     27
                      A                      A                      A
 Frequencies --    748.9795               826.2966               849.0478
 Red. masses --      1.4095                 2.5683                 2.4628
 Frc consts  --      0.4659                 1.0332                 1.0460
 IR Inten    --     16.8795                 2.2683                 0.3536

                     28                     29                     30
                      A                      A                      A
 Frequencies --    896.0153               930.4221               947.4714
 Red. masses --      2.4017                 1.6341                 1.8025
 Frc consts  --      1.1361                 0.8335                 0.9533
 IR Inten    --     29.6679                 9.5711                 2.8451

                     31                     32                     33
                      A                      A                      A
 Frequencies --    972.2321              1008.4743              1016.7932
 Red. masses --      1.9420                 1.9603                 1.6988
 Frc consts  --      1.0816                 1.1747                 1.0348
 IR Inten    --     16.8397                24.9094                 4.3620

                     34                     35                     36
                      A                      A                      A
 Frequencies --   1074.2597              1084.1684              1099.4231
 Red. masses --      1.8332                 1.6196                 2.2822
 Frc consts  --      1.2465                 1.1216                 1.6253
 IR Inten    --     21.0786                16.3904                 8.9435

                     37                     38                     39
                      A                      A                      A
 Frequencies --   1104.2188              1137.0464              1146.8469
 Red. masses --      1.8595                 1.2872                 2.2186
 Frc consts  --      1.3358                 0.9805                 1.7192
 IR Inten    --     38.3352                12.4991                23.6504

                     40                     41                     42
                      A                      A                      A
 Frequencies --   1160.2327              1178.4754              1182.0116
 Red. masses --      3.0065                 1.7816                 1.7310
 Frc consts  --      2.3845                 1.4579                 1.4249
 IR Inten    --     67.4509                21.6938                30.4525

                     43                     44                     45
                      A                      A                      A
 Frequencies --   1200.3947              1203.4614              1227.2029
 Red. masses --      1.3854                 1.9337                 2.0188
 Frc consts  --      1.1762                 1.6500                 1.7913
 IR Inten    --      0.7637                22.7257                13.0110

                     46                     47                     48
                      A                      A                      A
 Frequencies --   1232.7485              1273.3872              1287.9407
 Red. masses --      1.6735                 1.2307                 1.4112
 Frc consts  --      1.4984                 1.1758                 1.3793
 IR Inten    --     32.8585                 4.6225                22.5965

                     49                     50                     51
                      A                      A                      A
 Frequencies --   1303.3491              1320.3885              1340.8093
 Red. masses --      1.5462                 2.2936                 1.3405
 Frc consts  --      1.5475                 2.3560                 1.4199
 IR Inten    --      8.8501                12.1186                10.5049

                     52                     53                     54
                      A                      A                      A
 Frequencies --   1360.5820              1385.8747              1402.5661
 Red. masses --      1.4627                 1.3507                 1.3012
 Frc consts  --      1.5953                 1.5285                 1.5081
 IR Inten    --     11.4406                13.7865                 5.4017

                     55                     56                     57
                      A                      A                      A
 Frequencies --   1415.3111              1424.8167              1438.1087
 Red. masses --      1.2650                 1.2737                 1.2854
 Frc consts  --      1.4929                 1.5235                 1.5663
 IR Inten    --     15.1448                 4.2053                18.1930

                     58                     59                     60
                      A                      A                      A
 Frequencies --   1450.2637              1467.9584              1496.7153
 Red. masses --      1.3140                 1.1594                 1.1857
 Frc consts  --      1.6283                 1.4721                 1.5650
 IR Inten    --     10.5414                 0.7139                10.3002

                     61                     62                     63
                      A                      A                      A
 Frequencies --   1501.3863              1502.5083              1507.0871
 Red. masses --      1.1166                 1.1494                 1.1616
 Frc consts  --      1.4830                 1.5288                 1.5544
 IR Inten    --      6.5524                 3.5820                25.4284

                     64                     65                     66
                      A                      A                      A
 Frequencies --   1513.0701              1514.1943              1518.9299
 Red. masses --      1.0672                 1.0496                 1.0565
 Frc consts  --      1.4396                 1.4178                 1.4362
 IR Inten    --      0.4793                 6.1387                16.5581

                     67                     68                     69
                      A                      A                      A
 Frequencies --   1520.7225              1527.4826              1530.1056
 Red. masses --      1.0614                 1.0652                 1.0533
 Frc consts  --      1.4462                 1.4643                 1.4530
 IR Inten    --      5.7661                15.0442                 8.3226

                     70                     71                     72
                      A                      A                      A
 Frequencies --   1533.3852              1535.9575              1540.3342
 Red. masses --      1.0632                 1.0981                 1.0776
 Frc consts  --      1.4729                 1.5263                 1.5064
 IR Inten    --      2.5993                 9.0928                12.3125

                     73                     74                     75
                      A                      A                      A
 Frequencies --   1544.5319              1556.4346              2914.4366
 Red. masses --      1.0823                 1.0871                 1.0736
 Frc consts  --      1.5213                 1.5516                 5.3727
 IR Inten    --      7.0316                 6.3578                40.9905

                     76                     77                     78
                      A                      A                      A
 Frequencies --   2927.7140              2939.8628              2979.1821
 Red. masses --      1.0617                 1.0634                 1.0575
 Frc consts  --      5.3619                 5.4152                 5.5298
 IR Inten    --     41.1847               199.8748                33.5736

                     79                     80                     81
                      A                      A                      A
 Frequencies --   2993.6793              3025.1034              3033.3739
 Red. masses --      1.0426                 1.0925                 1.0684
 Frc consts  --      5.5055                 5.8905                 5.7921
 IR Inten    --     83.4200                52.6371                57.6367

                     82                     83                     84
                      A                      A                      A
 Frequencies --   3034.8431              3037.7511              3044.9963
 Red. masses --      1.0811                 1.1036                 1.0635
 Frc consts  --      5.8667                 6.0001                 5.8098
 IR Inten    --     15.7668                49.6186                95.2503

                     85                     86                     87
                      A                      A                      A
 Frequencies --   3053.6202              3064.1173              3077.3843
 Red. masses --      1.0386                 1.1010                 1.0701
 Frc consts  --      5.7062                 6.0903                 5.9706
 IR Inten    --     34.2452                 9.3405                28.5268

                     88                     89                     90
                      A                      A                      A
 Frequencies --   3085.6632              3087.8279              3120.8649
 Red. masses --      1.0732                 1.0990                 1.0989
 Frc consts  --      6.0202                 6.1737                 6.3061
 IR Inten    --     19.6336                89.7960                36.1975

                     91                     92                     93
                      A                      A                      A
 Frequencies --   3122.3898              3130.9959              3132.0499
 Red. masses --      1.1023                 1.0957                 1.0939
 Frc consts  --      6.3316                 6.3286                 6.3222
 IR Inten    --     14.0325                33.9216                22.0102

                     94                     95                     96
                      A                      A                      A
 Frequencies --   3134.6535              3146.2216              3536.7579
 Red. masses --      1.0971                 1.1029                 1.0732
 Frc consts  --      6.3518                 6.4325                 7.9097
 IR Inten    --     31.4196                25.1120                 7.2156

 - Thermochemistry -
 -------------------
 Temperature   298.150 Kelvin.  Pressure   1.00000 Atm.
 Atom     1 has atomic number  6 and mass  12.00000

 Molecular mass:   174.17321 amu.
 Principal axes and moments of inertia in atomic units:
                           1         2         3
     Eigenvalues --  1570.732333010.917603736.64711
           X            1.00000  -0.00275   0.00153
           Y            0.00275   1.00000  -0.00078
           Z           -0.00153   0.00079   1.00000
 This molecule is an asymmetric top.
 Rotational symmetry number  1.
 Warning -- assumption of classical behavior for rotation
           may cause significant error
 Rotational temperatures (Kelvin)      0.05514     0.02877     0.02318
 Rotational constants (GHZ):           1.14898     0.59940     0.48298
 Zero-point vibrational energy     829616.9 (Joules/Mol)
                                  198.28320 (Kcal/Mol)
 Warning -- explicit consideration of  22 degrees of freedom as
           vibrations may cause significant error
 Vibrational temperatures:     49.07    62.21    96.13   119.55   179.78
          (Kelvin)            196.63   222.94   264.25   318.63   334.65
                              356.00   374.32   388.99   450.78   463.61
                              511.63   549.37   563.44   579.95   623.78
                              720.23   884.76   911.75  1046.42  1077.61
                             1188.86  1221.59  1289.17  1338.67  1363.20
                             1398.83  1450.97  1462.94  1545.62  1559.88
                             1581.82  1588.72  1635.96  1650.06  1669.32
                             1695.56  1700.65  1727.10  1731.51  1765.67
                             1773.65  1832.12  1853.06  1875.23  1899.74
                             1929.13  1957.57  1993.96  2017.98  2036.32
                             2049.99  2069.12  2086.61  2112.06  2153.44
                             2160.16  2161.77  2168.36  2176.97  2178.59
                             2185.40  2187.98  2197.71  2201.48  2206.20
                             2209.90  2216.20  2222.24  2239.36  4193.22
                             4212.33  4229.81  4286.38  4307.24  4352.45
                             4364.35  4366.46  4370.65  4381.07  4393.48
                             4408.58  4427.67  4439.58  4442.70  4490.23
                             4492.42  4504.80  4506.32  4510.07  4526.71
                             5088.61

 Zero-point correction=                           0.315984 (Hartree/Particle)
 Thermal correction to Energy=                    0.331074
 Thermal correction to Enthalpy=                  0.332018
 Thermal correction to Gibbs Free Energy=         0.273735
 Sum of electronic and zero-point Energies=           -540.632836
 Sum of electronic and thermal Energies=              -540.617747
 Sum of electronic and thermal Enthalpies=            -540.616803
 Sum of electronic and thermal Free Energies=         -540.675086

                     E (Thermal)             CV                S
                      KCal/Mol        Cal/Mol-Kelvin    Cal/Mol-Kelvin
 Total                  207.752             55.113            122.667
 Electronic               0.000              0.000              0.000
 Translational            0.889              2.981             41.372
 Rotational               0.889              2.981             31.247
 Vibrational            205.974             49.152             50.048
 Vibration     1          0.594              1.983              5.575
 Vibration     2          0.595              1.980              5.105
 Vibration     3          0.598              1.970              4.245
 Vibration     4          0.600              1.961              3.817
 Vibration     5          0.610              1.928              3.022
 Vibration     6          0.614              1.917              2.850
 Vibration     7          0.620              1.897              2.611
 Vibration     8          0.631              1.862              2.291
 Vibration     9          0.648              1.808              1.947
 Vibration    10          0.653              1.791              1.859
 Vibration    11          0.661              1.767              1.749
 Vibration    12          0.668              1.746              1.661
 Vibration    13          0.674              1.728              1.594
 Vibration    14          0.701              1.648              1.345
 Vibration    15          0.707              1.631              1.299
 Vibration    16          0.731              1.564              1.141
 Vibration    17          0.751              1.509              1.032
 Vibration    18          0.759              1.488              0.994
 Vibration    19          0.768              1.463              0.951
 Vibration    20          0.794              1.397              0.847
 Vibration    21          0.856              1.249              0.657
 Vibration    22          0.974              1.000              0.425

 Optimization completed.
    -- Stationary point found.
 Normal termination of Gaussian 16 at Wed Dec  9 17:09:24 2020.

 ----------------------------------------------------------------------
 # B3LYP/6-311++G(d,p) empiricaldispersion=gd3bj scf=xqc pop=npa geom=c
 heck
 ----------------------------------------------------------------------

 --------------------------------------
 CID_62536022_JID_2062_Energie_neutraal
 --------------------------------------
 Structure from the checkpoint file:  "JID_2062.chk"
 Charge =  0 Multiplicity = 1

 SCF Done:  E(RB3LYP) =  -541.108563945     A.U. after   14 cycles
 Normal termination of Gaussian 16 at Wed Dec  9 17:13:42 2020.

 ----------------------------------------------------------------------
 # B3LYP/6-311++G(d,p) empiricaldispersion=gd3bj scf=xqc pop=npa geom=c
 heck
 ----------------------------------------------------------------------

 ------------------------------------
 CID_62536022_JID_2062_Energie_kation
 ------------------------------------
 Structure from the checkpoint file:  "JID_2062.chk"
 Charge =  1 Multiplicity = 2

 SCF Done:  E(UB3LYP) =  -540.835096731     A.U. after   20 cycles
 Normal termination of Gaussian 16 at Wed Dec  9 17:20:46 2020.
 Gaussian 16:  ES64L-G16RevA.03 25-Dec-2016

 ----------------------------------------------------------------------
 # B3LYP/6-311++G(d,p) empiricaldispersion=gd3bj scf=xqc pop=npa geom=c
 heck
 ----------------------------------------------------------------------

 -----------------------------------
 CID_62536022_JID_2062_Energie_anion
 -----------------------------------
 Structure from the checkpoint file:  "JID_2062.chk"
 Charge = -1 Multiplicity = 2

                         Standard orientation:
 ---------------------------------------------------------------------
 Center     Atomic      Atomic             Coordinates (Angstroms)
 Number     Number       Type             X           Y           Z
 ---------------------------------------------------------------------
      1          6           0        2.925797   -1.082774   -1.225809
      2          6           0        1.929526   -1.070862   -0.058539
      3          6           0        2.049958    0.248610    0.722726
      4          8           0        1.629426    1.311144   -0.121264
      5          6           0        1.769542    2.576846    0.485558
      6          7           0        0.600125   -1.379311   -0.570287
      7          6           0       -0.397489   -1.953361    0.320047
      8          6           0       -1.050608   -1.044926    1.386759
      9          6           0       -1.467777    0.326373    0.842477
     10          7           0       -2.159561    0.255257   -0.444573
     11          6           0       -3.479828   -0.344949   -0.336330
     12          6           0       -2.226750    1.565678   -1.074087
     13          1           0        2.680158   -0.288490   -1.938074
     14          1           0        2.877008   -2.042136   -1.747114
     15          1           0        3.951889   -0.916383   -0.876289
     16          1           0        2.199248   -1.873614    0.642371
     17          1           0        1.434865    0.229205    1.635077
     18          1           0        3.096431    0.409021    1.033580
     19          1           0        1.159412    2.658246    1.399636
     20          1           0        2.818482    2.783767    0.749504
     21          1           0        1.428566    3.323285   -0.236591
     22          1           0        0.206279   -0.589040   -1.073806
     23          1           0       -1.194596   -2.344978   -0.321942
     24          1           0        0.053660   -2.821707    0.818480
     25          1           0       -1.915124   -1.578012    1.805457
     26          1           0       -0.368897   -0.877205    2.230270
     27          1           0       -2.074243    0.861170    1.601817
     28          1           0       -0.568120    0.922407    0.674276
     29          1           0       -4.162147    0.232935    0.318760
     30          1           0       -3.936274   -0.410211   -1.329687
     31          1           0       -3.403970   -1.359454    0.065280
     32          1           0       -2.811201    2.301970   -0.486816
     33          1           0       -1.212823    1.957659   -1.205104
     34          1           0       -2.692182    1.476979   -2.061769
 ---------------------------------------------------------------------

 SCF Done:  E(UB3LYP) =  -541.092620484     A.U. after   27 cycles

 The electronic state is 2-A.
 Alpha  occ. eigenvalues --  -19.02721 -14.20556 -14.18331 -10.10974 -10.10878
 Alpha  occ. eigenvalues --  -10.09868 -10.08708 -10.08608 -10.08521 -10.08380
 Alpha  occ. eigenvalues --  -10.06068 -10.05463  -0.94002  -0.82544  -0.79786
 Alpha  occ. eigenvalues --   -0.68094  -0.64723  -0.60801  -0.60427  -0.57541
 Alpha  occ. eigenvalues --   -0.55062  -0.51723  -0.48027  -0.46034  -0.40204
 Alpha  occ. eigenvalues --   -0.39098  -0.38747  -0.37518  -0.36409  -0.35938
 Alpha  occ. eigenvalues --   -0.34771  -0.33589  -0.32509  -0.31181  -0.30040
 Alpha  occ. eigenvalues --   -0.29790  -0.29069  -0.28385  -0.26912  -0.26422
 Alpha  occ. eigenvalues --   -0.26247  -0.24909  -0.23922  -0.23207  -0.22611
 Alpha  occ. eigenvalues --   -0.22351  -0.16366  -0.12484  -0.11074   0.04536
 Alpha virt. eigenvalues --    0.06443   0.07028   0.07793   0.08697   0.08984
 Alpha virt. eigenvalues --    0.09131   0.09990   0.10270   0.11038   0.11428
 Alpha virt. eigenvalues --    0.11818   0.12152   0.12412   0.13158   0.13882

  Beta  occ. eigenvalues --  -19.02712 -14.20546 -14.18331 -10.10950 -10.10832
  Beta  occ. eigenvalues --  -10.09860 -10.08680 -10.08600 -10.08501 -10.08367
  Beta  occ. eigenvalues --  -10.06049 -10.05451  -0.93986  -0.82522  -0.79776
  Beta  occ. eigenvalues --   -0.68066  -0.64691  -0.60759  -0.60380  -0.57507
  Beta  occ. eigenvalues --   -0.54986  -0.51674  -0.47981  -0.45984  -0.40163
  Beta  occ. eigenvalues --   -0.39045  -0.38719  -0.37489  -0.36377  -0.35900
  Beta  occ. eigenvalues --   -0.34743  -0.33558  -0.32469  -0.31150  -0.30014
  Beta  occ. eigenvalues --   -0.29752  -0.29044  -0.28362  -0.26884  -0.26394
  Beta  occ. eigenvalues --   -0.26219  -0.24881  -0.23892  -0.23176  -0.22585
  Beta  occ. eigenvalues --   -0.22298  -0.16342  -0.12434  -0.11050
  Beta virt. eigenvalues --    0.06638   0.07334   0.07677   0.08285   0.09249
  Beta virt. eigenvalues --    0.09416   0.09542   0.10426   0.10581   0.11424
  Beta virt. eigenvalues --    0.11975   0.12090   0.12435   0.12612   0.13523

 Mulliken charges and spin densities:
               1          2
     1  C    0.264341  -0.693992
     2  C   -0.762342   0.306867
     3  C    0.057911  -0.395430
     4  O   -0.150949   0.055367
     5  C    1.063955  -1.288984
     6  N    0.176211  -0.053849
     7  C   -0.815689   0.385743
     8  C    1.140692  -1.314674
     9  C   -1.332153   0.899657
    10  N    0.083565   0.024371
    11  C    0.520176  -0.859820
    12  C    0.123310  -0.431204
    13  H    0.092369   0.063793
    14  H    0.049952   0.104203
    15  H   -0.051845   0.168386
    16  H   -0.197687   0.341916
    17  H    0.176139  -0.061483
    18  H   -0.258379   0.416922
    19  H   -0.600283   0.746366
    20  H   -0.560336   0.699115
    21  H   -0.205764   0.340824
    22  H    0.370166  -0.096627
    23  H   -0.005640   0.185586
    24  H   -0.000939   0.132460
    25  H    0.073297   0.098237
    26  H   -0.361138   0.509963
    27  H   -0.549378   0.676516
    28  H    1.153108  -1.184083
    29  H   -0.078159   0.193680
    30  H   -0.125477   0.261501
    31  H   -0.122023   0.227679
    32  H   -0.137338   0.266489
    33  H    0.096619   0.027317
    34  H   -0.126289   0.247190
 Sum of Mulliken charges =  -1.00000   1.00000

 Dipole moment (field-independent basis, Debye):
    X=             -0.5933    Y=             -3.2063    Z=             -2.5317  Tot=              4.1282
 Quadrupole moment (field-independent basis, Debye-Ang):
   XX=           -145.5987   YY=           -127.4586   ZZ=           -117.8917
   XY=             -5.2039   XZ=             -3.2238   YZ=             -5.8671

 Summary of Natural Population Analysis:

                                       Natural Population
                Natural  -----------------------------------------------
    Atom  No    Charge         Core      Valence    Rydberg      Total
 -----------------------------------------------------------------------
      C    1   -0.28589      0.99964     2.27939    0.00686     3.28589
      C    2   -0.01940      0.99960     2.00658    0.01322     3.01940
      C    3   -0.01544      0.99956     2.00324    0.01265     3.01544
      O    4   -0.30509      0.99988     3.29593    0.00927     4.30509
      C    5   -0.09693      0.99962     2.08771    0.00960     3.09693
      N    6   -0.34888      0.99973     2.83725    0.01190     3.84888
      C    7   -0.08473      0.99962     2.07223    0.01288     3.08473
      C    8   -0.20392      0.99962     2.19607    0.00823     3.20392
      C    9   -0.09195      0.99960     2.08022    0.01212     3.09195
      N   10   -0.28495      0.99973     2.77302    0.01220     3.78495
      C   11   -0.17731      0.99964     2.16911    0.00856     3.17731
      C   12   -0.17579      0.99964     2.16754    0.00860     3.17579
      H   13    0.10210      0.00000     0.39671    0.00119     0.39790
      H   14    0.09992      0.00000     0.39905    0.00103     0.40008
      H   15    0.09548      0.00000     0.40375    0.00077     0.40452
      H   16    0.09102      0.00000     0.40736    0.00162     0.40898
      H   17    0.08184      0.00000     0.41609    0.00207     0.41816
      H   18    0.08227      0.00000     0.41607    0.00166     0.41773
      H   19    0.08038      0.00000     0.41762    0.00200     0.41962
      H   20    0.08129      0.00000     0.41659    0.00213     0.41871
      H   21    0.08991      0.00000     0.40881    0.00128     0.41009
      H   22    0.18307      0.00000     0.31309    0.00384     0.31693
      H   23    0.09335      0.00000     0.40541    0.00125     0.40665
      H   24    0.08932      0.00000     0.40961    0.00107     0.41068
      H   25    0.09554      0.00000     0.40317    0.00129     0.40446
      H   26    0.09753      0.00000     0.40111    0.00136     0.40247
      H   27    0.08319      0.00000     0.41503    0.00178     0.41681
      H   28    0.10209      0.00000     0.39454    0.00338     0.39791
      H   29    0.08089      0.00000     0.41762    0.00149     0.41911
      H   30    0.09427      0.00000     0.40473    0.00100     0.40573
      H   31    0.09507      0.00000     0.40371    0.00122     0.40493
      H   32    0.08033      0.00000     0.41836    0.00131     0.41967
      H   33    0.09883      0.00000     0.39968    0.00148     0.40117
      H   34    0.09259      0.00000     0.40643    0.00097     0.40741
 =======================================================================
   * Total *    0.00000     11.99590    36.84282    0.16128    49.00000

 Normal termination of Gaussian 16 at Wed Dec  9 17:30:49 2020.
