 Gaussian 16, Revision A.03,

 -----------------------------------------------------------
 # opt freq B3LYP/6-31G(d) empiricaldispersion=gd3bj scf=xqc
 -----------------------------------------------------------

 ------------------------------
 CID_65044301_JID_6288_neutraal
 ------------------------------
 Symbolic Z-matrix:
 Charge =  0 Multiplicity = 1

 SCF Done:  E(RB3LYP) =  -1126.48428191     A.U. after   14 cycles
 SCF Done:  E(RB3LYP) =  -1126.48844317     A.U. after   15 cycles
 SCF Done:  E(RB3LYP) =  -1126.49214244     A.U. after   14 cycles
 SCF Done:  E(RB3LYP) =  -1126.49205539     A.U. after   15 cycles
 SCF Done:  E(RB3LYP) =  -1126.49662788     A.U. after   14 cycles
 SCF Done:  E(RB3LYP) =  -1126.49860533     A.U. after   14 cycles
 SCF Done:  E(RB3LYP) =  -1126.49984759     A.U. after   13 cycles
 SCF Done:  E(RB3LYP) =  -1126.50112884     A.U. after   14 cycles
 SCF Done:  E(RB3LYP) =  -1126.50230816     A.U. after   12 cycles
 SCF Done:  E(RB3LYP) =  -1126.50170631     A.U. after   13 cycles
 SCF Done:  E(RB3LYP) =  -1126.50361502     A.U. after    9 cycles
 SCF Done:  E(RB3LYP) =  -1126.50361748     A.U. after    9 cycles
 SCF Done:  E(RB3LYP) =  -1126.50361897     A.U. after    9 cycles
 SCF Done:  E(RB3LYP) =  -1126.50361991     A.U. after    9 cycles
 SCF Done:  E(RB3LYP) =  -1126.50362005     A.U. after    8 cycles
 SCF Done:  E(RB3LYP) =  -1126.50362008     A.U. after    7 cycles
 Optimization completed.
    -- Stationary point found.
 Normal termination of Gaussian 16 at Thu Dec 10 22:14:24 2020.

 --------------------------------------------------------------------
 #N Geom=AllCheck Guess=TCheck SCRF=Check GenChk RB3LYP/6-31G(d) Freq
 --------------------------------------------------------------------

 Structure from the checkpoint file:  "JID_6288.chk"
 ------------------------------
 CID_65044301_JID_6288_neutraal
 ------------------------------
 Charge =  0 Multiplicity = 1

 SCF Done:  E(RB3LYP) =  -1126.50362008     A.U. after    1 cycles

  Exact polarizability: 157.922  -5.377 139.133   2.004  -3.312 120.772
 Approx polarizability: 212.468  -9.282 190.156  -1.886  -7.621 199.957

                      1                      2                      3
                      A                      A                      A
 Frequencies --     22.7472                42.8561                50.1858
 Red. masses --      5.0638                 8.1107                 3.2268
 Frc consts  --      0.0015                 0.0088                 0.0048
 IR Inten    --      1.4321                 1.7590                 0.8669

                      4                      5                      6
                      A                      A                      A
 Frequencies --     72.7096                80.7433               103.3447
 Red. masses --      4.3039                 4.1499                 4.0464
 Frc consts  --      0.0134                 0.0159                 0.0255
 IR Inten    --      1.3236                 2.6840                 2.8833

                      7                      8                      9
                      A                      A                      A
 Frequencies --    124.5094               154.2090               178.1012
 Red. masses --      4.6355                 3.6643                 2.7137
 Frc consts  --      0.0423                 0.0513                 0.0507
 IR Inten    --      1.3656                 3.9961                 1.3331

                     10                     11                     12
                      A                      A                      A
 Frequencies --    188.7292               204.8475               218.3808
 Red. masses --      1.4329                 1.7833                 2.7845
 Frc consts  --      0.0301                 0.0441                 0.0782
 IR Inten    --      1.3178                 0.5390                 3.8421

                     13                     14                     15
                      A                      A                      A
 Frequencies --    241.7826               267.6505               285.2387
 Red. masses --      3.1094                 3.7556                 3.9544
 Frc consts  --      0.1071                 0.1585                 0.1896
 IR Inten    --      3.1426                 1.9489                 2.4217

                     16                     17                     18
                      A                      A                      A
 Frequencies --    312.8734               327.9178               399.8480
 Red. masses --      3.0563                 2.8192                 3.4870
 Frc consts  --      0.1763                 0.1786                 0.3285
 IR Inten    --      0.2567                 3.5519                 3.4653

                     19                     20                     21
                      A                      A                      A
 Frequencies --    429.4366               441.4849               460.4908
 Red. masses --      3.0803                 2.0609                 1.5125
 Frc consts  --      0.3347                 0.2367                 0.1890
 IR Inten    --     34.6966                10.6303               155.1458

                     22                     23                     24
                      A                      A                      A
 Frequencies --    477.3593               503.1190               524.8057
 Red. masses --      3.1310                 2.6291                 5.3575
 Frc consts  --      0.4204                 0.3921                 0.8694
 IR Inten    --     51.5759                14.3870                73.8612

                     25                     26                     27
                      A                      A                      A
 Frequencies --    551.5219               616.8795               654.3677
 Red. masses --      3.0902                 1.9197                 1.9397
 Frc consts  --      0.5538                 0.4304                 0.4894
 IR Inten    --     14.0814                15.1903                 3.3298

                     28                     29                     30
                      A                      A                      A
 Frequencies --    666.9837               688.1894               730.9924
 Red. masses --      1.7540                 1.5219                 3.8568
 Frc consts  --      0.4597                 0.4247                 1.2142
 IR Inten    --     13.7724               111.2702                28.6875

                     31                     32                     33
                      A                      A                      A
 Frequencies --    756.9269               773.9100               793.0947
 Red. masses --      1.8491                 2.5912                 2.5011
 Frc consts  --      0.6242                 0.9144                 0.9269
 IR Inten    --      3.1841                14.6637                16.9035

                     34                     35                     36
                      A                      A                      A
 Frequencies --    844.6005               866.4439               874.2717
 Red. masses --      1.9323                 1.8696                 2.5066
 Frc consts  --      0.8121                 0.8270                 1.1288
 IR Inten    --      1.7209                 0.2734                 3.3643

                     37                     38                     39
                      A                      A                      A
 Frequencies --    904.9295               908.2361               919.2776
 Red. masses --      2.7259                 2.3877                 2.3143
 Frc consts  --      1.3152                 1.1604                 1.1523
 IR Inten    --      0.7844                 4.2619                 2.8832

                     40                     41                     42
                      A                      A                      A
 Frequencies --    952.4923               983.5754               988.4437
 Red. masses --      1.8976                 1.7220                 1.3814
 Frc consts  --      1.0143                 0.9815                 0.7952
 IR Inten    --      1.8796                15.7544                 0.0805

                     43                     44                     45
                      A                      A                      A
 Frequencies --    994.6486              1023.9211              1052.1758
 Red. masses --      1.5804                 1.7333                 2.0463
 Frc consts  --      0.9212                 1.0707                 1.3347
 IR Inten    --     24.8442                 2.1811                 3.3804

                     46                     47                     48
                      A                      A                      A
 Frequencies --   1060.8880              1065.1279              1096.3543
 Red. masses --      2.3244                 2.0991                 1.6785
 Frc consts  --      1.5413                 1.4031                 1.1887
 IR Inten    --      1.8917                 2.0650                 7.8317

                     49                     50                     51
                      A                      A                      A
 Frequencies --   1108.1171              1116.3611              1129.6241
 Red. masses --      4.2100                 2.9623                 1.6741
 Frc consts  --      3.0458                 2.1751                 1.2586
 IR Inten    --     95.2632                69.6283                 3.6363

                     52                     53                     54
                      A                      A                      A
 Frequencies --   1151.6623              1198.0910              1206.4839
 Red. masses --      1.9635                 1.4181                 1.6738
 Frc consts  --      1.5344                 1.1993                 1.4355
 IR Inten    --     14.7230                33.9441                52.5945

                     55                     56                     57
                      A                      A                      A
 Frequencies --   1219.0800              1237.9495              1266.1704
 Red. masses --      1.3327                 1.4217                 1.4100
 Frc consts  --      1.1669                 1.2837                 1.3319
 IR Inten    --      4.7062                 6.9363                 7.2590

                     58                     59                     60
                      A                      A                      A
 Frequencies --   1282.0428              1288.8793              1314.3472
 Red. masses --      3.4519                 1.4434                 1.1875
 Frc consts  --      3.3429                 1.4128                 1.2087
 IR Inten    --    110.8457                 8.7502                14.9125

                     61                     62                     63
                      A                      A                      A
 Frequencies --   1318.0969              1324.1067              1336.8738
 Red. masses --      1.3973                 1.5182                 1.6125
 Frc consts  --      1.4303                 1.5683                 1.6979
 IR Inten    --     20.3332                 9.2775                39.1766

                     64                     65                     66
                      A                      A                      A
 Frequencies --   1345.7253              1353.3706              1370.7451
 Red. masses --      1.2989                 1.3753                 1.3001
 Frc consts  --      1.3860                 1.4841                 1.4392
 IR Inten    --      1.4005                 0.4164                 2.9763

                     67                     68                     69
                      A                      A                      A
 Frequencies --   1375.8603              1381.5320              1397.8082
 Red. masses --      1.3425                 1.3478                 1.4065
 Frc consts  --      1.4973                 1.5156                 1.6191
 IR Inten    --     17.3770                14.8806                20.6519

                     70                     71                     72
                      A                      A                      A
 Frequencies --   1423.5897              1433.0981              1484.3678
 Red. masses --      1.8025                 1.5055                 1.0513
 Frc consts  --      2.1522                 1.8217                 1.3648
 IR Inten    --     48.0762                 6.8873                 7.2703

                     73                     74                     75
                      A                      A                      A
 Frequencies --   1484.8663              1506.4212              1516.3681
 Red. masses --      1.0501                 1.0994                 1.1208
 Frc consts  --      1.3641                 1.4699                 1.5185
 IR Inten    --      5.2815                 6.6588                 8.7221

                     76                     77                     78
                      A                      A                      A
 Frequencies --   1519.0405              1520.5800              1538.4611
 Red. masses --      1.1264                 1.0783                 1.1828
 Frc consts  --      1.5314                 1.4689                 1.6495
 IR Inten    --     25.1736                 0.9400                15.3132

                     79                     80                     81
                      A                      A                      A
 Frequencies --   1543.5028              1549.6105              1671.3184
 Red. masses --      1.1086                 1.1146                 1.2369
 Frc consts  --      1.5561                 1.5769                 2.0357
 IR Inten    --      1.9114                26.9404                70.5621

                     82                     83                     84
                      A                      A                      A
 Frequencies --   1791.9294              2958.7464              3040.3115
 Red. masses --      8.0324                 1.0733                 1.0677
 Frc consts  --     15.1962                 5.5361                 5.8146
 IR Inten    --    330.5700                78.9147                31.2564

                     85                     86                     87
                      A                      A                      A
 Frequencies --   3048.7770              3070.0117              3074.5479
 Red. masses --      1.0693                 1.0646                 1.0866
 Frc consts  --      5.8559                 5.9115                 6.0518
 IR Inten    --     26.2311                21.2277                22.2642

                     88                     89                     90
                      A                      A                      A
 Frequencies --   3079.5574              3080.2113              3083.9822
 Red. masses --      1.0673                 1.0617                 1.0359
 Frc consts  --      5.9638                 5.9346                 5.8047
 IR Inten    --     13.4774                18.8671                 2.2139

                     91                     92                     93
                      A                      A                      A
 Frequencies --   3087.0171              3098.9005              3102.5660
 Red. masses --      1.0763                 1.0847                 1.0975
 Frc consts  --      6.0431                 6.1373                 6.2246
 IR Inten    --     19.3763                13.9177                17.9762

                     94                     95                     96
                      A                      A                      A
 Frequencies --   3114.6641              3119.4338              3133.3899
 Red. masses --      1.0959                 1.0999                 1.1052
 Frc consts  --      6.2641                 6.3059                 6.3932
 IR Inten    --     18.9778                17.4585                33.2074

                     97                     98                     99
                      A                      A                      A
 Frequencies --   3136.3105              3186.7555              3189.5586
 Red. masses --      1.1028                 1.1062                 1.1082
 Frc consts  --      6.3913                 6.6186                 6.6422
 IR Inten    --     20.5164                 0.7711                 1.8558

                    100                    101                    102
                      A                      A                      A
 Frequencies --   3521.6949              3528.5767              3675.5993
 Red. masses --      1.0742                 1.0504                 1.1015
 Frc consts  --      7.8491                 7.7053                 8.7677
 IR Inten    --      1.1768               290.0536               118.6219

 - Thermochemistry -
 -------------------
 Temperature   298.150 Kelvin.  Pressure   1.00000 Atm.
 Atom     1 has atomic number  6 and mass  12.00000

 Molecular mass:   248.11946 amu.
 Principal axes and moments of inertia in atomic units:
                           1         2         3
     Eigenvalues --  2641.411445201.596946687.49002
           X            0.99994  -0.00270   0.01107
           Y            0.00276   0.99998  -0.00609
           Z           -0.01106   0.00612   0.99992
 This molecule is an asymmetric top.
 Rotational symmetry number  1.
 Warning -- assumption of classical behavior for rotation
           may cause significant error
 Rotational temperatures (Kelvin)      0.03279     0.01665     0.01295
 Rotational constants (GHZ):           0.68325     0.34696     0.26987
 Zero-point vibrational energy     818953.4 (Joules/Mol)
                                  195.73456 (Kcal/Mol)
 Warning -- explicit consideration of  26 degrees of freedom as
           vibrations may cause significant error
 Vibrational temperatures:     32.73    61.66    72.21   104.61   116.17
          (Kelvin)            148.69   179.14   221.87   256.25   271.54
                              294.73   314.20   347.87   385.09   410.39
                              450.16   471.80   575.29   617.86   635.20
                              662.54   686.81   723.88   755.08   793.52
                              887.55   941.49   959.64   990.15  1051.74
                             1089.05  1113.48  1141.09  1215.19  1246.62
                             1257.88  1301.99  1306.75  1322.64  1370.42
                             1415.15  1422.15  1431.08  1473.19  1513.85
                             1526.38  1532.48  1577.41  1594.33  1606.19
                             1625.28  1656.99  1723.79  1735.86  1753.98
                             1781.13  1821.74  1844.57  1854.41  1891.05
                             1896.45  1905.09  1923.46  1936.20  1947.20
                             1972.20  1979.56  1987.72  2011.13  2048.23
                             2061.91  2135.67  2136.39  2167.40  2181.72
                             2185.56  2187.78  2213.50  2220.76  2229.54
                             2404.65  2578.19  4256.98  4374.33  4386.51
                             4417.06  4423.59  4430.80  4431.74  4437.16
                             4441.53  4458.63  4463.90  4481.31  4488.17
                             4508.25  4512.45  4585.03  4589.06  5066.93
                             5076.83  5288.37

 Zero-point correction=                           0.311923 (Hartree/Particle)
 Thermal correction to Energy=                    0.329247
 Thermal correction to Enthalpy=                  0.330191
 Thermal correction to Gibbs Free Energy=         0.265758
 Sum of electronic and zero-point Energies=          -1126.191697
 Sum of electronic and thermal Energies=             -1126.174373
 Sum of electronic and thermal Enthalpies=           -1126.173429
 Sum of electronic and thermal Free Energies=        -1126.237862

                     E (Thermal)             CV                S
                      KCal/Mol        Cal/Mol-Kelvin    Cal/Mol-Kelvin
 Total                  206.606             65.181            135.611
 Electronic               0.000              0.000              0.000
 Translational            0.889              2.981             42.427
 Rotational               0.889              2.981             32.885
 Vibrational            204.828             59.219             60.299
 Vibration     1          0.593              1.985              6.379
 Vibration     2          0.595              1.980              5.122
 Vibration     3          0.595              1.978              4.810
 Vibration     4          0.599              1.967              4.079
 Vibration     5          0.600              1.962              3.873
 Vibration     6          0.605              1.947              3.390
 Vibration     7          0.610              1.928              3.029
 Vibration     8          0.620              1.898              2.620
 Vibration     9          0.629              1.869              2.348
 Vibration    10          0.633              1.855              2.240
 Vibration    11          0.640              1.833              2.089
 Vibration    12          0.646              1.813              1.972
 Vibration    13          0.658              1.776              1.790
 Vibration    14          0.673              1.733              1.611
 Vibration    15          0.683              1.701              1.502
 Vibration    16          0.701              1.649              1.347
 Vibration    17          0.711              1.620              1.270
 Vibration    18          0.766              1.470              0.963
 Vibration    19          0.791              1.406              0.860
 Vibration    20          0.801              1.380              0.822
 Vibration    21          0.818              1.338              0.765
 Vibration    22          0.834              1.300              0.717
 Vibration    23          0.858              1.243              0.650
 Vibration    24          0.880              1.195              0.599
 Vibration    25          0.907              1.136              0.541
 Vibration    26          0.977              0.996              0.422

 Optimization completed.
    -- Stationary point found.
 Normal termination of Gaussian 16 at Thu Dec 10 22:27:27 2020.

 ----------------------------------------------------------------------
 # B3LYP/6-311++G(d,p) empiricaldispersion=gd3bj scf=xqc pop=npa geom=c
 heck
 ----------------------------------------------------------------------

 --------------------------------------
 CID_65044301_JID_6288_Energie_neutraal
 --------------------------------------
 Structure from the checkpoint file:  "JID_6288.chk"
 Charge =  0 Multiplicity = 1

 SCF Done:  E(RB3LYP) =  -1126.75234460     A.U. after   15 cycles
 Normal termination of Gaussian 16 at Thu Dec 10 22:33:41 2020.

 ----------------------------------------------------------------------
 # B3LYP/6-311++G(d,p) empiricaldispersion=gd3bj scf=xqc pop=npa geom=c
 heck
 ----------------------------------------------------------------------

 ------------------------------------
 CID_65044301_JID_6288_Energie_kation
 ------------------------------------
 Structure from the checkpoint file:  "JID_6288.chk"
 Charge =  1 Multiplicity = 2

 SCF Done:  E(UB3LYP) =  -1126.45556180     A.U. after   26 cycles
 Normal termination of Gaussian 16 at Thu Dec 10 22:48:38 2020.
 Gaussian 16:  ES64L-G16RevA.03 25-Dec-2016

 ----------------------------------------------------------------------
 # B3LYP/6-311++G(d,p) empiricaldispersion=gd3bj scf=xqc pop=npa geom=c
 heck
 ----------------------------------------------------------------------

 -----------------------------------
 CID_65044301_JID_6288_Energie_anion
 -----------------------------------
 Structure from the checkpoint file:  "JID_6288.chk"
 Charge = -1 Multiplicity = 2

                         Standard orientation:
 ---------------------------------------------------------------------
 Center     Atomic      Atomic             Coordinates (Angstroms)
 Number     Number       Type             X           Y           Z
 ---------------------------------------------------------------------
      1          6           0        2.935272   -2.355618    0.011398
      2         16           0        1.420370   -1.383911   -0.166975
      3          8           0        1.202595   -1.188647   -1.611051
      4          8           0        0.400766   -2.052749    0.669321
      5          6           0        1.877550    0.198359    0.618889
      6          6           0        2.910159    1.015159   -0.202005
      7          6           0        2.391017    2.478475   -0.162232
      8          6           0        1.342511    2.498568    0.961904
      9          6           0        0.653149    1.119008    0.843592
     10          7           0       -0.297568    0.973420   -0.242342
     11          6           0       -1.536189    1.732695   -0.128009
     12          6           0       -2.549323    1.261288   -1.174955
     13          6           0       -2.795833   -0.254869   -1.115395
     14          6           0       -3.324835   -0.639656    0.262716
     15          8           0       -4.425917   -0.265238    0.656826
     16          7           0       -2.480386   -1.387064    1.022352
     17          1           0        2.734366   -3.316869   -0.466596
     18          1           0        3.153514   -2.498353    1.071272
     19          1           0        3.754415   -1.845589   -0.499057
     20          1           0        2.287481   -0.093606    1.590415
     21          1           0        3.903019    0.927870    0.248774
     22          1           0        2.979883    0.646522   -1.229015
     23          1           0        1.918093    2.731551   -1.117421
     24          1           0        3.197667    3.199599   -0.004870
     25          1           0        0.628598    3.323039    0.876191
     26          1           0        1.831666    2.585445    1.941014
     27          1           0        0.127555    0.842019    1.762924
     28          1           0        0.132622    1.097473   -1.155276
     29          1           0       -1.940360    1.548969    0.874884
     30          1           0       -1.394455    2.824802   -0.215887
     31          1           0       -3.495453    1.786944   -1.007418
     32          1           0       -2.198371    1.533820   -2.179668
     33          1           0       -3.563313   -0.525395   -1.848150
     34          1           0       -1.877269   -0.794480   -1.358856
     35          1           0       -1.523487   -1.590902    0.750338
     36          1           0       -2.776828   -1.612155    1.961747
 ---------------------------------------------------------------------

 SCF Done:  E(UB3LYP) =  -1126.75068468     A.U. after   31 cycles

 The electronic state is 2-A.
 Alpha  occ. eigenvalues --  -88.95012 -19.02157 -19.01813 -18.99154 -14.22985
 Alpha  occ. eigenvalues --  -14.20806 -10.17692 -10.11966 -10.11643 -10.10792
 Alpha  occ. eigenvalues --  -10.10732 -10.08706 -10.08236 -10.08175 -10.07838
 Alpha  occ. eigenvalues --  -10.07549  -8.01500  -5.97775  -5.97653  -5.97580
 Alpha  occ. eigenvalues --   -1.01049  -0.93970  -0.90905  -0.83260  -0.80443
 Alpha  occ. eigenvalues --   -0.74942  -0.69639  -0.68513  -0.64028  -0.62469
 Alpha  occ. eigenvalues --   -0.59373  -0.53947  -0.52637  -0.48800  -0.47789
 Alpha  occ. eigenvalues --   -0.47375  -0.43583  -0.42230  -0.41773  -0.39572
 Alpha  occ. eigenvalues --   -0.39249  -0.38275  -0.37329  -0.36499  -0.35543
 Alpha  occ. eigenvalues --   -0.35044  -0.34181  -0.33440  -0.32620  -0.31187
 Alpha  occ. eigenvalues --   -0.31028  -0.29738  -0.27794  -0.27244  -0.26806
 Alpha  occ. eigenvalues --   -0.26420  -0.25848  -0.25252  -0.24600  -0.23924
 Alpha  occ. eigenvalues --   -0.23682  -0.22702  -0.21134  -0.19569  -0.17656
 Alpha  occ. eigenvalues --   -0.16251  -0.13615   0.03726
 Alpha virt. eigenvalues --    0.06387   0.07009   0.07558   0.08288   0.08852
 Alpha virt. eigenvalues --    0.09194   0.09348   0.10029   0.10759   0.10983
 Alpha virt. eigenvalues --    0.11536   0.11729   0.12416   0.12472   0.12576

  Beta  occ. eigenvalues --  -88.95007 -19.02145 -19.01796 -18.99154 -14.22981
  Beta  occ. eigenvalues --  -14.20798 -10.17692 -10.11960 -10.11612 -10.10726
  Beta  occ. eigenvalues --  -10.10725 -10.08704 -10.08198 -10.08174 -10.07817
  Beta  occ. eigenvalues --  -10.07523  -8.01494  -5.97771  -5.97650  -5.97574
  Beta  occ. eigenvalues --   -1.01009  -0.93968  -0.90863  -0.83241  -0.80437
  Beta  occ. eigenvalues --   -0.74899  -0.69621  -0.68456  -0.63959  -0.62423
  Beta  occ. eigenvalues --   -0.59340  -0.53893  -0.52616  -0.48742  -0.47778
  Beta  occ. eigenvalues --   -0.47302  -0.43569  -0.42175  -0.41717  -0.39540
  Beta  occ. eigenvalues --   -0.39232  -0.38240  -0.37301  -0.36471  -0.35506
  Beta  occ. eigenvalues --   -0.35000  -0.34131  -0.33391  -0.32605  -0.31177
  Beta  occ. eigenvalues --   -0.31009  -0.29704  -0.27759  -0.27197  -0.26774
  Beta  occ. eigenvalues --   -0.26409  -0.25808  -0.25227  -0.24574  -0.23892
  Beta  occ. eigenvalues --   -0.23630  -0.22681  -0.21116  -0.19538  -0.17652
  Beta  occ. eigenvalues --   -0.16249  -0.13600
  Beta virt. eigenvalues --    0.06195   0.07055   0.07553   0.07879   0.08696
  Beta virt. eigenvalues --    0.09122   0.09607   0.09856   0.10414   0.11023
  Beta virt. eigenvalues --    0.11319   0.11638   0.12092   0.12582   0.12703

 Mulliken charges and spin densities:
               1          2
     1  C    0.442534  -1.110465
     2  S    0.722327  -0.639706
     3  O   -0.136332   0.000522
     4  O   -0.149820   0.030357
     5  C   -1.349600   1.387934
     6  C    1.127526  -1.675867
     7  C    0.509324  -0.877132
     8  C   -0.719652   0.179464
     9  C    0.533492  -0.748594
    10  N    0.036732   0.026892
    11  C   -0.017627  -0.175959
    12  C   -0.646382  -0.008179
    13  C    0.008370  -0.027028
    14  C    0.011827  -0.069857
    15  O   -0.359435   0.004716
    16  N   -0.461729   0.016770
    17  H   -0.041173   0.254252
    18  H   -0.490690   0.709640
    19  H   -0.405846   0.614682
    20  H   -0.418817   0.762112
    21  H   -0.474615   0.655137
    22  H    0.066652   0.151652
    23  H   -0.028199   0.166010
    24  H   -0.263765   0.457554
    25  H   -0.039518   0.189388
    26  H   -0.369241   0.540036
    27  H    0.155865   0.076235
    28  H    0.302976  -0.088623
    29  H    0.143347   0.036449
    30  H    0.105781   0.015748
    31  H    0.149945   0.024542
    32  H    0.102664   0.037254
    33  H    0.209993  -0.006723
    34  H    0.112385   0.064757
    35  H    0.399233  -0.011301
    36  H    0.231470   0.037332
 Sum of Mulliken charges =  -1.00000   1.00000

 Dipole moment (field-independent basis, Debye):
    X=             -5.9833    Y=              0.7757    Z=             -3.7312  Tot=              7.0939
 Quadrupole moment (field-independent basis, Debye-Ang):
   XX=           -205.2373   YY=           -144.4852   ZZ=           -139.1917
   XY=             -3.5739   XZ=             -7.5847   YZ=             -4.1471

 Summary of Natural Population Analysis:

                                       Natural Population
                Natural  -----------------------------------------------
    Atom  No    Charge         Core      Valence    Rydberg      Total
 -----------------------------------------------------------------------
      C    1   -0.38833      0.99962     2.38133    0.00738     3.38833
      S    2    1.03265      4.99920     1.87699    0.09117     6.96735
      O    3   -0.47256      0.99991     3.46742    0.00524     4.47256
      O    4   -0.48482      0.99990     3.47928    0.00563     4.48482
      C    5   -0.20579      0.99952     2.18871    0.01756     3.20579
      C    6   -0.20403      0.99961     2.19428    0.01013     3.20403
      C    7   -0.19147      0.99964     2.18299    0.00884     3.19147
      C    8   -0.19957      0.99961     2.19100    0.00896     3.19957
      C    9   -0.00825      0.99958     1.99327    0.01541     3.00825
      N   10   -0.35467      0.99973     2.84346    0.01148     3.85467
      C   11   -0.08563      0.99963     2.07709    0.00890     3.08563
      C   12   -0.18800      0.99963     2.18054    0.00782     3.18800
      C   13   -0.23445      0.99958     2.22625    0.00861     3.23445
      C   14    0.33506      0.99970     1.64124    0.02400     2.66494
      O   15   -0.33785      0.99988     3.33178    0.00620     4.33785
      N   16   -0.40329      0.99969     2.89635    0.00725     3.90329
      H   17    0.11722      0.00000     0.38189    0.00090     0.38278
      H   18    0.12014      0.00000     0.37705    0.00281     0.37986
      H   19    0.11817      0.00000     0.37996    0.00187     0.38183
      H   20    0.12666      0.00000     0.36858    0.00477     0.37334
      H   21    0.11256      0.00000     0.38225    0.00519     0.38744
      H   22    0.10882      0.00000     0.38956    0.00162     0.39118
      H   23    0.09271      0.00000     0.40596    0.00133     0.40729
      H   24    0.10686      0.00000     0.39177    0.00137     0.39314
      H   25    0.10155      0.00000     0.39747    0.00098     0.39845
      H   26    0.10423      0.00000     0.39404    0.00173     0.39577
      H   27    0.10313      0.00000     0.39547    0.00139     0.39687
      H   28    0.17946      0.00000     0.31767    0.00287     0.32054
      H   29    0.09512      0.00000     0.40342    0.00146     0.40488
      H   30    0.08185      0.00000     0.41668    0.00148     0.41815
      H   31    0.10391      0.00000     0.39483    0.00126     0.39609
      H   32    0.09436      0.00000     0.40446    0.00117     0.40564
      H   33    0.10626      0.00000     0.39273    0.00102     0.39374
      H   34    0.11217      0.00000     0.38625    0.00158     0.38783
      H   35    0.21632      0.00000     0.28144    0.00224     0.28368
      H   36    0.18948      0.00000     0.30840    0.00212     0.31052
 =======================================================================
   * Total *   -0.00000     19.99441    46.72185    0.28374    67.00000

 Normal termination of Gaussian 16 at Thu Dec 10 23:09:23 2020.
