 Gaussian 16, Revision A.03,

 -----------------------------------------------------------
 # opt freq B3LYP/6-31G(d) empiricaldispersion=gd3bj scf=xqc
 -----------------------------------------------------------

 ------------------------------
 CID_88755044_JID_6210_neutraal
 ------------------------------
 Symbolic Z-matrix:
 Charge =  0 Multiplicity = 1

 SCF Done:  E(RB3LYP) =  -1366.79658787     A.U. after   19 cycles
 SCF Done:  E(RB3LYP) =  -1366.80323560     A.U. after   13 cycles
 SCF Done:  E(RB3LYP) =  -1366.80417294     A.U. after   12 cycles
 SCF Done:  E(RB3LYP) =  -1366.80435940     A.U. after   12 cycles
 SCF Done:  E(RB3LYP) =  -1366.80439020     A.U. after   10 cycles
 SCF Done:  E(RB3LYP) =  -1366.80439491     A.U. after   10 cycles
 Optimization completed.
    -- Stationary point found.
 Normal termination of Gaussian 16 at Thu Dec 10 21:09:05 2020.

 --------------------------------------------------------------------
 #N Geom=AllCheck Guess=TCheck SCRF=Check GenChk RB3LYP/6-31G(d) Freq
 --------------------------------------------------------------------

 Structure from the checkpoint file:  "JID_6210.chk"
 ------------------------------
 CID_88755044_JID_6210_neutraal
 ------------------------------
 Charge =  0 Multiplicity = 1

 SCF Done:  E(RB3LYP) =  -1366.80439491     A.U. after    1 cycles

  Exact polarizability: 421.739  14.984 164.275  -0.000  -0.000  58.087
 Approx polarizability: 887.722 119.640 356.348  -0.001  -0.000  96.000

                      1                      2                      3
                      A                      A                      A
 Frequencies --     63.2104                74.5536               153.1649
 Red. masses --      7.1942                10.0877                 5.5405
 Frc consts  --      0.0169                 0.0330                 0.0766
 IR Inten    --      0.1896                 0.6889                 0.0468

                      4                      5                      6
                      A                      A                      A
 Frequencies --    158.2472               185.6675               273.5903
 Red. masses --      6.6277                 6.2759                11.5665
 Frc consts  --      0.0978                 0.1275                 0.5101
 IR Inten    --      1.6485                 0.7101                 1.6579

                      7                      8                      9
                      A                      A                      A
 Frequencies --    296.4617               345.4242               360.3802
 Red. masses --      8.4226                 9.7499                 5.2071
 Frc consts  --      0.4361                 0.6854                 0.3984
 IR Inten    --      5.9938                 0.1323                 0.2075

                     10                     11                     12
                      A                      A                      A
 Frequencies --    386.1357               419.8347               446.6816
 Red. masses --      5.4047                 3.4703                13.3627
 Frc consts  --      0.4748                 0.3604                 1.5709
 IR Inten    --      0.2606                 0.5941                17.1961

                     13                     14                     15
                      A                      A                      A
 Frequencies --    451.0081               456.7831               540.0191
 Red. masses --     20.4330                 3.6326                 6.4193
 Frc consts  --      2.4488                 0.4466                 1.1030
 IR Inten    --      4.7789                 2.9255                 2.3017

                     16                     17                     18
                      A                      A                      A
 Frequencies --    561.4533               575.8633               606.2000
 Red. masses --      8.6874                 4.0044                 6.9419
 Frc consts  --      1.6135                 0.7824                 1.5030
 IR Inten    --      7.6437                 0.0144                 9.2419

                     19                     20                     21
                      A                      A                      A
 Frequencies --    654.1312               675.0892               710.6773
 Red. masses --      7.1578                 7.5912                 6.8875
 Frc consts  --      1.8045                 2.0384                 2.0495
 IR Inten    --      9.3068                 0.0751                 4.3052

                     22                     23                     24
                      A                      A                      A
 Frequencies --    735.1636               740.2662               758.1429
 Red. masses --      8.3725                 2.8885                 7.7944
 Frc consts  --      2.6661                 0.9326                 2.6396
 IR Inten    --     66.8454                13.4932                74.7935

                     25                     26                     27
                      A                      A                      A
 Frequencies --    768.5000               777.7989               861.8308
 Red. masses --      4.5471                 1.6899                 6.5098
 Frc consts  --      1.5823                 0.6023                 2.8488
 IR Inten    --      0.0392                37.9796                15.4748

                     28                     29                     30
                      A                      A                      A
 Frequencies --    876.4120               885.5692               890.3026
 Red. masses --      1.3489                 1.3984                 4.6779
 Frc consts  --      0.6105                 0.6462                 2.1846
 IR Inten    --      8.9436                 4.4628                 5.9452

                     31                     32                     33
                      A                      A                      A
 Frequencies --    901.4118               940.1524               957.9120
 Red. masses --      1.4840                 1.3819                 9.0647
 Frc consts  --      0.7105                 0.7196                 4.9007
 IR Inten    --     22.1844                 1.5684                15.7360

                     34                     35                     36
                      A                      A                      A
 Frequencies --    979.7389              1018.5989              1046.2866
 Red. masses --      1.2684                 4.0792                 1.9738
 Frc consts  --      0.7173                 2.4936                 1.2731
 IR Inten    --      0.1761                21.4588                 0.9284

                     37                     38                     39
                      A                      A                      A
 Frequencies --   1121.2507              1183.2934              1214.2443
 Red. masses --      1.9606                 1.2327                 2.5911
 Frc consts  --      1.4523                 1.0170                 2.2509
 IR Inten    --      5.5513                14.9703                23.7522

                     40                     41                     42
                      A                      A                      A
 Frequencies --   1228.1642              1244.6846              1292.8451
 Red. masses --      3.8253                 1.5038                 3.2605
 Frc consts  --      3.3996                 1.3727                 3.2109
 IR Inten    --     28.8576                19.1760                 8.2108

                     43                     44                     45
                      A                      A                      A
 Frequencies --   1319.6696              1345.0878              1385.3165
 Red. masses --      1.6262                 2.4791                 4.6140
 Frc consts  --      1.6686                 2.6427                 5.2171
 IR Inten    --      6.3953                 8.7560                30.3602

                     46                     47                     48
                      A                      A                      A
 Frequencies --   1417.6520              1479.6333              1519.0623
 Red. masses --      5.7117                 2.5654                 2.6287
 Frc consts  --      6.7633                 3.3091                 3.5740
 IR Inten    --     99.2594               181.6847                 2.9977

                     49                     50                     51
                      A                      A                      A
 Frequencies --   1542.1861              1571.3053              1590.9598
 Red. masses --      8.8626                10.5228                 7.1352
 Frc consts  --     12.4190                15.3074                10.6408
 IR Inten    --     35.7012                 4.4955               110.2327

                     52                     53                     54
                      A                      A                      A
 Frequencies --   1640.6266              1670.4382              1694.3753
 Red. masses --      5.8287                 7.4805                 8.4740
 Frc consts  --      9.2437                12.2982                14.3337
 IR Inten    --     17.2479                15.1631                10.0829

                     55                     56                     57
                      A                      A                      A
 Frequencies --   3184.9757              3193.6932              3210.0373
 Red. masses --      1.0867                 1.0895                 1.0940
 Frc consts  --      6.4950                 6.5471                 6.6418
 IR Inten    --      2.3381                12.0353                34.0708

                     58                     59                     60
                      A                      A                      A
 Frequencies --   3219.2150              3220.6509              3226.5283
 Red. masses --      1.0922                 1.0949                 1.0920
 Frc consts  --      6.6686                 6.6912                 6.6982
 IR Inten    --      2.1819                25.4789                 1.3421

 - Thermochemistry -
 -------------------
 Temperature   298.150 Kelvin.  Pressure   1.00000 Atm.
 Atom     1 has atomic number  6 and mass  12.00000

 Molecular mass:   241.99724 amu.
 Principal axes and moments of inertia in atomic units:
                           1         2         3
     Eigenvalues --  1180.971168065.499699246.47085
           X            0.99999  -0.00517   0.00000
           Y            0.00517   0.99999   0.00000
           Z           -0.00000  -0.00000   1.00000
 This molecule is an asymmetric top.
 Rotational symmetry number  1.
 Warning -- assumption of classical behavior for rotation
           may cause significant error
 Rotational temperatures (Kelvin)      0.07334     0.01074     0.00937
 Rotational constants (GHZ):           1.52818     0.22376     0.19518
 Zero-point vibrational energy     396254.4 (Joules/Mol)
                                   94.70707 (Kcal/Mol)
 Warning -- explicit consideration of  18 degrees of freedom as
           vibrations may cause significant error
 Vibrational temperatures:     90.95   107.27   220.37   227.68   267.13
          (Kelvin)            393.64   426.54   496.99   518.51   555.56
                              604.05   642.68   648.90   657.21   776.97
                              807.81   828.54   872.19   941.15   971.30
                             1022.51  1057.74  1065.08  1090.80  1105.70
                             1119.08  1239.98  1260.96  1274.14  1280.95
                             1296.93  1352.67  1378.22  1409.63  1465.54
                             1505.37  1613.23  1702.50  1747.03  1767.05
                             1790.82  1860.12  1898.71  1935.28  1993.16
                             2039.69  2128.86  2185.59  2218.86  2260.76
                             2289.04  2360.50  2403.39  2437.83  4582.47
                             4595.01  4618.53  4631.73  4633.80  4642.25

 Zero-point correction=                           0.150925 (Hartree/Particle)
 Thermal correction to Energy=                    0.162374
 Thermal correction to Enthalpy=                  0.163318
 Thermal correction to Gibbs Free Energy=         0.112700
 Sum of electronic and zero-point Energies=          -1366.653470
 Sum of electronic and thermal Energies=             -1366.642021
 Sum of electronic and thermal Enthalpies=           -1366.641077
 Sum of electronic and thermal Free Energies=        -1366.691695

                     E (Thermal)             CV                S
                      KCal/Mol        Cal/Mol-Kelvin    Cal/Mol-Kelvin
 Total                  101.891             46.406            106.535
 Electronic               0.000              0.000              0.000
 Translational            0.889              2.981             42.352
 Rotational               0.889              2.981             32.843
 Vibrational            100.114             40.444             31.339
 Vibration     1          0.597              1.972              4.354
 Vibration     2          0.599              1.966              4.029
 Vibration     3          0.619              1.899              2.633
 Vibration     4          0.621              1.893              2.571
 Vibration     5          0.632              1.859              2.271
 Vibration     6          0.676              1.722              1.573
 Vibration     7          0.690              1.680              1.437
 Vibration     8          0.724              1.585              1.187
 Vibration     9          0.735              1.554              1.120
 Vibration    10          0.755              1.500              1.015
 Vibration    11          0.783              1.427              0.893
 Vibration    12          0.806              1.368              0.806
 Vibration    13          0.810              1.359              0.793
 Vibration    14          0.815              1.346              0.776
 Vibration    15          0.895              1.162              0.565
 Vibration    16          0.917              1.115              0.521
 Vibration    17          0.932              1.083              0.493
 Vibration    18          0.965              1.019              0.439

 Optimization completed.
    -- Stationary point found.
 Normal termination of Gaussian 16 at Thu Dec 10 21:16:28 2020.

 ----------------------------------------------------------------------
 # B3LYP/6-311++G(d,p) empiricaldispersion=gd3bj scf=xqc pop=npa geom=c
 heck
 ----------------------------------------------------------------------

 --------------------------------------
 CID_88755044_JID_6210_Energie_neutraal
 --------------------------------------
 Structure from the checkpoint file:  "JID_6210.chk"
 Charge =  0 Multiplicity = 1

 SCF Done:  E(RB3LYP) =  -1366.99321465     A.U. after   22 cycles
 Normal termination of Gaussian 16 at Thu Dec 10 21:21:18 2020.

 ----------------------------------------------------------------------
 # B3LYP/6-311++G(d,p) empiricaldispersion=gd3bj scf=xqc pop=npa geom=c
 heck
 ----------------------------------------------------------------------

 ------------------------------------
 CID_88755044_JID_6210_Energie_kation
 ------------------------------------
 Structure from the checkpoint file:  "JID_6210.chk"
 Charge =  1 Multiplicity = 2

 SCF Done:  E(UB3LYP) =  -1366.72501552     A.U. after   25 cycles
 Normal termination of Gaussian 16 at Thu Dec 10 21:28:59 2020.
 Gaussian 16:  ES64L-G16RevA.03 25-Dec-2016

 ----------------------------------------------------------------------
 # B3LYP/6-311++G(d,p) empiricaldispersion=gd3bj scf=xqc pop=npa geom=c
 heck
 ----------------------------------------------------------------------

 -----------------------------------
 CID_88755044_JID_6210_Energie_anion
 -----------------------------------
 Structure from the checkpoint file:  "JID_6210.chk"
 Charge = -1 Multiplicity = 2

                         Standard orientation:
 ---------------------------------------------------------------------
 Center     Atomic      Atomic             Coordinates (Angstroms)
 Number     Number       Type             X           Y           Z
 ---------------------------------------------------------------------
      1          6           0        4.503715   -1.303981    0.000006
      2          6           0        4.966505    0.016608    0.000005
      3          6           0        4.079211    1.100975    0.000001
      4          6           0        2.715425    0.832028   -0.000003
      5          6           0        2.242974   -0.509973   -0.000003
      6          6           0        3.129897   -1.579085    0.000003
      7          6           0        0.791638   -0.391506   -0.000008
      8          6           0       -0.235604   -1.274024   -0.000004
      9          6           0       -1.587352   -0.760246   -0.000011
     10          7           0       -2.606997   -1.577381    0.000003
     11         16           0       -4.115299   -0.911791    0.000001
     12         16           0       -3.524457    1.145536    0.000004
     13          6           0       -1.815082    0.700993   -0.000000
     14          6           0       -0.780442    1.588256    0.000003
     15          6           0        0.554860    1.073319   -0.000006
     16          7           0        1.666425    1.775620   -0.000006
     17          1           0        5.215777   -2.123688    0.000008
     18          1           0        6.036400    0.205145    0.000008
     19          1           0        4.435355    2.125960    0.000001
     20          1           0        2.773708   -2.605991    0.000002
     21          1           0       -0.105726   -2.351210    0.000002
     22          1           0       -0.929873    2.662002    0.000014
 ---------------------------------------------------------------------

 SCF Done:  E(UB3LYP) =  -1367.06617601     A.U. after   25 cycles

 The electronic state is 2-A.
 Alpha  occ. eigenvalues --  -88.78139 -88.75929 -14.20486 -14.14678 -10.09679
 Alpha  occ. eigenvalues --  -10.09499 -10.06637 -10.06288 -10.05645 -10.05495
 Alpha  occ. eigenvalues --  -10.05273 -10.05144 -10.05056 -10.04744 -10.04551
 Alpha  occ. eigenvalues --  -10.04391  -7.86489  -7.84510  -5.83037  -5.82460
 Alpha  occ. eigenvalues --   -5.81846  -5.80891  -5.80545  -5.79910  -0.84214
 Alpha  occ. eigenvalues --   -0.81082  -0.72148  -0.70559  -0.68663  -0.64436
 Alpha  occ. eigenvalues --   -0.61980  -0.59908  -0.58383  -0.52269  -0.49052
 Alpha  occ. eigenvalues --   -0.46473  -0.45023  -0.44723  -0.39429  -0.36871
 Alpha  occ. eigenvalues --   -0.35879  -0.33922  -0.32565  -0.32171  -0.30857
 Alpha  occ. eigenvalues --   -0.30410  -0.28490  -0.28083  -0.28029  -0.24743
 Alpha  occ. eigenvalues --   -0.24071  -0.22763  -0.22253  -0.21705  -0.20325
 Alpha  occ. eigenvalues --   -0.18842  -0.17521  -0.16044  -0.12782  -0.12681
 Alpha  occ. eigenvalues --   -0.10680  -0.07384  -0.01876
 Alpha virt. eigenvalues --    0.05665   0.08009   0.08179   0.09406   0.09587
 Alpha virt. eigenvalues --    0.10207   0.11132   0.11597   0.11957   0.12965
 Alpha virt. eigenvalues --    0.13661   0.13969   0.14451   0.14848   0.14908

  Beta  occ. eigenvalues --  -88.78069 -88.75895 -14.19625 -14.14474 -10.09733
  Beta  occ. eigenvalues --  -10.09350 -10.06533 -10.06248 -10.05640 -10.05459
  Beta  occ. eigenvalues --  -10.05125 -10.05106 -10.05059 -10.04756 -10.04496
  Beta  occ. eigenvalues --  -10.04339  -7.86428  -7.84479  -5.83002  -5.82439
  Beta  occ. eigenvalues --   -5.81611  -5.80882  -5.80532  -5.79786  -0.83202
  Beta  occ. eigenvalues --   -0.80719  -0.72011  -0.70140  -0.68329  -0.64238
  Beta  occ. eigenvalues --   -0.61817  -0.59655  -0.58166  -0.51877  -0.48777
  Beta  occ. eigenvalues --   -0.46215  -0.44810  -0.44458  -0.39256  -0.36701
  Beta  occ. eigenvalues --   -0.35685  -0.33721  -0.32495  -0.32040  -0.30322
  Beta  occ. eigenvalues --   -0.29485  -0.28354  -0.27802  -0.27068  -0.24527
  Beta  occ. eigenvalues --   -0.23973  -0.22168  -0.21998  -0.21561  -0.19168
  Beta  occ. eigenvalues --   -0.17698  -0.16656  -0.15301  -0.12434  -0.12134
  Beta  occ. eigenvalues --   -0.09550  -0.06364
  Beta virt. eigenvalues --    0.04137   0.05848   0.08005   0.08876   0.09463
  Beta virt. eigenvalues --    0.09681   0.10227   0.11148   0.11608   0.12466
  Beta virt. eigenvalues --    0.12975   0.13858   0.14033   0.14492   0.14859

 Mulliken charges and spin densities:
               1          2
     1  C   -0.277608   0.014419
     2  C   -0.331930   0.028579
     3  C   -0.531365  -0.007842
     4  C   -0.351219   0.020191
     5  C    1.025571   0.023841
     6  C   -0.389382   0.013695
     7  C    0.869114   0.038020
     8  C   -0.909184   0.129331
     9  C   -1.546411  -0.074423
    10  N    0.156498   0.369490
    11  S    0.275698   0.132792
    12  S   -0.913648   0.034087
    13  C    2.192227   0.189707
    14  C   -0.580952  -0.055498
    15  C   -0.424280   0.053953
    16  N   -0.040721   0.101264
    17  H    0.124210  -0.001449
    18  H    0.112250  -0.002344
    19  H    0.134490   0.000837
    20  H    0.083458   0.000290
    21  H    0.173445  -0.009135
    22  H    0.149738   0.000194
 Sum of Mulliken charges =  -1.00000   1.00000

 Dipole moment (field-independent basis, Debye):
    X=             -0.8481    Y=             -1.1515    Z=              0.0000  Tot=              1.4301
 Quadrupole moment (field-independent basis, Debye-Ang):
   XX=           -152.8214   YY=           -121.4624   ZZ=           -116.5882
   XY=             -8.0247   XZ=              0.0000   YZ=              0.0000

 Summary of Natural Population Analysis:

                                       Natural Population
                Natural  -----------------------------------------------
    Atom  No    Charge         Core      Valence    Rydberg      Total
 -----------------------------------------------------------------------
      C    1   -0.08116      0.99960     2.07741    0.00414     3.08116
      C    2   -0.12181      0.99963     2.10424    0.01794     3.12181
      C    3   -0.11794      0.99951     2.10890    0.00952     3.11794
      C    4    0.07341      0.99951     1.91051    0.01657     2.92659
      C    5    0.01739      0.99946     1.97110    0.01206     2.98261
      C    6   -0.12918      0.99964     2.10819    0.02136     3.12918
      C    7   -0.05487      0.99956     2.03852    0.01679     3.05487
      C    8   -0.00830      0.99946     2.00278    0.00606     3.00830
      C    9    0.04409      0.99953     1.94048    0.01590     2.95591
      N   10   -0.14240      0.99964     2.62809    0.01468     3.64240
      S   11    0.21048      4.99962     2.76144    0.02846     7.78952
      S   12    0.06691      4.99952     2.91395    0.01963     7.93309
      C   13   -0.07577      0.99945     2.06329    0.01303     3.07577
      C   14   -0.11816      0.99945     2.11227    0.00644     3.11816
      C   15    0.11442      0.99957     1.86748    0.01854     2.88558
      N   16   -0.23700      0.99968     2.72329    0.01402     3.73700
      H   17    0.08898      0.00000     0.41010    0.00092     0.41102
      H   18    0.08990      0.00000     0.40835    0.00175     0.41010
      H   19    0.09872      0.00000     0.39983    0.00145     0.40128
      H   20    0.09276      0.00000     0.40433    0.00290     0.40724
      H   21    0.09488      0.00000     0.40315    0.00198     0.40512
      H   22    0.09984      0.00000     0.39826    0.00190     0.40016
 =======================================================================
   * Total *    0.00519     23.99281    37.75596    0.24604    61.99481

 Normal termination of Gaussian 16 at Thu Dec 10 21:36:45 2020.
