 Gaussian 16, Revision A.03,

 -----------------------------------------------------------
 # opt freq B3LYP/6-31G(d) empiricaldispersion=gd3bj scf=xqc
 -----------------------------------------------------------

 -------------------------------
 CID_114415384_JID_6611_neutraal
 -------------------------------
 Symbolic Z-matrix:
 Charge =  0 Multiplicity = 1

 SCF Done:  E(RB3LYP) =  -638.982915847     A.U. after   14 cycles
 SCF Done:  E(RB3LYP) =  -638.986340279     A.U. after   12 cycles
 SCF Done:  E(RB3LYP) =  -638.986032533     A.U. after   12 cycles
 SCF Done:  E(RB3LYP) =  -638.986631217     A.U. after   12 cycles
 SCF Done:  E(RB3LYP) =  -638.986977169     A.U. after   12 cycles
 SCF Done:  E(RB3LYP) =  -638.987063626     A.U. after   11 cycles
 SCF Done:  E(RB3LYP) =  -638.987108717     A.U. after   11 cycles
 SCF Done:  E(RB3LYP) =  -638.987135863     A.U. after   10 cycles
 SCF Done:  E(RB3LYP) =  -638.987139923     A.U. after   10 cycles
 SCF Done:  E(RB3LYP) =  -638.987142898     A.U. after    9 cycles
 SCF Done:  E(RB3LYP) =  -638.987148297     A.U. after   10 cycles
 SCF Done:  E(RB3LYP) =  -638.987150027     A.U. after   10 cycles
 SCF Done:  E(RB3LYP) =  -638.987151503     A.U. after   10 cycles
 SCF Done:  E(RB3LYP) =  -638.987152070     A.U. after   10 cycles
 SCF Done:  E(RB3LYP) =  -638.987152068     A.U. after    7 cycles
 Optimization completed.
    -- Stationary point found.
 Normal termination of Gaussian 16 at Thu Dec 10 22:16:40 2020.

 --------------------------------------------------------------------
 #N Geom=AllCheck Guess=TCheck SCRF=Check GenChk RB3LYP/6-31G(d) Freq
 --------------------------------------------------------------------

 Structure from the checkpoint file:  "JID_6611.chk"
 -------------------------------
 CID_114415384_JID_6611_neutraal
 -------------------------------
 Charge =  0 Multiplicity = 1

 SCF Done:  E(RB3LYP) =  -638.987152068     A.U. after    1 cycles

  Exact polarizability: 162.268 -23.883 169.068 -11.436  -0.364 135.653
 Approx polarizability: 216.888 -44.249 237.069 -27.420  -1.807 231.909

                      1                      2                      3
                      A                      A                      A
 Frequencies --     14.7471                37.9268                51.1182
 Red. masses --      3.5363                 3.5988                 3.6483
 Frc consts  --      0.0005                 0.0031                 0.0056
 IR Inten    --      0.1465                 0.0147                 0.0619

                      4                      5                      6
                      A                      A                      A
 Frequencies --     57.3102                67.4393               101.6610
 Red. masses --      3.6903                 3.3572                 3.0462
 Frc consts  --      0.0071                 0.0090                 0.0185
 IR Inten    --      0.0318                 0.0339                 0.4759

                      7                      8                      9
                      A                      A                      A
 Frequencies --    119.3839               161.3265               185.3989
 Red. masses --      3.1167                 3.0872                 2.1308
 Frc consts  --      0.0262                 0.0473                 0.0432
 IR Inten    --      0.2498                 0.3470                 1.0342

                     10                     11                     12
                      A                      A                      A
 Frequencies --    206.1246               215.8048               238.7612
 Red. masses --      2.3763                 1.8989                 2.8300
 Frc consts  --      0.0595                 0.0521                 0.0951
 IR Inten    --      0.3197                 0.4551                 1.3245

                     13                     14                     15
                      A                      A                      A
 Frequencies --    272.6027               275.5520               303.5488
 Red. masses --      1.7708                 1.4926                 2.3780
 Frc consts  --      0.0775                 0.0668                 0.1291
 IR Inten    --      0.2538                 0.0919                 0.7123

                     16                     17                     18
                      A                      A                      A
 Frequencies --    334.5621               381.0898               416.2464
 Red. masses --      2.7287                 2.4069                 2.9787
 Frc consts  --      0.1800                 0.2060                 0.3041
 IR Inten    --      2.7625                 0.4370                 0.2731

                     19                     20                     21
                      A                      A                      A
 Frequencies --    420.3157               445.0925               492.6006
 Red. masses --      3.4039                 3.0699                 2.5274
 Frc consts  --      0.3543                 0.3583                 0.3613
 IR Inten    --      0.6219                 1.6897                 1.8478

                     22                     23                     24
                      A                      A                      A
 Frequencies --    538.5184               553.6831               584.8264
 Red. masses --      2.9851                 3.7640                 2.7148
 Frc consts  --      0.5100                 0.6799                 0.5471
 IR Inten    --      3.6863                 2.8790                10.0446

                     25                     26                     27
                      A                      A                      A
 Frequencies --    599.6665               618.2344               628.2055
 Red. masses --      1.2153                 2.6161                 1.3549
 Frc consts  --      0.2575                 0.5891                 0.3150
 IR Inten    --     45.9973                 8.7693                45.0281

                     28                     29                     30
                      A                      A                      A
 Frequencies --    637.9899               699.0557               721.1217
 Red. masses --      5.9274                 2.1617                 1.7736
 Frc consts  --      1.4215                 0.6224                 0.5434
 IR Inten    --      1.2208                82.4267                63.3585

                     31                     32                     33
                      A                      A                      A
 Frequencies --    736.2240               781.2874               798.4618
 Red. masses --      1.4386                 2.0345                 2.0011
 Frc consts  --      0.4594                 0.7317                 0.7517
 IR Inten    --      2.2685                19.4547                 9.8435

                     34                     35                     36
                      A                      A                      A
 Frequencies --    822.7054               856.4148               860.1114
 Red. masses --      2.5434                 1.9368                 1.3632
 Frc consts  --      1.0143                 0.8369                 0.5942
 IR Inten    --      0.2745                12.5536                 4.1300

                     37                     38                     39
                      A                      A                      A
 Frequencies --    875.1410               921.1137               937.4455
 Red. masses --      1.4714                 1.4376                 1.8680
 Frc consts  --      0.6640                 0.7187                 0.9672
 IR Inten    --      2.6568                 2.2682                 3.2297

                     40                     41                     42
                      A                      A                      A
 Frequencies --    965.4867               972.8515               983.9053
 Red. masses --      1.3566                 2.0571                 1.5863
 Frc consts  --      0.7451                 1.1471                 0.9048
 IR Inten    --      0.2191                 5.6054                 1.2482

                     43                     44                     45
                      A                      A                      A
 Frequencies --    993.5447              1022.2051              1035.3892
 Red. masses --      1.2455                 6.0588                 1.7622
 Frc consts  --      0.7244                 3.7300                 1.1130
 IR Inten    --      0.5074                 0.9432                 1.1571

                     46                     47                     48
                      A                      A                      A
 Frequencies --   1060.4635              1064.7219              1087.4217
 Red. masses --      2.2930                 3.0883                 1.9401
 Frc consts  --      1.5193                 2.0627                 1.3516
 IR Inten    --      3.1032                 7.0098                 2.0859

                     49                     50                     51
                      A                      A                      A
 Frequencies --   1097.7614              1107.6759              1123.1408
 Red. masses --      1.6438                 1.7523                 2.1393
 Frc consts  --      1.1671                 1.2667                 1.5900
 IR Inten    --      0.5389                 5.8148                14.2700

                     52                     53                     54
                      A                      A                      A
 Frequencies --   1145.2302              1163.8112              1182.8298
 Red. masses --      2.0935                 2.4463                 2.1583
 Frc consts  --      1.6178                 1.9522                 1.7792
 IR Inten    --      0.6259                70.1144                49.9192

                     55                     56                     57
                      A                      A                      A
 Frequencies --   1193.5743              1215.0233              1218.6976
 Red. masses --      1.1015                 1.1369                 1.7490
 Frc consts  --      0.9246                 0.9889                 1.5305
 IR Inten    --      0.2157                 0.0954                 2.2213

                     58                     59                     60
                      A                      A                      A
 Frequencies --   1228.5349              1280.4805              1306.6420
 Red. masses --      1.9154                 1.3696                 1.3725
 Frc consts  --      1.7032                 1.3231                 1.3807
 IR Inten    --      6.9201                 0.8324                10.0404

                     61                     62                     63
                      A                      A                      A
 Frequencies --   1323.1540              1339.8006              1346.2830
 Red. masses --      1.4443                 1.3652                 1.2389
 Frc consts  --      1.4898                 1.4438                 1.3230
 IR Inten    --      2.7961                16.9003                 7.7589

                     64                     65                     66
                      A                      A                      A
 Frequencies --   1367.9589              1370.9182              1387.8194
 Red. masses --      2.6437                 1.3662                 1.4451
 Frc consts  --      2.9148                 1.5128                 1.6399
 IR Inten    --      2.4747                13.2412                 4.8044

                     67                     68                     69
                      A                      A                      A
 Frequencies --   1404.1338              1412.0468              1420.6203
 Red. masses --      1.3301                 1.4136                 1.3510
 Frc consts  --      1.5450                 1.6607                 1.6064
 IR Inten    --      6.5375                 1.4637                 5.3488

                     70                     71                     72
                      A                      A                      A
 Frequencies --   1430.2478              1444.7771              1502.4784
 Red. masses --      1.2200                 1.2664                 1.7699
 Frc consts  --      1.4704                 1.5575                 2.3540
 IR Inten    --      5.3014                 5.3865                 6.2200

                     73                     74                     75
                      A                      A                      A
 Frequencies --   1508.8141              1511.8861              1521.4172
 Red. masses --      1.2579                 1.1033                 1.0670
 Frc consts  --      1.6872                 1.4858                 1.4552
 IR Inten    --     28.5246                 0.7300                 0.8582

                     76                     77                     78
                      A                      A                      A
 Frequencies --   1523.0588              1525.4642              1530.1736
 Red. masses --      1.0893                 1.0556                 1.0856
 Frc consts  --      1.4888                 1.4473                 1.4977
 IR Inten    --      4.6778                 5.0782                10.9963

                     79                     80                     81
                      A                      A                      A
 Frequencies --   1534.9253              1542.8362              1545.8262
 Red. masses --      1.0614                 1.0744                 2.1700
 Frc consts  --      1.4734                 1.5069                 3.0552
 IR Inten    --     11.8916                 2.4822                 5.5640

                     82                     83                     84
                      A                      A                      A
 Frequencies --   1646.9344              1665.6022              2240.3287
 Red. masses --      5.4504                 5.5573                 5.9590
 Frc consts  --      8.7102                 9.0835                17.6217
 IR Inten    --      1.3069                 2.8317                 0.1677

                     85                     86                     87
                      A                      A                      A
 Frequencies --   3026.7440              3029.1371              3037.7099
 Red. masses --      1.0712                 1.0800                 1.0645
 Frc consts  --      5.7819                 5.8387                 5.7875
 IR Inten    --     13.7915                 6.3846                23.7427

                     88                     89                     90
                      A                      A                      A
 Frequencies --   3042.4771              3045.0227              3049.6322
 Red. masses --      1.0620                 1.0417                 1.0800
 Frc consts  --      5.7918                 5.6906                 5.9181
 IR Inten    --     25.7887                20.8284                45.8879

                     91                     92                     93
                      A                      A                      A
 Frequencies --   3060.4833              3069.6670              3077.8798
 Red. masses --      1.0378                 1.0960                 1.1005
 Frc consts  --      5.7273                 6.0847                 6.1424
 IR Inten    --     19.6364                22.9682                26.3142

                     94                     95                     96
                      A                      A                      A
 Frequencies --   3101.7278              3109.5925              3116.3643
 Red. masses --      1.0953                 1.1016                 1.1014
 Frc consts  --      6.2086                 6.2759                 6.3019
 IR Inten    --     66.9039                46.8068                49.1911

                     97                     98                     99
                      A                      A                      A
 Frequencies --   3124.5131              3169.3837              3171.5278
 Red. masses --      1.1026                 1.0996                 1.0861
 Frc consts  --      6.3422                 6.5079                 6.4365
 IR Inten    --     27.8124                15.0067                11.5302

                    100                    101                    102
                      A                      A                      A
 Frequencies --   3173.6547              3188.1327              3196.9084
 Red. masses --      1.0873                 1.0890                 1.0935
 Frc consts  --      6.4526                 6.5213                 6.5846
 IR Inten    --      7.1568                 3.8045                37.8110

                    103                    104                    105
                      A                      A                      A
 Frequencies --   3210.1667              3496.7585              3502.3576
 Red. masses --      1.0977                 1.1601                 1.0739
 Frc consts  --      6.6650                 8.3572                 7.7611
 IR Inten    --     25.5513                58.8241                 0.1751

 - Thermochemistry -
 -------------------
 Temperature   298.150 Kelvin.  Pressure   1.00000 Atm.
 Atom     1 has atomic number  6 and mass  12.00000

 Molecular mass:   215.16740 amu.
 Principal axes and moments of inertia in atomic units:
                           1         2         3
     Eigenvalues --  3462.640274293.579486677.16267
           X            0.99324   0.11605  -0.00281
           Y           -0.11606   0.99323  -0.00385
           Z            0.00235   0.00415   0.99999
 This molecule is an asymmetric top.
 Rotational symmetry number  1.
 Warning -- assumption of classical behavior for rotation
           may cause significant error
 Rotational temperatures (Kelvin)      0.02501     0.02017     0.01297
 Rotational constants (GHZ):           0.52120     0.42033     0.27029
 Zero-point vibrational energy     858114.6 (Joules/Mol)
                                  205.09431 (Kcal/Mol)
 Warning -- explicit consideration of  26 degrees of freedom as
           vibrations may cause significant error
 Vibrational temperatures:     21.22    54.57    73.55    82.46    97.03
          (Kelvin)            146.27   171.77   232.11   266.75   296.57
                              310.50   343.52   392.21   396.46   436.74
                              481.36   548.30   598.89   604.74   640.39
                              708.74   774.81   796.63   841.43   862.79
                              889.50   903.85   917.93  1005.79  1037.53
                             1059.26  1124.10  1148.81  1183.69  1232.19
                             1237.51  1259.13  1325.28  1348.78  1389.12
                             1399.72  1415.62  1429.49  1470.73  1489.69
                             1525.77  1531.90  1564.56  1579.43  1593.70
                             1615.95  1647.73  1674.46  1701.83  1717.29
                             1748.15  1753.43  1767.59  1842.33  1879.97
                             1903.72  1927.67  1937.00  1968.19  1972.45
                             1996.76  2020.24  2031.62  2043.96  2057.81
                             2078.71  2161.73  2170.85  2175.27  2188.98
                             2191.34  2194.80  2201.58  2208.42  2219.80
                             2224.10  2369.57  2396.43  3223.33  4354.81
                             4358.25  4370.59  4377.45  4381.11  4387.74
                             4403.35  4416.57  4428.38  4462.69  4474.01
                             4483.75  4495.48  4560.04  4563.12  4566.18
                             4587.01  4599.64  4618.71  5031.06  5039.11

 Zero-point correction=                           0.326839 (Hartree/Particle)
 Thermal correction to Energy=                    0.343879
 Thermal correction to Enthalpy=                  0.344823
 Thermal correction to Gibbs Free Energy=         0.280424
 Sum of electronic and zero-point Energies=           -638.660313
 Sum of electronic and thermal Energies=              -638.643273
 Sum of electronic and thermal Enthalpies=            -638.642329
 Sum of electronic and thermal Free Energies=         -638.706728

                     E (Thermal)             CV                S
                      KCal/Mol        Cal/Mol-Kelvin    Cal/Mol-Kelvin
 Total                  215.787             64.675            135.539
 Electronic               0.000              0.000              0.000
 Translational            0.889              2.981             42.002
 Rotational               0.889              2.981             32.962
 Vibrational            214.010             58.713             60.575
 Vibration     1          0.593              1.986              7.239
 Vibration     2          0.594              1.982              5.365
 Vibration     3          0.595              1.977              4.774
 Vibration     4          0.596              1.975              4.548
 Vibration     5          0.598              1.970              4.227
 Vibration     6          0.604              1.948              3.422
 Vibration     7          0.609              1.933              3.110
 Vibration     8          0.622              1.890              2.534
 Vibration     9          0.631              1.860              2.273
 Vibration    10          0.641              1.831              2.078
 Vibration    11          0.645              1.817              1.994
 Vibration    12          0.657              1.781              1.812
 Vibration    13          0.676              1.724              1.580
 Vibration    14          0.677              1.719              1.561
 Vibration    15          0.695              1.667              1.397
 Vibration    16          0.716              1.606              1.238
 Vibration    17          0.751              1.510              1.035
 Vibration    18          0.779              1.435              0.905
 Vibration    19          0.783              1.426              0.891
 Vibration    20          0.804              1.372              0.811
 Vibration    21          0.848              1.266              0.677
 Vibration    22          0.894              1.165              0.568
 Vibration    23          0.909              1.132              0.537
 Vibration    24          0.942              1.064              0.476
 Vibration    25          0.958              1.033              0.450
 Vibration    26          0.978              0.993              0.419

 Optimization completed.
    -- Stationary point found.
 Normal termination of Gaussian 16 at Thu Dec 10 22:29:55 2020.

 ----------------------------------------------------------------------
 # B3LYP/6-311++G(d,p) empiricaldispersion=gd3bj scf=xqc pop=npa geom=c
 heck
 ----------------------------------------------------------------------

 ---------------------------------------
 CID_114415384_JID_6611_Energie_neutraal
 ---------------------------------------
 Structure from the checkpoint file:  "JID_6611.chk"
 Charge =  0 Multiplicity = 1

 SCF Done:  E(RB3LYP) =  -639.165183126     A.U. after   14 cycles
 Normal termination of Gaussian 16 at Thu Dec 10 22:36:40 2020.

 ----------------------------------------------------------------------
 # B3LYP/6-311++G(d,p) empiricaldispersion=gd3bj scf=xqc pop=npa geom=c
 heck
 ----------------------------------------------------------------------

 -------------------------------------
 CID_114415384_JID_6611_Energie_kation
 -------------------------------------
 Structure from the checkpoint file:  "JID_6611.chk"
 Charge =  1 Multiplicity = 2

 SCF Done:  E(UB3LYP) =  -638.870506475     A.U. after   25 cycles
 Normal termination of Gaussian 16 at Thu Dec 10 22:52:26 2020.
 Gaussian 16:  ES64L-G16RevA.03 25-Dec-2016

 ----------------------------------------------------------------------
 # B3LYP/6-311++G(d,p) empiricaldispersion=gd3bj scf=xqc pop=npa geom=c
 heck
 ----------------------------------------------------------------------

 ------------------------------------
 CID_114415384_JID_6611_Energie_anion
 ------------------------------------
 Structure from the checkpoint file:  "JID_6611.chk"
 Charge = -1 Multiplicity = 2

                         Standard orientation:
 ---------------------------------------------------------------------
 Center     Atomic      Atomic             Coordinates (Angstroms)
 Number     Number       Type             X           Y           Z
 ---------------------------------------------------------------------
      1          6           0        2.029773    3.580357   -0.776670
      2          6           0        2.611995    2.193749   -0.487557
      3          6           0        2.232980    1.629408    0.890198
      4          6           0        0.725677    1.514076    1.154256
      5          6           0       -0.044030    0.634577    0.151299
      6          6           0        0.558384   -0.763126    0.052766
      7          6           0        1.088418   -1.231689   -1.152793
      8          6           0        1.620330   -2.518970   -1.252808
      9          6           0        1.631061   -3.357264   -0.138746
     10          6           0        1.110467   -2.898198    1.073978
     11          6           0        0.581594   -1.612992    1.166197
     12          7           0       -1.464494    0.693902    0.505260
     13          6           0       -2.431635    0.157898   -0.460568
     14          6           0       -2.569331   -1.380786   -0.514733
     15          6           0       -3.748398    0.757566   -0.188560
     16          6           0       -4.844479    1.203446    0.049973
     17          1           0        0.935062    3.560858   -0.820478
     18          1           0        2.391143    3.968682   -1.735429
     19          1           0        2.315050    4.297312    0.003195
     20          1           0        2.298603    1.493047   -1.272162
     21          1           0        3.706915    2.240359   -0.551350
     22          1           0        2.697389    0.642851    1.009392
     23          1           0        2.666651    2.272533    1.668207
     24          1           0        0.576456    1.105269    2.163638
     25          1           0        0.251326    2.500813    1.152389
     26          1           0        0.035075    1.097238   -0.840668
     27          1           0        1.074040   -0.583784   -2.026357
     28          1           0        2.022565   -2.865902   -2.200735
     29          1           0        2.041397   -4.360342   -0.212196
     30          1           0        1.116520   -3.544419    1.947569
     31          1           0        0.173167   -1.269508    2.113900
     32          1           0       -1.631688    0.293233    1.426035
     33          1           0       -2.097112    0.506696   -1.447872
     34          1           0       -2.846897   -1.766811    0.472342
     35          1           0       -3.355711   -1.665346   -1.221708
     36          1           0       -1.631691   -1.848087   -0.819499
     37          1           0       -5.803628    1.619676    0.257567
 ---------------------------------------------------------------------

 SCF Done:  E(UB3LYP) =  -639.151325097     A.U. after   33 cycles
 SCF Done:  E(UB3LYP) =  -639.151325097     a.u. after    1 cycles

 The electronic state is 2-A.
 Alpha  occ. eigenvalues --  -14.21349 -10.14068 -10.11441 -10.09109 -10.08610
 Alpha  occ. eigenvalues --  -10.08210 -10.08153 -10.08049 -10.08032 -10.08018
 Alpha  occ. eigenvalues --  -10.07987 -10.07367 -10.07355 -10.07203 -10.07115
 Alpha  occ. eigenvalues --  -10.06728  -0.83226  -0.76504  -0.72119  -0.69437
 Alpha  occ. eigenvalues --   -0.66479  -0.65455  -0.64406  -0.63117  -0.58212
 Alpha  occ. eigenvalues --   -0.54705  -0.53879  -0.51349  -0.49496  -0.46987
 Alpha  occ. eigenvalues --   -0.45104  -0.43118  -0.40459  -0.39477  -0.37842
 Alpha  occ. eigenvalues --   -0.36574  -0.35935  -0.35487  -0.34592  -0.33016
 Alpha  occ. eigenvalues --   -0.32904  -0.32310  -0.30831  -0.30606  -0.29204
 Alpha  occ. eigenvalues --   -0.28230  -0.27970  -0.27232  -0.26334  -0.25523
 Alpha  occ. eigenvalues --   -0.25098  -0.23454  -0.23041  -0.22686  -0.19699
 Alpha  occ. eigenvalues --   -0.19149  -0.16419  -0.16077  -0.13870   0.04136
 Alpha virt. eigenvalues --    0.06003   0.06157   0.06462   0.07379   0.07538
 Alpha virt. eigenvalues --    0.07818   0.08089   0.08651   0.08745   0.09103
 Alpha virt. eigenvalues --    0.10122   0.10375   0.10559   0.10871   0.11314

  Beta  occ. eigenvalues --  -14.21341 -10.14060 -10.11433 -10.09109 -10.08612
  Beta  occ. eigenvalues --  -10.08191 -10.08135 -10.08032 -10.08021 -10.08004
  Beta  occ. eigenvalues --  -10.07972 -10.07359 -10.07343 -10.07190 -10.07106
  Beta  occ. eigenvalues --  -10.06706  -0.83211  -0.76477  -0.72099  -0.69417
  Beta  occ. eigenvalues --   -0.66454  -0.65416  -0.64385  -0.63090  -0.58180
  Beta  occ. eigenvalues --   -0.54670  -0.53842  -0.51300  -0.49458  -0.46953
  Beta  occ. eigenvalues --   -0.45076  -0.43071  -0.40430  -0.39453  -0.37812
  Beta  occ. eigenvalues --   -0.36545  -0.35901  -0.35457  -0.34558  -0.32992
  Beta  occ. eigenvalues --   -0.32865  -0.32286  -0.30802  -0.30591  -0.29174
  Beta  occ. eigenvalues --   -0.28207  -0.27945  -0.27201  -0.26309  -0.25490
  Beta  occ. eigenvalues --   -0.25063  -0.23437  -0.23018  -0.22660  -0.19684
  Beta  occ. eigenvalues --   -0.19134  -0.16391  -0.16062  -0.13856
  Beta virt. eigenvalues --    0.05989   0.06501   0.06907   0.07116   0.07431
  Beta virt. eigenvalues --    0.07671   0.08246   0.08658   0.08962   0.09037
  Beta virt. eigenvalues --    0.09372   0.10352   0.10548   0.10727   0.11056

 Mulliken charges and spin densities:
               1          2
     1  C    0.381758  -1.023554
     2  C   -0.520077   0.402082
     3  C   -0.332321  -0.095587
     4  C    0.030519  -0.009687
     5  C    2.304821  -3.431154
     6  C    0.389270   0.647561
     7  C   -1.950270   1.864762
     8  C    0.434178  -0.935643
     9  C    2.238508  -2.575568
    10  C   -0.025499  -0.425667
    11  C   -1.412456   1.271884
    12  N    0.276863  -0.054231
    13  C   -1.190433   0.765039
    14  C    0.170685  -0.874222
    15  C    2.175088  -1.242373
    16  C   -1.690471   1.027184
    17  H   -0.051705   0.203437
    18  H   -0.260494   0.401460
    19  H    0.036327   0.092037
    20  H    0.228163  -0.120743
    21  H   -0.339777   0.495409
    22  H    0.258894  -0.121598
    23  H   -0.080846   0.244661
    24  H   -0.024581   0.156112
    25  H    0.267105  -0.081111
    26  H    0.161429   0.074763
    27  H   -0.444309   0.619660
    28  H   -0.849026   1.047713
    29  H   -0.326845   0.492374
    30  H   -0.803852   0.998835
    31  H   -0.390641   0.556803
    32  H    0.209406   0.018221
    33  H   -0.136239   0.249271
    34  H   -0.047289   0.207715
    35  H    0.080879   0.059258
    36  H    0.382836  -0.203634
    37  H   -0.149599   0.298530
 Sum of Mulliken charges =  -1.00000   1.00000

 Dipole moment (field-independent basis, Debye):
    X=             -3.5837    Y=              3.0571    Z=              1.4445  Tot=              4.9270
 Quadrupole moment (field-independent basis, Debye-Ang):
   XX=           -158.4781   YY=           -173.2980   ZZ=           -144.8377
   XY=              4.8610   XZ=              5.6264   YZ=              5.5336

 Summary of Natural Population Analysis:

                                       Natural Population
                Natural  -----------------------------------------------
    Atom  No    Charge         Core      Valence    Rydberg      Total
 -----------------------------------------------------------------------
      C    1   -0.28627      0.99967     2.28234    0.00426     3.28627
      C    2   -0.19341      0.99964     2.18568    0.00809     3.19341
      C    3   -0.19049      0.99962     2.18295    0.00792     3.19049
      C    4   -0.18842      0.99961     2.17922    0.00959     3.18842
      C    5   -0.01632      0.99954     2.00345    0.01333     3.01632
      C    6   -0.02566      0.99948     2.01215    0.01403     3.02566
      C    7   -0.10383      0.99950     2.09351    0.01082     3.10383
      C    8   -0.09583      0.99956     2.08535    0.01092     3.09583
      C    9   -0.10259      0.99956     2.09293    0.01011     3.10259
      C   10   -0.09550      0.99956     2.08501    0.01093     3.09550
      C   11   -0.10366      0.99949     2.09332    0.01084     3.10366
      N   12   -0.33066      0.99973     2.81955    0.01139     3.83066
      C   13   -0.04798      0.99954     2.03761    0.01083     3.04798
      C   14   -0.28502      0.99964     2.28073    0.00464     3.28502
      C   15    0.01236      0.99937     1.97932    0.00895     2.98764
      C   16   -0.13048      0.99928     2.12717    0.00403     3.13048
      H   17    0.09648      0.00000     0.40247    0.00104     0.40352
      H   18    0.09957      0.00000     0.39935    0.00108     0.40043
      H   19    0.09389      0.00000     0.40502    0.00109     0.40611
      H   20    0.09546      0.00000     0.40287    0.00167     0.40454
      H   21    0.09599      0.00000     0.40296    0.00104     0.40401
      H   22    0.10220      0.00000     0.39646    0.00135     0.39780
      H   23    0.09487      0.00000     0.40420    0.00094     0.40513
      H   24    0.09729      0.00000     0.40162    0.00110     0.40271
      H   25    0.10306      0.00000     0.39565    0.00129     0.39694
      H   26    0.09570      0.00000     0.40159    0.00271     0.40430
      H   27    0.10119      0.00000     0.39638    0.00243     0.39881
      H   28    0.10371      0.00000     0.39455    0.00174     0.39629
      H   29    0.10327      0.00000     0.39515    0.00158     0.39673
      H   30    0.10305      0.00000     0.39520    0.00175     0.39695
      H   31    0.09944      0.00000     0.39843    0.00213     0.40056
      H   32    0.17361      0.00000     0.32380    0.00259     0.32639
      H   33    0.10725      0.00000     0.39063    0.00211     0.39275
      H   34    0.09860      0.00000     0.40013    0.00128     0.40140
      H   35    0.10028      0.00000     0.39880    0.00093     0.39972
      H   36    0.10960      0.00000     0.38894    0.00146     0.39040
      H   37    0.10927      0.00000     0.38963    0.00111     0.39073
 =======================================================================
   * Total *    0.00000     15.99277    42.82412    0.18312    59.00000

 Normal termination of Gaussian 16 at Thu Dec 10 23:12:37 2020.
