 Gaussian 16, Revision A.03,

 -----------------------------------------------------------
 # opt freq B3LYP/6-31G(d) empiricaldispersion=gd3bj scf=xqc
 -----------------------------------------------------------

 -------------------------------
 CID_81261100_JID_10266_neutraal
 -------------------------------
 Symbolic Z-matrix:
 Charge =  0 Multiplicity = 1

 SCF Done:  E(RB3LYP) =  -1511.67000419     A.U. after   15 cycles
 SCF Done:  E(RB3LYP) =  -1511.67574934     A.U. after   12 cycles
 SCF Done:  E(RB3LYP) =  -1511.67717944     A.U. after   13 cycles
 SCF Done:  E(RB3LYP) =  -1511.67910474     A.U. after   12 cycles
 SCF Done:  E(RB3LYP) =  -1511.68041197     A.U. after   13 cycles
 SCF Done:  E(RB3LYP) =  -1511.68087847     A.U. after   13 cycles
 SCF Done:  E(RB3LYP) =  -1511.68164722     A.U. after   12 cycles
 SCF Done:  E(RB3LYP) =  -1511.68173249     A.U. after   11 cycles
 SCF Done:  E(RB3LYP) =  -1511.68175476     A.U. after   10 cycles
 SCF Done:  E(RB3LYP) =  -1511.68175921     A.U. after    9 cycles
 SCF Done:  E(RB3LYP) =  -1511.68176335     A.U. after    8 cycles
 SCF Done:  E(RB3LYP) =  -1511.68176342     A.U. after    7 cycles
 SCF Done:  E(RB3LYP) =  -1511.68176345     A.U. after    7 cycles
 SCF Done:  E(RB3LYP) =  -1511.68176348     A.U. after    6 cycles
 Optimization completed.
    -- Stationary point found.
 Normal termination of Gaussian 16 at Sat Dec 12 15:11:37 2020.

 --------------------------------------------------------------------
 #N Geom=AllCheck Guess=TCheck SCRF=Check GenChk RB3LYP/6-31G(d) Freq
 --------------------------------------------------------------------

 Structure from the checkpoint file:  "JID_10266.chk"
 -------------------------------
 CID_81261100_JID_10266_neutraal
 -------------------------------
 Charge =  0 Multiplicity = 1

 SCF Done:  E(RB3LYP) =  -1511.68176348     A.U. after    1 cycles

  Exact polarizability: 269.373  23.391 194.242  -9.527  -3.188 178.274
 Approx polarizability: 351.832  44.996 330.009 -21.730 -13.546 297.251

                      1                      2                      3
                      A                      A                      A
 Frequencies --     23.3814                27.2510                30.8419
 Red. masses --      3.9328                 1.5484                 2.0794
 Frc consts  --      0.0013                 0.0007                 0.0012
 IR Inten    --      0.1343                 0.0201                 0.3403

                      4                      5                      6
                      A                      A                      A
 Frequencies --     33.8131                62.4337                97.7694
 Red. masses --      4.0672                 4.0568                 3.8384
 Frc consts  --      0.0027                 0.0093                 0.0216
 IR Inten    --      0.0906                 1.3484                 0.7760

                      7                      8                      9
                      A                      A                      A
 Frequencies --    124.4543               150.3692               174.6278
 Red. masses --      4.3144                 4.8239                 2.6377
 Frc consts  --      0.0394                 0.0643                 0.0474
 IR Inten    --      0.8546                 3.1264                 4.1886

                     10                     11                     12
                      A                      A                      A
 Frequencies --    189.2873               192.8106               211.4919
 Red. masses --      3.1106                 1.2633                 1.6035
 Frc consts  --      0.0657                 0.0277                 0.0423
 IR Inten    --      1.8916                 5.2896                 0.0450

                     13                     14                     15
                      A                      A                      A
 Frequencies --    216.8213               229.4019               251.6751
 Red. masses --      3.0760                 1.5966                 2.3798
 Frc consts  --      0.0852                 0.0495                 0.0888
 IR Inten    --      3.1216                 0.3059                 1.4324

                     16                     17                     18
                      A                      A                      A
 Frequencies --    261.3602               278.1492               287.2906
 Red. masses --      2.9290                 2.9062                 3.0777
 Frc consts  --      0.1179                 0.1325                 0.1497
 IR Inten    --      2.6956                12.5201                 0.8889

                     19                     20                     21
                      A                      A                      A
 Frequencies --    307.2204               317.9095               334.9361
 Red. masses --      1.5389                 2.8879                 3.8334
 Frc consts  --      0.0856                 0.1720                 0.2534
 IR Inten    --     27.4251                 0.1201                 1.5580

                     22                     23                     24
                      A                      A                      A
 Frequencies --    357.7888               382.1460               441.8275
 Red. masses --      2.5466                 5.3838                 3.7895
 Frc consts  --      0.1921                 0.4632                 0.4359
 IR Inten    --     12.6959                 0.8095                 1.1428

                     25                     26                     27
                      A                      A                      A
 Frequencies --    462.2421               471.6653               511.8903
 Red. masses --      4.8221                 3.9567                 3.6205
 Frc consts  --      0.6071                 0.5186                 0.5590
 IR Inten    --      2.2030                 0.3213                 5.8833

                     28                     29                     30
                      A                      A                      A
 Frequencies --    526.3429               531.5103               551.4539
 Red. masses --      3.1806                 4.5259                 5.1200
 Frc consts  --      0.5192                 0.7533                 0.9174
 IR Inten    --      0.2919                 4.6439                 0.7619

                     31                     32                     33
                      A                      A                      A
 Frequencies --    578.4203               581.6334               601.1016
 Red. masses --      4.4320                 4.6201                 3.3811
 Frc consts  --      0.8737                 0.9209                 0.7198
 IR Inten    --      0.2454                 0.9682                 1.1477

                     34                     35                     36
                      A                      A                      A
 Frequencies --    617.1361               635.5849               683.7026
 Red. masses --      3.7208                 4.8520                 4.3810
 Frc consts  --      0.8349                 1.1548                 1.2066
 IR Inten    --      1.0305                 0.8641                 1.7433

                     37                     38                     39
                      A                      A                      A
 Frequencies --    718.7121               735.9565               761.7655
 Red. masses --      3.3653                 3.5050                 3.9872
 Frc consts  --      1.0242                 1.1185                 1.3632
 IR Inten    --      5.0374                 9.4399                 3.2765

                     40                     41                     42
                      A                      A                      A
 Frequencies --    773.7529               787.7739               842.8725
 Red. masses --      4.4610                 2.5477                 1.4012
 Frc consts  --      1.5736                 0.9315                 0.5865
 IR Inten    --     11.6293                26.6041                 6.0025

                     43                     44                     45
                      A                      A                      A
 Frequencies --    866.3582               872.1081               896.5616
 Red. masses --      1.9089                 1.2654                 1.3005
 Frc consts  --      0.8442                 0.5670                 0.6159
 IR Inten    --      7.0475                21.8289                 0.0692

                     46                     47                     48
                      A                      A                      A
 Frequencies --    905.0236               925.7213               957.3971
 Red. masses --      1.7967                 2.1689                 2.6843
 Frc consts  --      0.8671                 1.0951                 1.4497
 IR Inten    --     42.2295               171.4997                 2.2259

                     49                     50                     51
                      A                      A                      A
 Frequencies --    983.4203               986.6616              1015.9309
 Red. masses --      2.2144                 3.5602                 3.5011
 Frc consts  --      1.2618                 2.0420                 2.1291
 IR Inten    --      1.5710                 0.5657                 3.5213

                     52                     53                     54
                      A                      A                      A
 Frequencies --   1028.7687              1045.8994              1050.4050
 Red. masses --      2.1633                 1.5689                 1.6098
 Frc consts  --      1.3490                 1.0112                 1.0465
 IR Inten    --      5.4143                 2.8348                 6.2265

                     55                     56                     57
                      A                      A                      A
 Frequencies --   1061.9335              1071.1633              1072.5215
 Red. masses --      1.8385                 2.2663                 1.5478
 Frc consts  --      1.2215                 1.5321                 1.0490
 IR Inten    --      6.5345                18.5039                10.4389

                     58                     59                     60
                      A                      A                      A
 Frequencies --   1075.9900              1076.2023              1121.5537
 Red. masses --      1.5082                 1.7203                 3.2335
 Frc consts  --      1.0288                 1.1739                 2.3964
 IR Inten    --      2.8043                17.1595                 2.8576

                     61                     62                     63
                      A                      A                      A
 Frequencies --   1169.5952              1177.8354              1182.6747
 Red. masses --      1.2502                 2.5109                 1.8229
 Frc consts  --      1.0076                 2.0524                 1.5023
 IR Inten    --      2.6234                 0.3533                 2.7313

                     64                     65                     66
                      A                      A                      A
 Frequencies --   1199.4177              1213.4768              1219.2542
 Red. masses --      1.6099                 1.1569                 1.6684
 Frc consts  --      1.3645                 1.0037                 1.4613
 IR Inten    --     13.2912                 6.0280                 8.2381

                     67                     68                     69
                      A                      A                      A
 Frequencies --   1241.8503              1246.3059              1284.2488
 Red. masses --      1.2901                 1.6643                 1.3588
 Frc consts  --      1.1722                 1.5231                 1.3204
 IR Inten    --      0.6005                 1.7588                18.5352

                     70                     71                     72
                      A                      A                      A
 Frequencies --   1293.0005              1318.4279              1330.8736
 Red. masses --      1.4961                 1.9991                 5.9600
 Frc consts  --      1.4737                 2.0474                 6.2197
 IR Inten    --     18.7536                26.2807                 1.4385

                     73                     74                     75
                      A                      A                      A
 Frequencies --   1340.7409              1361.4022              1379.4088
 Red. masses --      1.2286                 2.1514                 1.8754
 Frc consts  --      1.3012                 2.3493                 2.1024
 IR Inten    --     17.0193                12.5467                 3.0587

                     76                     77                     78
                      A                      A                      A
 Frequencies --   1403.4137              1437.9104              1439.4902
 Red. masses --      2.8744                 1.3185                 1.2394
 Frc consts  --      3.3356                 1.6062                 1.5131
 IR Inten    --      2.8470                 4.5941                 3.6553

                     79                     80                     81
                      A                      A                      A
 Frequencies --   1442.3322              1448.8487              1466.3515
 Red. masses --      1.2682                 1.2581                 2.5841
 Frc consts  --      1.5545                 1.5560                 3.2737
 IR Inten    --      0.2227                 1.7003                 0.3449

                     82                     83                     84
                      A                      A                      A
 Frequencies --   1490.2392              1497.7911              1499.7863
 Red. masses --      1.1221                 2.0613                 1.0916
 Frc consts  --      1.4683                 2.7246                 1.4467
 IR Inten    --      2.8006                 1.2588                 4.2407

                     85                     86                     87
                      A                      A                      A
 Frequencies --   1505.8642              1518.2620              1523.8341
 Red. masses --      1.1151                 1.0499                 1.0518
 Frc consts  --      1.4898                 1.4259                 1.4390
 IR Inten    --      1.2860                 5.1971                 7.4233

                     88                     89                     90
                      A                      A                      A
 Frequencies --   1525.3792              1526.4946              1537.9306
 Red. masses --      1.0878                 1.1028                 1.1280
 Frc consts  --      1.4913                 1.5140                 1.5719
 IR Inten    --      3.0372                 2.5704                19.8974

                     91                     92                     93
                      A                      A                      A
 Frequencies --   1549.3605              1551.2274              1633.7457
 Red. masses --      1.6978                 3.0634                 6.2705
 Frc consts  --      2.4012                 4.3432                 9.8610
 IR Inten    --     11.2058                 2.4569                 2.2025

                     94                     95                     96
                      A                      A                      A
 Frequencies --   1637.0823              1671.8943              1700.3811
 Red. masses --      6.3100                 5.3846                 1.0937
 Frc consts  --      9.9636                 8.8679                 1.8631
 IR Inten    --      6.9925                23.3465                14.7724

                     97                     98                     99
                      A                      A                      A
 Frequencies --   3034.0833              3039.5749              3040.7859
 Red. masses --      1.0591                 1.0654                 1.0422
 Frc consts  --      5.7444                 5.7997                 5.6774
 IR Inten    --     27.9982                21.5633                48.7438

                    100                    101                    102
                      A                      A                      A
 Frequencies --   3041.1834              3043.2706              3060.7958
 Red. masses --      1.0424                 1.0386                 1.0879
 Frc consts  --      5.6805                 5.6674                 6.0047
 IR Inten    --     27.5072                15.0232                 6.8358

                    103                    104                    105
                      A                      A                      A
 Frequencies --   3074.9646              3096.2357              3096.4914
 Red. masses --      1.0765                 1.1012                 1.0976
 Frc consts  --      5.9969                 6.2199                 6.2007
 IR Inten    --     33.1744                13.4975                 7.9494

                    106                    107                    108
                      A                      A                      A
 Frequencies --   3097.9415              3098.2092              3104.9788
 Red. masses --      1.0957                 1.0826                 1.0914
 Frc consts  --      6.1955                 6.1226                 6.1997
 IR Inten    --     24.7665                11.8830                14.8300

                    109                    110                    111
                      A                      A                      A
 Frequencies --   3124.8748              3126.7114              3129.9960
 Red. masses --      1.1026                 1.0993                 1.1045
 Frc consts  --      6.3438                 6.3321                 6.3752
 IR Inten    --     15.7325                22.5632                14.7530

                    112                    113                    114
                      A                      A                      A
 Frequencies --   3134.8840              3167.6546              3172.8090
 Red. masses --      1.1019                 1.0897                 1.0899
 Frc consts  --      6.3800                 6.4421                 6.4645
 IR Inten    --      9.6168                26.5539                25.1388

                    115                    116                    117
                      A                      A                      A
 Frequencies --   3204.2321              3479.0297              3571.9258
 Red. masses --      1.0914                 1.0504                 1.0907
 Frc consts  --      6.6021                 7.4909                 8.1988
 IR Inten    --     10.2484                 4.5151                 0.4131

 - Thermochemistry -
 -------------------
 Temperature   298.150 Kelvin.  Pressure   1.00000 Atm.
 Atom     1 has atomic number  6 and mass  12.00000

 Molecular mass:   303.11154 amu.
 Principal axes and moments of inertia in atomic units:
                           1         2         3
     Eigenvalues --  2900.79882********************
           X            0.99998   0.00453  -0.00314
           Y           -0.00447   0.99985   0.01670
           Z            0.00322  -0.01668   0.99986
 This molecule is an asymmetric top.
 Rotational symmetry number  1.
 Warning -- assumption of classical behavior for rotation
           may cause significant error
 Rotational temperatures (Kelvin)      0.02986     0.00687     0.00658
 Rotational constants (GHZ):           0.62215     0.14324     0.13708
 Zero-point vibrational energy     904849.1 (Joules/Mol)
                                  216.26413 (Kcal/Mol)
 Warning -- explicit consideration of  34 degrees of freedom as
           vibrations may cause significant error
 Vibrational temperatures:     33.64    39.21    44.37    48.65    89.83
          (Kelvin)            140.67   179.06   216.35   251.25   272.34
                              277.41   304.29   311.96   330.06   362.10
                              376.04   400.19   413.35   442.02   457.40
                              481.90   514.78   549.82   635.69   665.06
                              678.62   736.50   757.29   764.72   793.42
                              832.22   836.84   864.85   887.92   914.46
                              983.70  1034.07  1058.88  1096.01  1113.26
                             1133.43  1212.71  1246.50  1254.77  1289.95
                             1302.13  1331.91  1377.48  1414.92  1419.59
                             1461.70  1480.17  1504.82  1511.30  1527.89
                             1541.17  1543.12  1548.11  1548.42  1613.67
                             1682.79  1694.64  1701.61  1725.69  1745.92
                             1754.23  1786.75  1793.16  1847.75  1860.34
                             1896.92  1914.83  1929.03  1958.75  1984.66
                             2019.20  2068.83  2071.11  2075.19  2084.57
                             2109.75  2144.12  2154.99  2157.86  2166.60
                             2184.44  2192.46  2194.68  2196.29  2212.74
                             2229.18  2231.87  2350.60  2355.40  2405.48
                             2446.47  4365.37  4373.27  4375.01  4375.58
                             4378.59  4403.80  4424.19  4454.79  4455.16
                             4457.25  4457.63  4467.37  4496.00  4498.64
                             4503.37  4510.40  4557.55  4564.96  4610.18
                             5005.55  5139.20

 Zero-point correction=                           0.344639 (Hartree/Particle)
 Thermal correction to Energy=                    0.364938
 Thermal correction to Enthalpy=                  0.365882
 Thermal correction to Gibbs Free Energy=         0.294048
 Sum of electronic and zero-point Energies=          -1511.337125
 Sum of electronic and thermal Energies=             -1511.316825
 Sum of electronic and thermal Enthalpies=           -1511.315881
 Sum of electronic and thermal Free Energies=        -1511.387716

                     E (Thermal)             CV                S
                      KCal/Mol        Cal/Mol-Kelvin    Cal/Mol-Kelvin
 Total                  229.002             77.488            151.188
 Electronic               0.000              0.000              0.000
 Translational            0.889              2.981             43.024
 Rotational               0.889              2.981             34.530
 Vibrational            227.225             71.526             73.635
 Vibration     1          0.593              1.985              6.324
 Vibration     2          0.593              1.984              6.020
 Vibration     3          0.594              1.984              5.775
 Vibration     4          0.594              1.983              5.592
 Vibration     5          0.597              1.972              4.379
 Vibration     6          0.603              1.951              3.498
 Vibration     7          0.610              1.929              3.030
 Vibration     8          0.618              1.902              2.668
 Vibration     9          0.627              1.874              2.385
 Vibration    10          0.633              1.855              2.235
 Vibration    11          0.635              1.850              2.201
 Vibration    12          0.643              1.823              2.031
 Vibration    13          0.646              1.815              1.985
 Vibration    14          0.652              1.796              1.884
 Vibration    15          0.664              1.760              1.719
 Vibration    16          0.669              1.743              1.653
 Vibration    17          0.679              1.714              1.545
 Vibration    18          0.684              1.697              1.490
 Vibration    19          0.697              1.660              1.377
 Vibration    20          0.704              1.639              1.321
 Vibration    21          0.716              1.606              1.236
 Vibration    22          0.733              1.559              1.132
 Vibration    23          0.752              1.508              1.031
 Vibration    24          0.802              1.379              0.821
 Vibration    25          0.820              1.334              0.760
 Vibration    26          0.829              1.313              0.733
 Vibration    27          0.867              1.224              0.629
 Vibration    28          0.881              1.192              0.595
 Vibration    29          0.886              1.180              0.584
 Vibration    30          0.907              1.137              0.541
 Vibration    31          0.935              1.078              0.488
 Vibration    32          0.938              1.071              0.482
 Vibration    33          0.959              1.029              0.448
 Vibration    34          0.977              0.996              0.421

                           ! Non-Optimized Parameters !
 Normal termination of Gaussian 16 at Sat Dec 12 15:35:45 2020.

 ----------------------------------------------------------------------
 # B3LYP/6-311++G(d,p) empiricaldispersion=gd3bj scf=xqc pop=npa geom=c
 heck
 ----------------------------------------------------------------------

 ---------------------------------------
 CID_81261100_JID_10266_Energie_neutraal
 ---------------------------------------
 Structure from the checkpoint file:  "JID_10266.chk"
 Charge =  0 Multiplicity = 1

 SCF Done:  E(RB3LYP) =  -1511.92327995     A.U. after   16 cycles
 Normal termination of Gaussian 16 at Sat Dec 12 15:48:10 2020.

 ----------------------------------------------------------------------
 # B3LYP/6-311++G(d,p) empiricaldispersion=gd3bj scf=xqc pop=npa geom=c
 heck
 ----------------------------------------------------------------------

 -------------------------------------
 CID_81261100_JID_10266_Energie_kation
 -------------------------------------
 Structure from the checkpoint file:  "JID_10266.chk"
 Charge =  1 Multiplicity = 2

 SCF Done:  E(UB3LYP) =  -1511.64280391     A.U. after   33 cycles
 SCF Done:  E(UB3LYP) =  -1511.64594229     a.u. after    7 cycles
 Normal termination of Gaussian 16 at Sat Dec 12 18:14:27 2020.
 Gaussian 16:  ES64L-G16RevA.03 25-Dec-2016

 ----------------------------------------------------------------------
 # B3LYP/6-311++G(d,p) empiricaldispersion=gd3bj scf=xqc pop=npa geom=c
 heck
 ----------------------------------------------------------------------

 ------------------------------------
 CID_81261100_JID_10266_Energie_anion
 ------------------------------------
 Structure from the checkpoint file:  "JID_10266.chk"
 Charge = -1 Multiplicity = 2

                         Standard orientation:
 ---------------------------------------------------------------------
 Center     Atomic      Atomic             Coordinates (Angstroms)
 Number     Number       Type             X           Y           Z
 ---------------------------------------------------------------------
      1          6           0       -5.406949   -2.115782   -0.618832
      2          6           0       -4.294947   -1.125320   -0.375248
      3          6           0       -3.441649   -0.733441   -1.407329
      4          6           0       -2.385410    0.156993   -1.200185
      5          6           0       -2.168461    0.684863    0.089435
      6          6           0       -3.019359    0.298311    1.144388
      7          6           0       -4.065919   -0.594512    0.893460
      8          6           0       -2.841386    0.816389    2.555833
      9          6           0       -1.010266    1.640756    0.373757
     10          6           0        0.338947    0.952216    0.232369
     11          6           0        1.522064    1.468329   -0.216474
     12          6           0        2.626188    0.552853   -0.136621
     13          6           0        2.262130   -0.665186    0.375395
     14         16           0        0.556563   -0.702878    0.759313
     15          6           0        3.138052   -1.866253    0.597963
     16          6           0        4.408609   -1.797041   -0.252756
     17         16           0        5.318108   -0.226332    0.001025
     18          6           0        4.011558    0.908023   -0.610604
     19          7           0       -1.131950    2.898173   -0.376566
     20          6           0       -1.528276    0.529304   -2.389406
     21          1           0       -5.835460   -1.998173   -1.619931
     22          1           0       -5.042441   -3.148699   -0.541039
     23          1           0       -6.213556   -1.998723    0.112204
     24          1           0       -3.598631   -1.133574   -2.407080
     25          1           0       -4.717197   -0.883669    1.715386
     26          1           0       -1.859874    0.555658    2.970063
     27          1           0       -2.941117    1.907261    2.607723
     28          1           0       -3.598751    0.385950    3.217209
     29          1           0       -1.092284    1.938426    1.421790
     30          1           0        1.618241    2.479662   -0.598371
     31          1           0        2.591188   -2.785120    0.346426
     32          1           0        3.414813   -1.942587    1.657618
     33          1           0        4.168115   -1.904413   -1.316021
     34          1           0        5.102667   -2.596732    0.019933
     35          1           0        4.295591    1.903509   -0.253248
     36          1           0        4.046574    0.939479   -1.707383
     37          1           0       -0.462932    3.571772   -0.007074
     38          1           0       -0.880118    2.751821   -1.350921
     39          1           0       -0.467110    0.591056   -2.131456
     40          1           0       -1.636322   -0.212794   -3.186109
     41          1           0       -1.832036    1.497011   -2.810031
 ---------------------------------------------------------------------

 SCF Done:  E(UB3LYP) =  -1511.91264550     A.U. after   33 cycles
 SCF Done:  E(UB3LYP) =  -1511.91264550     a.u. after    1 cycles

 The electronic state is 2-A.
 Alpha  occ. eigenvalues --  -88.77212 -88.75173 -14.20049 -10.12080 -10.11624
 Alpha  occ. eigenvalues --  -10.11531 -10.10414 -10.10348 -10.09848 -10.09179
 Alpha  occ. eigenvalues --  -10.09024 -10.08973 -10.08836 -10.08515 -10.08377
 Alpha  occ. eigenvalues --  -10.07923 -10.07485 -10.07432 -10.07422 -10.07237
 Alpha  occ. eigenvalues --   -7.85835  -7.83791  -5.82129  -5.81762  -5.81419
 Alpha  occ. eigenvalues --   -5.80179  -5.79844  -5.79142  -0.81116  -0.78597
 Alpha  occ. eigenvalues --   -0.76828  -0.73209  -0.69791  -0.69216  -0.68459
 Alpha  occ. eigenvalues --   -0.64988  -0.61892  -0.61450  -0.61361  -0.58970
 Alpha  occ. eigenvalues --   -0.56437  -0.53487  -0.51373  -0.48778  -0.47818
 Alpha  occ. eigenvalues --   -0.44954  -0.42183  -0.41950  -0.40055  -0.39208
 Alpha  occ. eigenvalues --   -0.37467  -0.37067  -0.35805  -0.35192  -0.34279
 Alpha  occ. eigenvalues --   -0.34050  -0.33286  -0.32874  -0.32521  -0.31903
 Alpha  occ. eigenvalues --   -0.31822  -0.31448  -0.30798  -0.30480  -0.30025
 Alpha  occ. eigenvalues --   -0.28907  -0.28033  -0.27890  -0.25866  -0.25298
 Alpha  occ. eigenvalues --   -0.24892  -0.24535  -0.24121  -0.23495  -0.22445
 Alpha  occ. eigenvalues --   -0.15830  -0.15483  -0.14986  -0.14572  -0.13855
 Alpha  occ. eigenvalues --   -0.12700   0.03956
 Alpha virt. eigenvalues --    0.05645   0.05789   0.06357   0.07069   0.07389
 Alpha virt. eigenvalues --    0.07546   0.07760   0.08047   0.08173   0.08836
 Alpha virt. eigenvalues --    0.09048   0.09575   0.09759   0.10252   0.10562

  Beta  occ. eigenvalues --  -88.77206 -88.75171 -14.20007 -10.12074 -10.11603
  Beta  occ. eigenvalues --  -10.11512 -10.10386 -10.10312 -10.09835 -10.09173
  Beta  occ. eigenvalues --  -10.09011 -10.08951 -10.08835 -10.08501 -10.08366
  Beta  occ. eigenvalues --  -10.07908 -10.07477 -10.07422 -10.07406 -10.07214
  Beta  occ. eigenvalues --   -7.85828  -7.83789  -5.82121  -5.81758  -5.81403
  Beta  occ. eigenvalues --   -5.80179  -5.79840  -5.79140  -0.81058  -0.78557
  Beta  occ. eigenvalues --   -0.76794  -0.73176  -0.69753  -0.69185  -0.68423
  Beta  occ. eigenvalues --   -0.64930  -0.61844  -0.61418  -0.61321  -0.58943
  Beta  occ. eigenvalues --   -0.56395  -0.53437  -0.51322  -0.48746  -0.47772
  Beta  occ. eigenvalues --   -0.44900  -0.42135  -0.41903  -0.40006  -0.39178
  Beta  occ. eigenvalues --   -0.37426  -0.37023  -0.35765  -0.35163  -0.34237
  Beta  occ. eigenvalues --   -0.34008  -0.33245  -0.32842  -0.32489  -0.31863
  Beta  occ. eigenvalues --   -0.31795  -0.31422  -0.30770  -0.30434  -0.29992
  Beta  occ. eigenvalues --   -0.28861  -0.28002  -0.27861  -0.25815  -0.25260
  Beta  occ. eigenvalues --   -0.24852  -0.24501  -0.24079  -0.23459  -0.22416
  Beta  occ. eigenvalues --   -0.15789  -0.15412  -0.14939  -0.14498  -0.13828
  Beta  occ. eigenvalues --   -0.12560
  Beta virt. eigenvalues --    0.05667   0.06098   0.06589   0.06651   0.07269
  Beta virt. eigenvalues --    0.07526   0.07796   0.07866   0.08249   0.08535
  Beta virt. eigenvalues --    0.09027   0.09206   0.09755   0.09927   0.10438

 Mulliken charges and spin densities:
               1          2
     1  C    0.721981  -1.213817
     2  C    0.207164   0.262538
     3  C   -0.284275  -0.119097
     4  C   -0.529406   0.835143
     5  C    0.415272   0.272329
     6  C   -0.117066   0.201010
     7  C   -0.418603  -0.106389
     8  C    0.075906  -0.663066
     9  C    0.392604  -0.449372
    10  C   -1.009020   1.318761
    11  C    1.346148  -1.032609
    12  C    0.449584  -0.331186
    13  C   -1.915243   1.586505
    14  S   -0.279389  -0.357621
    15  C   -0.520184  -0.144467
    16  C   -0.229853  -0.094474
    17  S    0.023410   0.019948
    18  C    1.544569  -2.421904
    19  N   -0.379614   0.017949
    20  C    0.055615  -0.882021
    21  H    0.030910   0.104446
    22  H    0.007290   0.162835
    23  H   -0.002353   0.134721
    24  H   -0.007307   0.153550
    25  H   -0.030791   0.166047
    26  H   -0.007823   0.176225
    27  H    0.008820   0.175329
    28  H    0.013638   0.124557
    29  H    0.156220   0.082414
    30  H   -0.636840   0.834828
    31  H   -0.090215   0.235261
    32  H    0.009872   0.153096
    33  H    0.108622   0.063290
    34  H   -0.147344   0.365005
    35  H    0.025908   0.137076
    36  H    0.035259   0.214889
    37  H   -0.235629   0.488611
    38  H    0.063065   0.168875
    39  H    0.286921  -0.102734
    40  H   -0.151538   0.288742
    41  H    0.013716   0.174779
 Sum of Mulliken charges =  -1.00000   1.00000

 Dipole moment (field-independent basis, Debye):
    X=             -1.1195    Y=             -3.1864    Z=              0.3441  Tot=              3.3948
 Quadrupole moment (field-independent basis, Debye-Ang):
   XX=           -224.8442   YY=           -190.0560   ZZ=           -169.3991
   XY=              0.0086   XZ=             -1.4571   YZ=              2.3791

 Summary of Natural Population Analysis:

                                       Natural Population
                Natural  -----------------------------------------------
    Atom  No    Charge         Core      Valence    Rydberg      Total
 -----------------------------------------------------------------------
      C    1   -0.29105      0.99964     2.28655    0.00486     3.29105
      C    2   -0.00848      0.99951     2.00101    0.00796     3.00848
      C    3   -0.10332      0.99947     2.09601    0.00784     3.10332
      C    4    0.00199      0.99947     1.98886    0.00968     2.99801
      C    5   -0.01547      0.99942     2.00433    0.01172     3.01547
      C    6   -0.00505      0.99947     1.99580    0.00978     3.00505
      C    7   -0.10442      0.99947     2.09708    0.00787     3.10442
      C    8   -0.29652      0.99963     2.29215    0.00474     3.29652
      C    9   -0.03860      0.99949     2.02278    0.01633     3.03860
      C   10   -0.08823      0.99947     2.07460    0.01416     3.08823
      C   11   -0.12945      0.99940     2.11742    0.01263     3.12945
      C   12   -0.05562      0.99941     2.04357    0.01263     3.05562
      C   13   -0.09220      0.99940     2.08001    0.01279     3.09220
      S   14    0.21413      4.99936     2.76820    0.01830     7.78587
      C   15   -0.20681      0.99957     2.19759    0.00965     3.20681
      C   16   -0.24418      0.99960     2.23561    0.00898     3.24418
      S   17    0.08659      4.99965     2.89614    0.01762     7.91341
      C   18   -0.24820      0.99954     2.23684    0.01183     3.24820
      N   19   -0.41128      0.99977     2.90159    0.00993     3.91128
      C   20   -0.30035      0.99963     2.29502    0.00570     3.30035
      H   21    0.10094      0.00000     0.39802    0.00104     0.39906
      H   22    0.10407      0.00000     0.39448    0.00145     0.39593
      H   23    0.10046      0.00000     0.39855    0.00099     0.39954
      H   24    0.09491      0.00000     0.40373    0.00136     0.40509
      H   25    0.09448      0.00000     0.40413    0.00138     0.40552
      H   26    0.10582      0.00000     0.39295    0.00124     0.39418
      H   27    0.10638      0.00000     0.39246    0.00116     0.39362
      H   28    0.10140      0.00000     0.39781    0.00078     0.39860
      H   29    0.10873      0.00000     0.38903    0.00224     0.39127
      H   30    0.10965      0.00000     0.38776    0.00259     0.39035
      H   31    0.10551      0.00000     0.39273    0.00176     0.39449
      H   32    0.10608      0.00000     0.39151    0.00241     0.39392
      H   33    0.10063      0.00000     0.39767    0.00170     0.39937
      H   34    0.10712      0.00000     0.39137    0.00151     0.39288
      H   35    0.11258      0.00000     0.38603    0.00139     0.38742
      H   36    0.10517      0.00000     0.39310    0.00173     0.39483
      H   37    0.17841      0.00000     0.31861    0.00298     0.32159
      H   38    0.17576      0.00000     0.32181    0.00243     0.32424
      H   39    0.11144      0.00000     0.38705    0.00151     0.38856
      H   40    0.10246      0.00000     0.39668    0.00086     0.39754
      H   41    0.10450      0.00000     0.39447    0.00104     0.39550
 =======================================================================
   * Total *   -0.00000     27.99038    52.76112    0.24850    81.00000

 Normal termination of Gaussian 16 at Sat Dec 12 18:47:59 2020.
