 Gaussian 16, Revision A.03,

 -----------------------------------------------------------
 # opt freq B3LYP/6-31G(d) empiricaldispersion=gd3bj scf=xqc
 -----------------------------------------------------------

 ------------------------------
 CID_82324004_JID_8603_neutraal
 ------------------------------
 Symbolic Z-matrix:
 Charge =  0 Multiplicity = 1

 SCF Done:  E(RB3LYP) =  -879.792669638     A.U. after   15 cycles
 SCF Done:  E(RB3LYP) =  -879.797196366     A.U. after   13 cycles
 SCF Done:  E(RB3LYP) =  -879.797448867     A.U. after   13 cycles
 SCF Done:  E(RB3LYP) =  -879.798643961     A.U. after   12 cycles
 SCF Done:  E(RB3LYP) =  -879.798635833     A.U. after   13 cycles
 SCF Done:  E(RB3LYP) =  -879.799502720     A.U. after   11 cycles
 SCF Done:  E(RB3LYP) =  -879.800245337     A.U. after   12 cycles
 SCF Done:  E(RB3LYP) =  -879.800806065     A.U. after   13 cycles
 SCF Done:  E(RB3LYP) =  -879.800994014     A.U. after   13 cycles
 SCF Done:  E(RB3LYP) =  -879.801321584     A.U. after   12 cycles
 SCF Done:  E(RB3LYP) =  -879.804079316     A.U. after    8 cycles
 SCF Done:  E(RB3LYP) =  -879.804079552     A.U. after    7 cycles
 SCF Done:  E(RB3LYP) =  -879.804079719     A.U. after    7 cycles
 SCF Done:  E(RB3LYP) =  -879.804079788     A.U. after    7 cycles
 SCF Done:  E(RB3LYP) =  -879.804079809     A.U. after    7 cycles
 Optimization completed.
    -- Stationary point found.
 Normal termination of Gaussian 16 at Mon Dec 14 17:11:33 2020.

 --------------------------------------------------------------------
 #N Geom=AllCheck Guess=TCheck SCRF=Check GenChk RB3LYP/6-31G(d) Freq
 --------------------------------------------------------------------

 Structure from the checkpoint file:  "JID_8603.chk"
 ------------------------------
 CID_82324004_JID_8603_neutraal
 ------------------------------
 Charge =  0 Multiplicity = 1

 SCF Done:  E(RB3LYP) =  -879.804079809     A.U. after    1 cycles

  Exact polarizability: 172.373   7.592 150.416   6.929  -3.383 111.995
 Approx polarizability: 225.931  11.295 225.860  10.255 -11.996 174.941

                      1                      2                      3
                      A                      A                      A
 Frequencies --     21.1093                27.3957                35.9021
 Red. masses --      5.0332                 4.3760                 7.8715
 Frc consts  --      0.0013                 0.0019                 0.0060
 IR Inten    --      0.9760                 0.6959                 1.6188

                      4                      5                      6
                      A                      A                      A
 Frequencies --     50.2702                64.0204                78.8846
 Red. masses --      3.5789                 3.8678                 5.3473
 Frc consts  --      0.0053                 0.0093                 0.0196
 IR Inten    --      0.1969                 2.6103                 0.4650

                      7                      8                      9
                      A                      A                      A
 Frequencies --     86.5870                96.4119               122.8307
 Red. masses --      3.7308                 6.2938                 4.0898
 Frc consts  --      0.0165                 0.0345                 0.0364
 IR Inten    --      4.5500                 1.4294                 2.9378

                     10                     11                     12
                      A                      A                      A
 Frequencies --    131.7272               161.6336               187.0321
 Red. masses --      4.3713                 1.0357                 5.8913
 Frc consts  --      0.0447                 0.0159                 0.1214
 IR Inten    --      1.6443                 0.2260                 1.6414

                     13                     14                     15
                      A                      A                      A
 Frequencies --    190.7364               237.0634               251.2810
 Red. masses --      4.2271                 1.1993                 3.5663
 Frc consts  --      0.0906                 0.0397                 0.1327
 IR Inten    --      0.9184                 0.2204                 4.7415

                     16                     17                     18
                      A                      A                      A
 Frequencies --    281.8623               292.8592               317.1678
 Red. masses --      2.9553                 2.5158                 2.9768
 Frc consts  --      0.1383                 0.1271                 0.1764
 IR Inten    --      0.3711                 0.3659                 5.8720

                     19                     20                     21
                      A                      A                      A
 Frequencies --    320.4229               339.6349               388.3361
 Red. masses --      3.8783                 4.3874                 2.7662
 Frc consts  --      0.2346                 0.2982                 0.2458
 IR Inten    --      1.2410                 0.1832                 7.5789

                     22                     23                     24
                      A                      A                      A
 Frequencies --    458.7122               477.2059               480.6887
 Red. masses --      2.0497                 2.7855                 3.1398
 Frc consts  --      0.2541                 0.3737                 0.4274
 IR Inten    --     15.3915                16.3565                12.1896

                     25                     26                     27
                      A                      A                      A
 Frequencies --    508.9588               543.5774               561.7803
 Red. masses --      2.8045                 2.2804                 2.9323
 Frc consts  --      0.4280                 0.3970                 0.5452
 IR Inten    --      6.0502                27.9909                35.5658

                     28                     29                     30
                      A                      A                      A
 Frequencies --    575.5116               609.2878               617.9856
 Red. masses --      3.0837                 2.0222                 2.4750
 Frc consts  --      0.6018                 0.4423                 0.5569
 IR Inten    --      9.6276                39.9070                21.4264

                     31                     32                     33
                      A                      A                      A
 Frequencies --    666.1194               674.0307               739.0599
 Red. masses --      1.5312                 2.1981                 3.5005
 Frc consts  --      0.4003                 0.5884                 1.1265
 IR Inten    --    130.8121                37.3895                10.9918

                     34                     35                     36
                      A                      A                      A
 Frequencies --    749.2800               760.1975               784.2818
 Red. masses --      2.8336                 3.4255                 2.2921
 Frc consts  --      0.9373                 1.1664                 0.8307
 IR Inten    --     36.0415                 5.5075                12.4071

                     37                     38                     39
                      A                      A                      A
 Frequencies --    794.1035               816.0643               847.2092
 Red. masses --      3.4319                 1.2648                 1.6387
 Frc consts  --      1.2751                 0.4963                 0.6930
 IR Inten    --      8.1038                 7.5439                 4.5156

                     40                     41                     42
                      A                      A                      A
 Frequencies --    884.1565               903.3920               918.1308
 Red. masses --      2.3468                 2.6280                 2.7514
 Frc consts  --      1.0809                 1.2636                 1.3665
 IR Inten    --     11.1540                 3.1835                 7.2037

                     43                     44                     45
                      A                      A                      A
 Frequencies --    920.3772               943.5285               955.4289
 Red. masses --      2.3137                 2.8163                 1.9312
 Frc consts  --      1.1548                 1.4772                 1.0387
 IR Inten    --     10.3581                25.5528                20.4439

                     46                     47                     48
                      A                      A                      A
 Frequencies --   1016.2290              1037.8505              1059.7570
 Red. masses --      1.9449                 1.6346                 1.9317
 Frc consts  --      1.1834                 1.0373                 1.2782
 IR Inten    --      3.6939                32.7396                 8.8451

                     49                     50                     51
                      A                      A                      A
 Frequencies --   1063.4521              1073.4220              1095.2214
 Red. masses --      1.7509                 1.2768                 1.9404
 Frc consts  --      1.1667                 0.8668                 1.3714
 IR Inten    --      5.2006                10.9798                37.4836

                     52                     53                     54
                      A                      A                      A
 Frequencies --   1100.5547              1120.6039              1130.6970
 Red. masses --      1.3420                 1.2789                 1.9442
 Frc consts  --      0.9577                 0.9462                 1.4645
 IR Inten    --      5.2787                 6.4012                15.3468

                     55                     56                     57
                      A                      A                      A
 Frequencies --   1135.4200              1152.2718              1154.9489
 Red. masses --      1.4880                 2.3304                 2.9960
 Frc consts  --      1.1302                 1.8230                 2.3546
 IR Inten    --      7.0692               175.0591                13.3011

                     58                     59                     60
                      A                      A                      A
 Frequencies --   1191.2802              1220.4427              1221.5010
 Red. masses --      1.8724                 1.4756                 1.9776
 Frc consts  --      1.5656                 1.2949                 1.7385
 IR Inten    --    168.3916                28.5186               103.5406

                     61                     62                     63
                      A                      A                      A
 Frequencies --   1240.4441              1252.7025              1300.0985
 Red. masses --      2.0963                 1.6886                 1.6016
 Frc consts  --      1.9005                 1.5613                 1.5950
 IR Inten    --      9.5422                85.0972                11.7783

                     64                     65                     66
                      A                      A                      A
 Frequencies --   1312.9064              1329.9488              1349.1219
 Red. masses --      1.4039                 1.5233                 1.5092
 Frc consts  --      1.4258                 1.5875                 1.6184
 IR Inten    --      3.9368                 5.9612                41.1358

                     67                     68                     69
                      A                      A                      A
 Frequencies --   1363.1964              1402.1692              1411.8987
 Red. masses --      1.6265                 1.7131                 1.4275
 Frc consts  --      1.7808                 1.9844                 1.6766
 IR Inten    --     86.8024                14.8153                21.8994

                     70                     71                     72
                      A                      A                      A
 Frequencies --   1415.2098              1420.6340              1430.2028
 Red. masses --      1.4245                 1.3485                 1.2688
 Frc consts  --      1.6810                 1.6035                 1.5291
 IR Inten    --     27.5031                25.9890                21.1040

                     73                     74                     75
                      A                      A                      A
 Frequencies --   1435.7080              1451.5045              1478.9840
 Red. masses --      1.5878                 1.3642                 1.4101
 Frc consts  --      1.9284                 1.6935                 1.8173
 IR Inten    --     71.1696                 1.2537                77.8935

                     76                     77                     78
                      A                      A                      A
 Frequencies --   1481.5485              1495.4008              1498.7437
 Red. masses --      1.1324                 1.0745                 1.2609
 Frc consts  --      1.4645                 1.4157                 1.6688
 IR Inten    --     14.1957                24.0002                28.4374

                     79                     80                     81
                      A                      A                      A
 Frequencies --   1502.8446              1517.4516              1519.6275
 Red. masses --      1.6348                 1.0667                 1.3496
 Frc consts  --      2.1754                 1.4472                 1.8362
 IR Inten    --     98.0055                15.0508                17.0517

                     82                     83                     84
                      A                      A                      A
 Frequencies --   1521.1499              1525.6310              1538.1570
 Red. masses --      1.1905                 1.0609                 1.1075
 Frc consts  --      1.6231                 1.4549                 1.5439
 IR Inten    --      6.4473                21.2025                19.3433

                     85                     86                     87
                      A                      A                      A
 Frequencies --   1541.5711              1724.6929              1789.0986
 Red. masses --      1.0822                 8.9556                 7.6695
 Frc consts  --      1.5153                15.6952                14.4639
 IR Inten    --      9.1268               168.7560               316.3229

                     88                     89                     90
                      A                      A                      A
 Frequencies --   1822.6123              3034.5808              3058.0849
 Red. masses --      9.4581                 1.0822                 1.0398
 Frc consts  --     18.5116                 5.8717                 5.7294
 IR Inten    --    270.5222                11.3017                 4.7995

                     91                     92                     93
                      A                      A                      A
 Frequencies --   3072.1505              3075.5556              3091.1098
 Red. masses --      1.0655                 1.0369                 1.0647
 Frc consts  --      5.9250                 5.7788                 5.9936
 IR Inten    --     20.5100                15.9501                33.1726

                     94                     95                     96
                      A                      A                      A
 Frequencies --   3104.9491              3117.7461              3128.9062
 Red. masses --      1.0635                 1.1002                 1.0971
 Frc consts  --      6.0406                 6.3010                 6.3280
 IR Inten    --     16.8712                13.9046                29.7178

                     97                     98                     99
                      A                      A                      A
 Frequencies --   3146.0370              3156.8480              3158.7822
 Red. masses --      1.1001                 1.1036                 1.0548
 Frc consts  --      6.4154                 6.4799                 6.2012
 IR Inten    --     22.7119                 6.7587                13.9817

                    100                    101                    102
                      A                      A                      A
 Frequencies --   3159.9797              3169.3992              3172.8034
 Red. masses --      1.1010                 1.0544                 1.1043
 Frc consts  --      6.4776                 6.2404                 6.5495
 IR Inten    --      5.1916                 4.4316                 5.7838

                    103                    104                    105
                      A                      A                      A
 Frequencies --   3180.5120              3238.1904              3248.4363
 Red. masses --      1.1001                 1.0912                 1.1175
 Frc consts  --      6.5564                 6.7413                 6.9475
 IR Inten    --      7.0188                 9.1888                 3.8304

                    106                    107                    108
                      A                      A                      A
 Frequencies --   3265.4958              3589.3519              3684.1985
 Red. masses --      1.1163                 1.0755                 1.0641
 Frc consts  --      7.0137                 8.1641                 8.5095
 IR Inten    --      4.1895                13.5561                53.6338

 - Thermochemistry -
 -------------------
 Temperature   298.150 Kelvin.  Pressure   1.00000 Atm.
 Atom     1 has atomic number  6 and mass  12.00000

 Molecular mass:   256.14231 amu.
 Principal axes and moments of inertia in atomic units:
                           1         2         3
     Eigenvalues --  2844.758947053.637619035.28094
           X            0.99989  -0.01332   0.00681
           Y            0.01331   0.99991   0.00187
           Z           -0.00684  -0.00177   0.99998
 This molecule is an asymmetric top.
 Rotational symmetry number  1.
 Warning -- assumption of classical behavior for rotation
           may cause significant error
 Rotational temperatures (Kelvin)      0.03045     0.01228     0.00959
 Rotational constants (GHZ):           0.63441     0.25586     0.19974
 Zero-point vibrational energy     852771.5 (Joules/Mol)
                                  203.81729 (Kcal/Mol)
 Warning -- explicit consideration of  30 degrees of freedom as
           vibrations may cause significant error
 Vibrational temperatures:     30.37    39.42    51.66    72.33    92.11
          (Kelvin)            113.50   124.58   138.72   176.73   189.53
                              232.55   269.10   274.43   341.08   361.54
                              405.54   421.36   456.33   461.02   488.66
                              558.73   659.98   686.59   691.60   732.28
                              782.09   808.28   828.03   876.63   889.14
                              958.40   969.78  1063.34  1078.05  1093.75
                             1128.41  1142.54  1174.13  1218.95  1272.10
                             1299.78  1320.99  1324.22  1357.53  1374.65
                             1462.13  1493.24  1524.75  1530.07  1544.41
                             1575.78  1583.45  1612.30  1626.82  1633.62
                             1657.86  1661.71  1713.99  1755.94  1757.47
                             1784.72  1802.36  1870.55  1888.98  1913.50
                             1941.09  1961.34  2017.41  2031.41  2036.17
                             2043.98  2057.74  2065.66  2088.39  2127.93
                             2131.62  2151.55  2156.36  2162.26  2183.27
                             2186.41  2188.60  2195.04  2213.06  2217.98
                             2481.45  2574.11  2622.33  4366.08  4399.90
                             4420.14  4425.04  4447.42  4467.33  4485.74
                             4501.80  4526.45  4542.00  4544.78  4546.51
                             4560.06  4564.96  4576.05  4659.03  4673.78
                             4698.32  5164.28  5300.74

 Zero-point correction=                           0.324804 (Hartree/Particle)
 Thermal correction to Energy=                    0.344182
 Thermal correction to Enthalpy=                  0.345126
 Thermal correction to Gibbs Free Energy=         0.274627
 Sum of electronic and zero-point Energies=           -879.479276
 Sum of electronic and thermal Energies=              -879.459898
 Sum of electronic and thermal Enthalpies=            -879.458954
 Sum of electronic and thermal Free Energies=         -879.529453

                     E (Thermal)             CV                S
                      KCal/Mol        Cal/Mol-Kelvin    Cal/Mol-Kelvin
 Total                  215.977             70.996            148.379
 Electronic               0.000              0.000              0.000
 Translational            0.889              2.981             42.522
 Rotational               0.889              2.981             33.560
 Vibrational            214.200             65.035             72.297
 Vibration     1          0.593              1.985              6.527
 Vibration     2          0.593              1.984              6.010
 Vibration     3          0.594              1.982              5.473
 Vibration     4          0.595              1.977              4.807
 Vibration     5          0.597              1.971              4.329
 Vibration     6          0.600              1.963              3.918
 Vibration     7          0.601              1.959              3.736
 Vibration     8          0.603              1.952              3.526
 Vibration     9          0.610              1.930              3.055
 Vibration    10          0.612              1.922              2.921
 Vibration    11          0.622              1.889              2.531
 Vibration    12          0.632              1.858              2.257
 Vibration    13          0.634              1.853              2.221
 Vibration    14          0.656              1.784              1.825
 Vibration    15          0.663              1.761              1.722
 Vibration    16          0.681              1.707              1.522
 Vibration    17          0.688              1.687              1.457
 Vibration    18          0.704              1.641              1.325
 Vibration    19          0.706              1.634              1.308
 Vibration    20          0.720              1.596              1.214
 Vibration    21          0.757              1.495              1.007
 Vibration    22          0.817              1.342              0.770
 Vibration    23          0.834              1.301              0.718
 Vibration    24          0.837              1.293              0.708
 Vibration    25          0.864              1.230              0.636
 Vibration    26          0.899              1.154              0.558
 Vibration    27          0.917              1.114              0.520
 Vibration    28          0.932              1.084              0.494
 Vibration    29          0.968              1.012              0.434
 Vibration    30          0.978              0.994              0.420

 Optimization completed.
    -- Stationary point found.
 Normal termination of Gaussian 16 at Mon Dec 14 17:31:56 2020.

 ----------------------------------------------------------------------
 # B3LYP/6-311++G(d,p) empiricaldispersion=gd3bj scf=xqc pop=npa geom=c
 heck
 ----------------------------------------------------------------------

 --------------------------------------
 CID_82324004_JID_8603_Energie_neutraal
 --------------------------------------
 Structure from the checkpoint file:  "JID_8603.chk"
 Charge =  0 Multiplicity = 1

 SCF Done:  E(RB3LYP) =  -880.070373694     A.U. after   15 cycles
 Normal termination of Gaussian 16 at Mon Dec 14 17:41:08 2020.

 ----------------------------------------------------------------------
 # B3LYP/6-311++G(d,p) empiricaldispersion=gd3bj scf=xqc pop=npa geom=c
 heck
 ----------------------------------------------------------------------

 ------------------------------------
 CID_82324004_JID_8603_Energie_kation
 ------------------------------------
 Structure from the checkpoint file:  "JID_8603.chk"
 Charge =  1 Multiplicity = 2

 SCF Done:  E(UB3LYP) =  -879.760736092     A.U. after   30 cycles
 Normal termination of Gaussian 16 at Mon Dec 14 18:06:48 2020.
 Gaussian 16:  ES64L-G16RevA.03 25-Dec-2016

 ----------------------------------------------------------------------
 # B3LYP/6-311++G(d,p) empiricaldispersion=gd3bj scf=xqc pop=npa geom=c
 heck
 ----------------------------------------------------------------------

 -----------------------------------
 CID_82324004_JID_8603_Energie_anion
 -----------------------------------
 Structure from the checkpoint file:  "JID_8603.chk"
 Charge = -1 Multiplicity = 2

                         Standard orientation:
 ---------------------------------------------------------------------
 Center     Atomic      Atomic             Coordinates (Angstroms)
 Number     Number       Type             X           Y           Z
 ---------------------------------------------------------------------
      1          6           0       -2.977729    1.492194    0.555668
      2          6           0       -3.005562    0.341723   -0.467001
      3          6           0       -1.645783    0.102921   -1.159008
      4          7           0       -0.473334    0.181684   -0.284315
      5          6           0       -0.004870   -1.065585    0.319883
      6          6           0        0.926558   -1.873281   -0.601278
      7          7           0        2.210549   -1.245055   -0.864641
      8          6           0        3.332114   -1.319375   -0.075931
      9          8           0        4.269583   -0.545366   -0.228216
     10          6           0        3.365680   -2.424307    0.969280
     11          6           0        0.193559    1.390366   -0.241209
     12          8           0       -0.227961    2.367021   -0.866124
     13          6           0        1.448679    1.500383    0.559620
     14          6           0        2.573872    2.305569   -0.080014
     15          6           0        1.819933    2.878582    1.073294
     16          6           0       -3.576598   -0.922655    0.149966
     17          8           0       -3.039144   -2.011320    0.211165
     18          8           0       -4.823043   -0.721133    0.637590
     19          1           0       -2.339764    1.234575    1.406904
     20          1           0       -3.983127    1.703106    0.926679
     21          1           0       -2.562117    2.386302    0.087466
     22          1           0       -3.717556    0.618065   -1.257849
     23          1           0       -1.653829   -0.878059   -1.642467
     24          1           0       -1.519093    0.870671   -1.922036
     25          1           0        0.493007   -0.856291    1.268808
     26          1           0       -0.885267   -1.671400    0.540840
     27          1           0        1.096253   -2.859295   -0.160711
     28          1           0        0.425573   -2.042809   -1.560811
     29          1           0        2.211093   -0.432242   -1.469948
     30          1           0        2.582627   -2.289482    1.724561
     31          1           0        3.222343   -3.411617    0.516450
     32          1           0        4.339389   -2.390470    1.458210
     33          1           0        1.764747    0.660197    1.161397
     34          1           0        3.576483    1.917496    0.060548
     35          1           0        2.356212    2.716115   -1.060844
     36          1           0        1.107486    3.668284    0.860109
     37          1           0        2.302581    2.925062    2.045044
     38          1           0       -5.112136   -1.577432    1.005392
 ---------------------------------------------------------------------

 SCF Done:  E(UB3LYP) =  -880.062925968     A.U. after   33 cycles
 SCF Done:  E(UB3LYP) =  -880.062925968     a.u. after    1 cycles

 The electronic state is 2-A.
 Alpha  occ. eigenvalues --  -19.07513 -19.02483 -19.00479 -18.99673 -14.25809
 Alpha  occ. eigenvalues --  -14.25264 -10.21359 -10.19153 -10.18611 -10.12928
 Alpha  occ. eigenvalues --  -10.11977 -10.11690 -10.10567 -10.10204 -10.09408
 Alpha  occ. eigenvalues --  -10.09118 -10.08771 -10.07254  -1.01837  -0.95547
 Alpha  occ. eigenvalues --   -0.95156  -0.92829  -0.85705  -0.83518  -0.77971
 Alpha  occ. eigenvalues --   -0.71957  -0.67172  -0.65396  -0.62366  -0.57822
 Alpha  occ. eigenvalues --   -0.57588  -0.54438  -0.52030  -0.49875  -0.48896
 Alpha  occ. eigenvalues --   -0.45222  -0.44504  -0.42276  -0.41526  -0.40492
 Alpha  occ. eigenvalues --   -0.40009  -0.39470  -0.38731  -0.37426  -0.36356
 Alpha  occ. eigenvalues --   -0.36036  -0.35053  -0.33854  -0.33098  -0.32464
 Alpha  occ. eigenvalues --   -0.31712  -0.31326  -0.31181  -0.30529  -0.29894
 Alpha  occ. eigenvalues --   -0.28811  -0.28296  -0.28058  -0.27388  -0.26989
 Alpha  occ. eigenvalues --   -0.26244  -0.23503  -0.22719  -0.20969  -0.19305
 Alpha  occ. eigenvalues --   -0.18413  -0.17396  -0.17304  -0.15515   0.03836
 Alpha virt. eigenvalues --    0.05545   0.06551   0.06909   0.07860   0.08274
 Alpha virt. eigenvalues --    0.08422   0.08981   0.09106   0.09273   0.09671
 Alpha virt. eigenvalues --    0.10267   0.10671   0.11098   0.11525   0.12011

  Beta  occ. eigenvalues --  -19.07453 -19.02448 -19.00474 -18.99671 -14.25811
  Beta  occ. eigenvalues --  -14.25260 -10.21329 -10.19151 -10.18610 -10.12906
  Beta  occ. eigenvalues --  -10.11959 -10.11678 -10.10549 -10.10198 -10.09405
  Beta  occ. eigenvalues --  -10.09117 -10.08720 -10.07233  -1.01742  -0.95539
  Beta  occ. eigenvalues --   -0.95152  -0.92745  -0.85696  -0.83508  -0.77965
  Beta  occ. eigenvalues --   -0.71910  -0.67138  -0.65335  -0.62335  -0.57771
  Beta  occ. eigenvalues --   -0.57520  -0.54386  -0.52021  -0.49843  -0.48821
  Beta  occ. eigenvalues --   -0.45190  -0.44483  -0.42245  -0.41475  -0.40448
  Beta  occ. eigenvalues --   -0.39970  -0.39429  -0.38692  -0.37385  -0.36302
  Beta  occ. eigenvalues --   -0.35985  -0.35021  -0.33807  -0.33079  -0.32418
  Beta  occ. eigenvalues --   -0.31672  -0.31304  -0.31151  -0.30503  -0.29876
  Beta  occ. eigenvalues --   -0.28788  -0.28279  -0.28026  -0.27359  -0.26955
  Beta  occ. eigenvalues --   -0.26205  -0.23393  -0.22710  -0.20962  -0.19254
  Beta  occ. eigenvalues --   -0.18403  -0.17378  -0.17292  -0.15505
  Beta virt. eigenvalues --    0.06109   0.06644   0.07012   0.07526   0.08183
  Beta virt. eigenvalues --    0.08530   0.08719   0.09078   0.09414   0.09590
  Beta virt. eigenvalues --    0.09784   0.10476   0.10770   0.11303   0.11840

 Mulliken charges and spin densities:
               1          2
     1  C   -0.055226  -0.367763
     2  C    0.200013  -0.110095
     3  C    0.482751  -0.671075
     4  N    0.236236   0.066294
     5  C   -0.238004  -0.113882
     6  C    0.019037  -0.600889
     7  N    0.013394  -0.028624
     8  C   -0.638925   0.603260
     9  O   -0.327941   0.003046
    10  C    1.091650  -1.532325
    11  C   -0.635859  -0.325189
    12  O   -0.304876   0.000668
    13  C    0.549908   0.332077
    14  C   -0.470258  -0.183650
    15  C   -0.309539  -0.212558
    16  C    0.394182  -0.507928
    17  O   -0.292694   0.009415
    18  O   -0.189998   0.040787
    19  H   -0.049395   0.202997
    20  H   -0.052603   0.242697
    21  H    0.158905   0.005025
    22  H   -0.364276   0.586381
    23  H    0.054240   0.119006
    24  H    0.285216  -0.050001
    25  H   -0.170892   0.363860
    26  H   -0.089968   0.300853
    27  H   -0.118111   0.307927
    28  H   -0.151071   0.341991
    29  H    0.244629   0.056102
    30  H   -0.438257   0.612578
    31  H   -0.291815   0.469355
    32  H    0.036472   0.143706
    33  H    0.296721   0.015888
    34  H    0.214353  -0.017896
    35  H    0.165658   0.017554
    36  H    0.188991   0.002070
    37  H    0.020769   0.110297
    38  H   -0.463418   0.768039
 Sum of Mulliken charges =  -1.00000   1.00000

 Dipole moment (field-independent basis, Debye):
    X=              3.6025    Y=              4.2642    Z=             -2.1365  Tot=              5.9771
 Quadrupole moment (field-independent basis, Debye-Ang):
   XX=           -213.4266   YY=           -161.6888   ZZ=           -138.6097
   XY=             -2.0712   XZ=              3.8845   YZ=              9.6471

 Summary of Natural Population Analysis:

                                       Natural Population
                Natural  -----------------------------------------------
    Atom  No    Charge         Core      Valence    Rydberg      Total
 -----------------------------------------------------------------------
      C    1   -0.28623      0.99964     2.28018    0.00641     3.28623
      C    2   -0.15963      0.99955     2.14904    0.01104     3.15963
      C    3   -0.08663      0.99958     2.07476    0.01229     3.08663
      N    4   -0.25747      0.99964     2.74608    0.01174     3.75747
      C    5   -0.09724      0.99958     2.08705    0.01061     3.09724
      C    6   -0.09488      0.99960     2.08488    0.01041     3.09488
      N    7   -0.32303      0.99967     2.81384    0.00952     3.82303
      C    8    0.34261      0.99969     1.63478    0.02292     2.65739
      O    9   -0.32505      0.99988     3.31900    0.00617     4.32505
      C   10   -0.33596      0.99962     2.33121    0.00513     3.33596
      C   11    0.34302      0.99960     1.63303    0.02434     2.65698
      O   12   -0.34059      0.99988     3.33590    0.00481     4.34059
      C   13   -0.16417      0.99955     2.15457    0.01005     3.16417
      C   14   -0.18789      0.99962     2.18103    0.00724     3.18789
      C   15   -0.18721      0.99962     2.18084    0.00675     3.18721
      C   16    0.41696      0.99968     1.55831    0.02505     2.58304
      O   17   -0.31369      0.99987     3.30726    0.00657     4.31369
      O   18   -0.34383      0.99988     3.33686    0.00709     4.34383
      H   19    0.10004      0.00000     0.39885    0.00111     0.39996
      H   20    0.10735      0.00000     0.39165    0.00101     0.39265
      H   21    0.11191      0.00000     0.38713    0.00096     0.38809
      H   22    0.11503      0.00000     0.38340    0.00157     0.38497
      H   23    0.10357      0.00000     0.39505    0.00138     0.39643
      H   24    0.11403      0.00000     0.38487    0.00110     0.38597
      H   25    0.09908      0.00000     0.39915    0.00178     0.40092
      H   26    0.12172      0.00000     0.37636    0.00192     0.37828
      H   27    0.10597      0.00000     0.39249    0.00153     0.39403
      H   28    0.09951      0.00000     0.39935    0.00114     0.40049
      H   29    0.19461      0.00000     0.30305    0.00234     0.30539
      H   30    0.11139      0.00000     0.38674    0.00187     0.38861
      H   31    0.11136      0.00000     0.38738    0.00127     0.38864
      H   32    0.11369      0.00000     0.38546    0.00085     0.38631
      H   33    0.11067      0.00000     0.38725    0.00207     0.38933
      H   34    0.11519      0.00000     0.38386    0.00095     0.38481
      H   35    0.10714      0.00000     0.39183    0.00103     0.39286
      H   36    0.11144      0.00000     0.38750    0.00107     0.38856
      H   37    0.10167      0.00000     0.39746    0.00086     0.39833
      H   38    0.24552      0.00000     0.23339    0.02109     0.25448
 =======================================================================
   * Total *   -0.00000     17.99415    50.76082    0.24502    69.00000

 Normal termination of Gaussian 16 at Mon Dec 14 18:34:14 2020.
