 Gaussian 16, Revision A.03,

 -----------------------------------------------------------
 # opt freq B3LYP/6-31G(d) empiricaldispersion=gd3bj scf=xqc
 -----------------------------------------------------------

 -------------------------------
 CID_130128260_JID_3439_neutraal
 -------------------------------
 Symbolic Z-matrix:
 Charge =  0 Multiplicity = 1

 SCF Done:  E(RB3LYP) =  -540.911507282     A.U. after   14 cycles
 SCF Done:  E(RB3LYP) =  -540.915048231     A.U. after   12 cycles
 SCF Done:  E(RB3LYP) =  -540.915680540     A.U. after   11 cycles
 SCF Done:  E(RB3LYP) =  -540.916183917     A.U. after   12 cycles
 SCF Done:  E(RB3LYP) =  -540.916341387     A.U. after   11 cycles
 SCF Done:  E(RB3LYP) =  -540.916151466     A.U. after   10 cycles
 SCF Done:  E(RB3LYP) =  -540.916868680     A.U. after   12 cycles
 SCF Done:  E(RB3LYP) =  -540.918278079     A.U. after   14 cycles
 SCF Done:  E(RB3LYP) =  -540.918160057     A.U. after   12 cycles
 SCF Done:  E(RB3LYP) =  -540.918796322     A.U. after   12 cycles
 SCF Done:  E(RB3LYP) =  -540.918938527     A.U. after   10 cycles
 SCF Done:  E(RB3LYP) =  -540.918939723     A.U. after    9 cycles
 SCF Done:  E(RB3LYP) =  -540.918939819     A.U. after    7 cycles
 SCF Done:  E(RB3LYP) =  -540.918940168     A.U. after    8 cycles
 SCF Done:  E(RB3LYP) =  -540.918940231     A.U. after    7 cycles
 SCF Done:  E(RB3LYP) =  -540.918940281     A.U. after    7 cycles
 Optimization completed.
    -- Stationary point found.
 Normal termination of Gaussian 16 at Wed Dec  9 23:20:21 2020.

 --------------------------------------------------------------------
 #N Geom=AllCheck Guess=TCheck SCRF=Check GenChk RB3LYP/6-31G(d) Freq
 --------------------------------------------------------------------

 Structure from the checkpoint file:  "JID_3439.chk"
 -------------------------------
 CID_130128260_JID_3439_neutraal
 -------------------------------
 Charge =  0 Multiplicity = 1

 SCF Done:  E(RB3LYP) =  -540.918940281     A.U. after    1 cycles

  Exact polarizability: 203.883 -13.345 125.515   3.309  -1.067  68.031
 Approx polarizability: 270.020 -25.943 216.093   7.299  -5.854 103.173

                      1                      2                      3
                      A                      A                      A
 Frequencies --     23.4962                51.4240                62.4077
 Red. masses --      3.5672                 4.6886                 3.5491
 Frc consts  --      0.0012                 0.0073                 0.0081
 IR Inten    --      0.4933                 0.1333                 0.5394

                      4                      5                      6
                      A                      A                      A
 Frequencies --     86.9017               126.3069               179.7668
 Red. masses --      2.7170                 3.8550                 4.0495
 Frc consts  --      0.0121                 0.0362                 0.0771
 IR Inten    --      2.6081                 2.3757                 0.2750

                      7                      8                      9
                      A                      A                      A
 Frequencies --    181.4123               258.0633               311.3078
 Red. masses --      2.8181                 2.8798                 2.2678
 Frc consts  --      0.0546                 0.1130                 0.1295
 IR Inten    --      2.4992                 0.1458                22.5854

                     10                     11                     12
                      A                      A                      A
 Frequencies --    353.3875               402.8038               412.6245
 Red. masses --      1.7497                 1.8423                 4.1243
 Frc consts  --      0.1287                 0.1761                 0.4137
 IR Inten    --     72.4547                45.7210                 7.8309

                     13                     14                     15
                      A                      A                      A
 Frequencies --    414.4956               473.3294               519.1000
 Red. masses --      3.0458                 3.7190                 2.7777
 Frc consts  --      0.3083                 0.4909                 0.4410
 IR Inten    --      0.2630                 3.2287                 4.6513

                     16                     17                     18
                      A                      A                      A
 Frequencies --    531.1803               636.3742               648.3102
 Red. masses --      3.1829                 6.3231                 4.5315
 Frc consts  --      0.5291                 1.5087                 1.1222
 IR Inten    --      2.4347                 0.3130                 8.1143

                     19                     20                     21
                      A                      A                      A
 Frequencies --    706.0387               761.1307               807.4959
 Red. masses --      1.9393                 1.6813                 2.7237
 Frc consts  --      0.5696                 0.5739                 1.0464
 IR Inten    --     16.6197                44.1179                 6.4050

                     22                     23                     24
                      A                      A                      A
 Frequencies --    839.9268               852.4407               860.7354
 Red. masses --      1.8196                 1.4618                 1.9241
 Frc consts  --      0.7563                 0.6258                 0.8399
 IR Inten    --      1.5625                 0.0191                 1.0641

                     25                     26                     27
                      A                      A                      A
 Frequencies --    885.4354               906.4630               925.6534
 Red. masses --      2.0329                 1.2542                 1.5361
 Frc consts  --      0.9390                 0.6072                 0.7755
 IR Inten    --     15.8626                 3.0478                 1.4038

                     28                     29                     30
                      A                      A                      A
 Frequencies --    938.6178               962.5730               989.4441
 Red. masses --      3.9960                 1.3492                 1.2560
 Frc consts  --      2.0742                 0.7365                 0.7245
 IR Inten    --      7.5463                 0.0581                 5.4708

                     31                     32                     33
                      A                      A                      A
 Frequencies --    997.0111              1013.5645              1019.8897
 Red. masses --      1.7464                 1.2437                 4.7638
 Frc consts  --      1.0228                 0.7528                 2.9195
 IR Inten    --     17.4744                15.8300                 1.1791

                     34                     35                     36
                      A                      A                      A
 Frequencies --   1053.3676              1061.8221              1069.8570
 Red. masses --      2.2872                 2.1946                 1.9189
 Frc consts  --      1.4952                 1.4578                 1.2940
 IR Inten    --     36.2377                 6.6099                54.3676

                     37                     38                     39
                      A                      A                      A
 Frequencies --   1106.9747              1118.0369              1126.9916
 Red. masses --      2.0649                 1.5029                 1.4061
 Frc consts  --      1.4908                 1.1069                 1.0522
 IR Inten    --     48.2158                18.6907                 8.3600

                     40                     41                     42
                      A                      A                      A
 Frequencies --   1137.6473              1182.2218              1194.0158
 Red. masses --      1.4150                 1.4554                 1.0949
 Frc consts  --      1.0790                 1.1985                 0.9197
 IR Inten    --      1.5535                16.8903                 0.1445

                     43                     44                     45
                      A                      A                      A
 Frequencies --   1218.0886              1227.1297              1246.5436
 Red. masses --      1.1402                 1.5916                 1.5370
 Frc consts  --      0.9968                 1.4121                 1.4071
 IR Inten    --      0.0632                 8.4039                 5.0683

                     46                     47                     48
                      A                      A                      A
 Frequencies --   1259.3256              1313.2137              1336.7566
 Red. masses --      1.7598                 2.0554                 1.5245
 Frc consts  --      1.6444                 2.0885                 1.6050
 IR Inten    --      6.2311                 5.6714                 2.5846

                     49                     50                     51
                      A                      A                      A
 Frequencies --   1352.2883              1372.6218              1380.9683
 Red. masses --      1.3530                 2.6504                 1.3508
 Frc consts  --      1.4578                 2.9421                 1.5178
 IR Inten    --      1.8981                 0.6847                 0.1473

                     52                     53                     54
                      A                      A                      A
 Frequencies --   1395.6155              1436.3991              1464.5799
 Red. masses --      1.2371                 1.3048                 1.5213
 Frc consts  --      1.4197                 1.5861                 1.9227
 IR Inten    --     14.6284                58.6450                39.2001

                     55                     56                     57
                      A                      A                      A
 Frequencies --   1499.7712              1518.4036              1537.6456
 Red. masses --      2.2527                 1.5332                 1.1045
 Frc consts  --      2.9854                 2.0827                 1.5386
 IR Inten    --      4.9820                 4.6080                 0.9948

                     58                     59                     60
                      A                      A                      A
 Frequencies --   1549.1315              1637.8667              1665.2802
 Red. masses --      2.2326                 5.2471                 5.5120
 Frc consts  --      3.1568                 8.2933                 9.0060
 IR Inten    --     12.4174                 1.6484                 8.3309

                     61                     62                     63
                      A                      A                      A
 Frequencies --   1729.8561              2976.9574              3096.1193
 Red. masses --      5.6744                 1.0731                 1.0906
 Frc consts  --     10.0044                 5.6031                 6.1597
 IR Inten    --     11.0656                60.8129                32.4773

                     64                     65                     66
                      A                      A                      A
 Frequencies --   3124.2237              3137.1134              3151.3276
 Red. masses --      1.0848                 1.0571                 1.0895
 Frc consts  --      6.2386                 6.1293                 6.3747
 IR Inten    --     17.1452                24.0615                12.5522

                     67                     68                     69
                      A                      A                      A
 Frequencies --   3159.8788              3175.7262              3177.7471
 Red. masses --      1.0863                 1.0878                 1.0860
 Frc consts  --      6.3908                 6.4639                 6.4611
 IR Inten    --     26.3653                 9.1797                13.0006

                     70                     71                     72
                      A                      A                      A
 Frequencies --   3184.5233              3194.7035              3203.6447
 Red. masses --      1.0865                 1.0907                 1.0931
 Frc consts  --      6.4921                 6.5586                 6.6099
 IR Inten    --      0.2538                17.9158                39.1933

                     73                     74                     75
                      A                      A                      A
 Frequencies --   3212.1369              3227.6196              3729.9114
 Red. masses --      1.0977                 1.1158                 1.0658
 Frc consts  --      6.6732                 6.8485                 8.7361
 IR Inten    --     21.7152                12.6319                 7.2596

 - Thermochemistry -
 -------------------
 Temperature   298.150 Kelvin.  Pressure   1.00000 Atm.
 Atom     1 has atomic number  6 and mass  12.00000

 Molecular mass:   174.10447 amu.
 Principal axes and moments of inertia in atomic units:
                           1         2         3
     Eigenvalues --   722.646486525.340587041.66052
           X            0.99999  -0.00460   0.00103
           Y            0.00459   0.99998   0.00459
           Z           -0.00105  -0.00458   0.99999
 This molecule is an asymmetric top.
 Rotational symmetry number  1.
 Warning -- assumption of classical behavior for rotation
           may cause significant error
 Rotational temperatures (Kelvin)      0.11986     0.01327     0.01230
 Rotational constants (GHZ):           2.49741     0.27657     0.25629
 Zero-point vibrational energy     604611.6 (Joules/Mol)
                                  144.50564 (Kcal/Mol)
 Warning -- explicit consideration of  16 degrees of freedom as
           vibrations may cause significant error
 Vibrational temperatures:     33.81    73.99    89.79   125.03   181.73
          (Kelvin)            258.64   261.01   371.30   447.90   508.45
                              579.54   593.67   596.37   681.02   746.87
                              764.25   915.60   932.77  1015.83  1095.10
                             1161.81  1208.47  1226.47  1238.41  1273.94
                             1304.20  1331.81  1350.46  1384.93  1423.59
                             1434.48  1458.29  1467.39  1515.56  1527.73
                             1539.29  1592.69  1608.61  1621.49  1636.82
                             1700.95  1717.92  1752.56  1765.57  1793.50
                             1811.89  1889.42  1923.29  1945.64  1974.90
                             1986.91  2007.98  2066.66  2107.20  2157.84
                             2184.64  2212.33  2228.85  2356.52  2395.97
                             2488.88  4283.18  4454.63  4495.06  4513.61
                             4534.06  4546.36  4569.16  4572.07  4581.82
                             4596.47  4609.33  4621.55  4643.82  5366.51

 Zero-point correction=                           0.230284 (Hartree/Particle)
 Thermal correction to Energy=                    0.242576
 Thermal correction to Enthalpy=                  0.243520
 Thermal correction to Gibbs Free Energy=         0.189889
 Sum of electronic and zero-point Energies=           -540.688656
 Sum of electronic and thermal Energies=              -540.676364
 Sum of electronic and thermal Enthalpies=            -540.675420
 Sum of electronic and thermal Free Energies=         -540.729051

                     E (Thermal)             CV                S
                      KCal/Mol        Cal/Mol-Kelvin    Cal/Mol-Kelvin
 Total                  152.219             46.582            112.876
 Electronic               0.000              0.000              0.000
 Translational            0.889              2.981             41.371
 Rotational               0.889              2.981             31.874
 Vibrational            150.441             40.620             39.631
 Vibration     1          0.593              1.985              6.314
 Vibration     2          0.596              1.977              4.762
 Vibration     3          0.597              1.972              4.380
 Vibration     4          0.601              1.958              3.729
 Vibration     5          0.611              1.927              3.002
 Vibration     6          0.629              1.867              2.331
 Vibration     7          0.630              1.865              2.314
 Vibration     8          0.667              1.749              1.675
 Vibration     9          0.700              1.652              1.355
 Vibration    10          0.730              1.568              1.151
 Vibration    11          0.768              1.464              0.952
 Vibration    12          0.776              1.443              0.917
 Vibration    13          0.778              1.439              0.911
 Vibration    14          0.830              1.309              0.728
 Vibration    15          0.874              1.208              0.612
 Vibration    16          0.886              1.181              0.585

 Optimization completed.
    -- Stationary point found.
 Normal termination of Gaussian 16 at Wed Dec  9 23:26:18 2020.

 ----------------------------------------------------------------------
 # B3LYP/6-311++G(d,p) empiricaldispersion=gd3bj scf=xqc pop=npa geom=c
 heck
 ----------------------------------------------------------------------

 ---------------------------------------
 CID_130128260_JID_3439_Energie_neutraal
 ---------------------------------------
 Structure from the checkpoint file:  "JID_3439.chk"
 Charge =  0 Multiplicity = 1

 SCF Done:  E(RB3LYP) =  -541.074730360     A.U. after   14 cycles
 Normal termination of Gaussian 16 at Wed Dec  9 23:29:08 2020.

 ----------------------------------------------------------------------
 # B3LYP/6-311++G(d,p) empiricaldispersion=gd3bj scf=xqc pop=npa geom=c
 heck
 ----------------------------------------------------------------------

 -------------------------------------
 CID_130128260_JID_3439_Energie_kation
 -------------------------------------
 Structure from the checkpoint file:  "JID_3439.chk"
 Charge =  1 Multiplicity = 2

 SCF Done:  E(UB3LYP) =  -540.785839030     A.U. after   23 cycles
 Normal termination of Gaussian 16 at Wed Dec  9 23:35:41 2020.
 Gaussian 16:  ES64L-G16RevA.03 25-Dec-2016

 ----------------------------------------------------------------------
 # B3LYP/6-311++G(d,p) empiricaldispersion=gd3bj scf=xqc pop=npa geom=c
 heck
 ----------------------------------------------------------------------

 ------------------------------------
 CID_130128260_JID_3439_Energie_anion
 ------------------------------------
 Structure from the checkpoint file:  "JID_3439.chk"
 Charge = -1 Multiplicity = 2

                         Standard orientation:
 ---------------------------------------------------------------------
 Center     Atomic      Atomic             Coordinates (Angstroms)
 Number     Number       Type             X           Y           Z
 ---------------------------------------------------------------------
      1          6           0        2.756317   -1.222194   -0.803520
      2          6           0        2.775038    0.132904   -0.132454
      3          6           0        1.939933   -0.971697    0.456831
      4          6           0        0.457022   -0.974693    0.406693
      5          6           0       -0.318776    0.086962    0.141540
      6          6           0       -1.783709    0.108328    0.048208
      7          6           0       -2.441805    1.348428   -0.008949
      8          6           0       -3.830828    1.426703   -0.084518
      9          6           0       -4.596167    0.261025   -0.110268
     10          6           0       -3.956925   -0.981063   -0.064560
     11          6           0       -2.570023   -1.057451    0.009570
     12          6           0        4.024608    0.594677    0.577060
     13          8           0        4.972233    1.171205   -0.313467
     14          1           0        3.634052   -1.859876   -0.717920
     15          1           0        2.212612   -1.318296   -1.738436
     16          1           0        2.247999    0.925803   -0.657296
     17          1           0        2.354227   -1.443971    1.348333
     18          1           0       -0.004199   -1.942619    0.602270
     19          1           0        0.161963    1.053073   -0.005708
     20          1           0       -1.850071    2.260454    0.012859
     21          1           0       -4.314805    2.398663   -0.124406
     22          1           0       -5.679174    0.317048   -0.172012
     23          1           0       -4.543804   -1.895105   -0.094573
     24          1           0       -2.090473   -2.031441    0.024487
     25          1           0        3.788921    1.379047    1.303931
     26          1           0        4.463381   -0.249593    1.136662
     27          1           0        5.113394    0.525601   -1.024253
 ---------------------------------------------------------------------

 SCF Done:  E(UB3LYP) =  -541.069753801     A.U. after   29 cycles

 The electronic state is 2-A.
 Alpha  occ. eigenvalues --  -19.01546 -10.11070 -10.06643 -10.06599 -10.05650
 Alpha  occ. eigenvalues --  -10.05213 -10.04882 -10.04557 -10.04500 -10.04086
 Alpha  occ. eigenvalues --  -10.03966 -10.03148 -10.03063  -0.91664  -0.75444
 Alpha  occ. eigenvalues --   -0.73100  -0.65893  -0.62189  -0.60729  -0.58369
 Alpha  occ. eigenvalues --   -0.51540  -0.48329  -0.47383  -0.46602  -0.42312
 Alpha  occ. eigenvalues --   -0.41032  -0.38961  -0.36194  -0.35430  -0.33697
 Alpha  occ. eigenvalues --   -0.33089  -0.31643  -0.30228  -0.29838  -0.27719
 Alpha  occ. eigenvalues --   -0.26178  -0.24971  -0.24667  -0.23869  -0.21890
 Alpha  occ. eigenvalues --   -0.21427  -0.19772  -0.18817  -0.16802  -0.16183
 Alpha  occ. eigenvalues --   -0.13485  -0.09528   0.04774
 Alpha virt. eigenvalues --    0.07047   0.07895   0.08804   0.09045   0.09693
 Alpha virt. eigenvalues --    0.09962   0.10730   0.11213   0.11576   0.12222
 Alpha virt. eigenvalues --    0.12339   0.13441   0.14272   0.14853   0.15160

  Beta  occ. eigenvalues --  -19.01518 -10.11054 -10.06664 -10.06601 -10.05562
  Beta  occ. eigenvalues --  -10.05269 -10.04856 -10.04523 -10.04367 -10.03877
  Beta  occ. eigenvalues --  -10.03835 -10.03024 -10.02850  -0.91605  -0.75351
  Beta  occ. eigenvalues --   -0.72858  -0.65501  -0.62014  -0.60415  -0.58216
  Beta  occ. eigenvalues --   -0.51165  -0.48250  -0.47272  -0.46402  -0.42146
  Beta  occ. eigenvalues --   -0.40895  -0.38835  -0.36095  -0.35314  -0.33568
  Beta  occ. eigenvalues --   -0.32995  -0.31520  -0.30100  -0.29794  -0.27633
  Beta  occ. eigenvalues --   -0.25995  -0.24554  -0.24350  -0.23806  -0.21771
  Beta  occ. eigenvalues --   -0.21298  -0.19331  -0.18749  -0.16556  -0.15510
  Beta  occ. eigenvalues --   -0.12976  -0.08374
  Beta virt. eigenvalues --    0.07689   0.07941   0.08858   0.09135   0.09421
  Beta virt. eigenvalues --    0.09782   0.10005   0.10881   0.11268   0.11858
  Beta virt. eigenvalues --    0.12282   0.12491   0.13561   0.14294   0.14843

 Mulliken charges and spin densities:
               1          2
     1  C    0.564860  -1.183463
     2  C   -0.819538   0.954972
     3  C   -0.442158   0.308374
     4  C    0.348917   0.191880
     5  C   -0.215902  -0.164636
     6  C    1.156789   0.013953
     7  C    0.279462   0.071244
     8  C   -0.307814   0.007548
     9  C   -0.390027   0.114964
    10  C   -0.247487   0.026189
    11  C   -1.419811   0.045403
    12  C    0.655368  -1.144200
    13  O   -0.248150   0.003714
    14  H   -0.660366   0.819325
    15  H    0.044197   0.115123
    16  H    0.068847   0.119708
    17  H    0.068587   0.111881
    18  H    0.145242  -0.008873
    19  H    0.007882  -0.040444
    20  H    0.118298   0.011526
    21  H    0.112240   0.001710
    22  H    0.097569  -0.014640
    23  H    0.128729   0.013697
    24  H    0.011528   0.014025
    25  H    0.139389   0.019227
    26  H   -0.195661   0.341766
    27  H   -0.000987   0.250027
 Sum of Mulliken charges =  -1.00000   1.00000

 Dipole moment (field-independent basis, Debye):
    X=             -4.5131    Y=              1.3306    Z=              1.3272  Tot=              4.8887
 Quadrupole moment (field-independent basis, Debye-Ang):
   XX=           -168.6058   YY=            -97.4921   ZZ=            -96.2106
   XY=              4.9623   XZ=              6.1910   YZ=             -1.7582

 Summary of Natural Population Analysis:

                                       Natural Population
                Natural  -----------------------------------------------
    Atom  No    Charge         Core      Valence    Rydberg      Total
 -----------------------------------------------------------------------
      C    1   -0.18851      0.99960     2.17817    0.01074     3.18851
      C    2   -0.13010      0.99957     2.11990    0.01062     3.13010
      C    3   -0.12316      0.99957     2.11204    0.01156     3.12316
      C    4   -0.03671      0.99952     2.02747    0.00972     3.03671
      C    5   -0.09498      0.99951     2.08773    0.00775     3.09498
      C    6   -0.00989      0.99951     2.00150    0.00889     3.00989
      C    7   -0.09257      0.99954     2.08470    0.00833     3.09257
      C    8   -0.10685      0.99957     2.09780    0.00947     3.10685
      C    9   -0.08038      0.99957     2.07086    0.00996     3.08038
      C   10   -0.11730      0.99958     2.10860    0.00912     3.11730
      C   11   -0.07205      0.99953     2.06470    0.00782     3.07205
      C   12   -0.00714      0.99957     1.99385    0.01371     3.00714
      O   13   -0.37214      0.99990     3.36571    0.00653     4.37214
      H   14    0.10120      0.00000     0.39546    0.00333     0.39880
      H   15    0.10399      0.00000     0.39504    0.00097     0.39601
      H   16    0.10511      0.00000     0.39319    0.00170     0.39489
      H   17    0.10281      0.00000     0.39611    0.00108     0.39719
      H   18    0.08658      0.00000     0.41238    0.00103     0.41342
      H   19    0.08661      0.00000     0.41177    0.00162     0.41339
      H   20    0.09192      0.00000     0.40679    0.00129     0.40808
      H   21    0.09075      0.00000     0.40819    0.00106     0.40925
      H   22    0.08870      0.00000     0.41028    0.00102     0.41130
      H   23    0.09159      0.00000     0.40743    0.00098     0.40841
      H   24    0.09374      0.00000     0.40451    0.00175     0.40626
      H   25    0.08362      0.00000     0.41522    0.00116     0.41638
      H   26    0.07554      0.00000     0.42296    0.00150     0.42446
      H   27    0.22963      0.00000     0.26624    0.00414     0.27037
 =======================================================================
   * Total *   -0.00000     12.99454    33.85860    0.14685    47.00000

 Normal termination of Gaussian 16 at Wed Dec  9 23:43:52 2020.
