 Gaussian 16, Revision A.03,

 -----------------------------------------------------------
 # opt freq B3LYP/6-31G(d) empiricaldispersion=gd3bj scf=xqc
 -----------------------------------------------------------

 ------------------------------
 CID_80494062_JID_1411_neutraal
 ------------------------------
 Symbolic Z-matrix:
 Charge =  0 Multiplicity = 1

 SCF Done:  E(RB3LYP) =  -512.783706106     A.U. after   14 cycles
 SCF Done:  E(RB3LYP) =  -512.793580391     A.U. after   12 cycles
 SCF Done:  E(RB3LYP) =  -512.795322255     A.U. after   12 cycles
 SCF Done:  E(RB3LYP) =  -512.795952646     A.U. after   12 cycles
 SCF Done:  E(RB3LYP) =  -512.796251837     A.U. after   11 cycles
 SCF Done:  E(RB3LYP) =  -512.796510397     A.U. after   11 cycles
 SCF Done:  E(RB3LYP) =  -512.796951980     A.U. after   13 cycles
 SCF Done:  E(RB3LYP) =  -512.797018613     A.U. after   12 cycles
 SCF Done:  E(RB3LYP) =  -512.797080763     A.U. after   12 cycles
 SCF Done:  E(RB3LYP) =  -512.797146732     A.U. after   11 cycles
 SCF Done:  E(RB3LYP) =  -512.797152569     A.U. after   10 cycles
 SCF Done:  E(RB3LYP) =  -512.797151815     A.U. after   10 cycles
 SCF Done:  E(RB3LYP) =  -512.797153838     A.U. after    9 cycles
 SCF Done:  E(RB3LYP) =  -512.797153817     A.U. after    7 cycles
 SCF Done:  E(RB3LYP) =  -512.797153895     A.U. after    7 cycles
 Optimization completed.
    -- Stationary point found.
 Normal termination of Gaussian 16 at Tue Dec  8 19:55:05 2020.

 --------------------------------------------------------------------
 #N Geom=AllCheck Guess=TCheck SCRF=Check GenChk RB3LYP/6-31G(d) Freq
 --------------------------------------------------------------------

 Structure from the checkpoint file:  "JID_1411.chk"
 ------------------------------
 CID_80494062_JID_1411_neutraal
 ------------------------------
 Charge =  0 Multiplicity = 1

 SCF Done:  E(RB3LYP) =  -512.797153895     A.U. after    1 cycles

  Exact polarizability:  95.288 -12.890  81.314  -3.392  -6.316  83.405
 Approx polarizability: 125.031 -24.696 127.693  -7.381 -12.472 140.318

                      1                      2                      3
                      A                      A                      A
 Frequencies --     45.2082                64.1981                64.6350
 Red. masses --      4.3261                 2.7698                 4.8412
 Frc consts  --      0.0052                 0.0067                 0.0119
 IR Inten    --      2.7386                 0.0389                 1.1053

                      4                      5                      6
                      A                      A                      A
 Frequencies --    109.5426               169.4137               229.0547
 Red. masses --      3.3236                 4.7227                 3.2820
 Frc consts  --      0.0235                 0.0799                 0.1015
 IR Inten    --      5.0929                 1.4728                 3.4502

                      7                      8                      9
                      A                      A                      A
 Frequencies --    313.9283               341.4271               428.9563
 Red. masses --      3.1496                 2.2669                 2.1374
 Frc consts  --      0.1829                 0.1557                 0.2317
 IR Inten    --      1.9125                 0.6474                 4.8989

                     10                     11                     12
                      A                      A                      A
 Frequencies --    492.6936               514.6212               638.1834
 Red. masses --      1.8153                 2.9033                 3.2403
 Frc consts  --      0.2596                 0.4530                 0.7776
 IR Inten    --     56.4295                10.8249                 3.8184

                     13                     14                     15
                      A                      A                      A
 Frequencies --    673.7985               693.1926               738.2591
 Red. masses --      2.4374                 3.0567                 2.1938
 Frc consts  --      0.6520                 0.8654                 0.7045
 IR Inten    --     18.2512                42.3390                21.3219

                     16                     17                     18
                      A                      A                      A
 Frequencies --    788.7940               825.5177               872.7518
 Red. masses --      1.3680                 1.9808                 1.5956
 Frc consts  --      0.5015                 0.7953                 0.7161
 IR Inten    --     16.1178                99.1779                 2.7569

                     19                     20                     21
                      A                      A                      A
 Frequencies --    875.1349               898.8515               950.9940
 Red. masses --      1.8515                 1.3856                 3.2924
 Frc consts  --      0.8354                 0.6596                 1.7544
 IR Inten    --     32.5151                 5.0713                12.4084

                     22                     23                     24
                      A                      A                      A
 Frequencies --    961.1507              1004.6385              1021.0975
 Red. masses --      2.9208                 2.6135                 3.0747
 Frc consts  --      1.5898                 1.5542                 1.8888
 IR Inten    --      7.5164                18.7945                20.1992

                     25                     26                     27
                      A                      A                      A
 Frequencies --   1028.5663              1044.7145              1067.4571
 Red. masses --      7.2471                 3.0606                 3.0632
 Frc consts  --      4.5173                 1.9681                 2.0565
 IR Inten    --     91.9241                16.5949                16.1587

                     28                     29                     30
                      A                      A                      A
 Frequencies --   1079.3358              1143.6210              1157.1471
 Red. masses --      3.0172                 1.8829                 1.0889
 Frc consts  --      2.0710                 1.4509                 0.8591
 IR Inten    --     19.6190                 9.8428                 0.6293

                     31                     32                     33
                      A                      A                      A
 Frequencies --   1167.0764              1174.6302              1187.2095
 Red. masses --      1.9609                 1.3301                 1.7794
 Frc consts  --      1.5736                 1.0813                 1.4777
 IR Inten    --     24.8232                 9.5015                38.2474

                     34                     35                     36
                      A                      A                      A
 Frequencies --   1246.7118              1279.7714              1296.7482
 Red. masses --      1.8029                 1.3226                 1.7476
 Frc consts  --      1.6510                 1.2763                 1.7314
 IR Inten    --      6.5106                 0.1112                10.9805

                     37                     38                     39
                      A                      A                      A
 Frequencies --   1307.4866              1332.4888              1362.1988
 Red. masses --      1.3074                 2.0282                 1.3759
 Frc consts  --      1.3169                 2.1217                 1.5042
 IR Inten    --      1.1285                 4.9137                 4.4981

                     40                     41                     42
                      A                      A                      A
 Frequencies --   1390.3682              1403.6620              1415.7379
 Red. masses --      1.4049                 3.1797                 1.6264
 Frc consts  --      1.6001                 3.6911                 1.9207
 IR Inten    --     10.8313                 0.9660                 7.9075

                     43                     44                     45
                      A                      A                      A
 Frequencies --   1440.3816              1502.3164              1506.4701
 Red. masses --      2.7233                 1.1049                 2.1928
 Frc consts  --      3.3289                 1.4693                 2.9321
 IR Inten    --      6.2106                 1.6360                 9.3374

                     46                     47                     48
                      A                      A                      A
 Frequencies --   1528.1052              1534.7249              1562.9218
 Red. masses --      1.2542                 1.0874                 1.1166
 Frc consts  --      1.7255                 1.5090                 1.6070
 IR Inten    --     26.2985                 5.5154                 2.4298

                     49                     50                     51
                      A                      A                      A
 Frequencies --   1616.9229              3011.1792              3031.0639
 Red. masses --      4.1584                 1.0631                 1.0633
 Frc consts  --      6.4055                 5.6793                 5.7557
 IR Inten    --      7.6023                89.9043                40.9068

                     52                     53                     54
                      A                      A                      A
 Frequencies --   3052.1390              3069.8479              3085.4889
 Red. masses --      1.0606                 1.0895                 1.1022
 Frc consts  --      5.8211                 6.0494                 6.1826
 IR Inten    --     40.3198                 9.6960                35.3624

                     55                     56                     57
                      A                      A                      A
 Frequencies --   3093.7351              3095.1775              3246.8406
 Red. masses --      1.1037                 1.1023                 1.0956
 Frc consts  --      6.2241                 6.2217                 6.8052
 IR Inten    --      9.6118                91.5059                 5.4540

                     58                     59                     60
                      A                      A                      A
 Frequencies --   3272.1477              3475.8069              3667.3217
 Red. masses --      1.0977                 1.0737                 1.0817
 Frc consts  --      6.9246                 7.6423                 8.5714
 IR Inten    --      0.5683                 0.3381                73.7287

 - Thermochemistry -
 -------------------
 Temperature   298.150 Kelvin.  Pressure   1.00000 Atm.
 Atom     1 has atomic number  6 and mass  12.00000

 Molecular mass:   153.09021 amu.
 Principal axes and moments of inertia in atomic units:
                           1         2         3
     Eigenvalues --   838.393632588.343062978.86199
           X            0.99996  -0.00813   0.00390
           Y            0.00823   0.99958  -0.02780
           Z           -0.00367   0.02783   0.99961
 This molecule is an asymmetric top.
 Rotational symmetry number  1.
 Warning -- assumption of classical behavior for rotation
           may cause significant error
 Rotational temperatures (Kelvin)      0.10331     0.03346     0.02908
 Rotational constants (GHZ):           2.15262     0.69726     0.60585
 Zero-point vibrational energy     488037.9 (Joules/Mol)
                                  116.64386 (Kcal/Mol)
 Warning -- explicit consideration of  11 degrees of freedom as
           vibrations may cause significant error
 Vibrational temperatures:     65.04    92.37    93.00   157.61   243.75
          (Kelvin)            329.56   451.67   491.24   617.17   708.88
                              740.43   918.20   969.45   997.35  1062.19
                             1134.90  1187.74  1255.70  1259.12  1293.25
                             1368.27  1382.88  1445.45  1469.13  1479.88
                             1503.11  1535.83  1552.92  1645.42  1664.88
                             1679.16  1690.03  1708.13  1793.74  1841.31
                             1865.73  1881.18  1917.15  1959.90  2000.43
                             2019.56  2036.93  2072.39  2161.50  2167.47
                             2198.60  2208.13  2248.70  2326.39  4332.42
                             4361.02  4391.35  4416.83  4439.33  4451.19
                             4453.27  4671.48  4707.89  5000.91  5276.46

 Zero-point correction=                           0.185884 (Hartree/Particle)
 Thermal correction to Energy=                    0.195811
 Thermal correction to Enthalpy=                  0.196755
 Thermal correction to Gibbs Free Energy=         0.148961
 Sum of electronic and zero-point Energies=           -512.611270
 Sum of electronic and thermal Energies=              -512.601343
 Sum of electronic and thermal Enthalpies=            -512.600399
 Sum of electronic and thermal Free Energies=         -512.648193

                     E (Thermal)             CV                S
                      KCal/Mol        Cal/Mol-Kelvin    Cal/Mol-Kelvin
 Total                  122.873             36.609            100.590
 Electronic               0.000              0.000              0.000
 Translational            0.889              2.981             40.987
 Rotational               0.889              2.981             30.248
 Vibrational            121.096             30.647             29.355
 Vibration     1          0.595              1.979              5.017
 Vibration     2          0.597              1.971              4.324
 Vibration     3          0.597              1.971              4.310
 Vibration     4          0.606              1.942              3.277
 Vibration     5          0.625              1.880              2.442
 Vibration     6          0.652              1.797              1.886
 Vibration     7          0.702              1.647              1.342
 Vibration     8          0.721              1.593              1.205
 Vibration     9          0.790              1.407              0.862
 Vibration    10          0.848              1.266              0.677
 Vibration    11          0.870              1.218              0.623

 Optimization completed.
    -- Stationary point found.
 Normal termination of Gaussian 16 at Tue Dec  8 19:59:14 2020.

 ----------------------------------------------------------------------
 # B3LYP/6-311++G(d,p) empiricaldispersion=gd3bj scf=xqc pop=npa geom=c
 heck
 ----------------------------------------------------------------------

 --------------------------------------
 CID_80494062_JID_1411_Energie_neutraal
 --------------------------------------
 Structure from the checkpoint file:  "JID_1411.chk"
 Charge =  0 Multiplicity = 1

 SCF Done:  E(RB3LYP) =  -512.947537906     A.U. after   14 cycles
 Normal termination of Gaussian 16 at Tue Dec  8 20:00:45 2020.

 ----------------------------------------------------------------------
 # B3LYP/6-311++G(d,p) empiricaldispersion=gd3bj scf=xqc pop=npa geom=c
 heck
 ----------------------------------------------------------------------

 ------------------------------------
 CID_80494062_JID_1411_Energie_kation
 ------------------------------------
 Structure from the checkpoint file:  "JID_1411.chk"
 Charge =  1 Multiplicity = 2

 SCF Done:  E(UB3LYP) =  -512.636849184     A.U. after   24 cycles
 Normal termination of Gaussian 16 at Tue Dec  8 20:04:52 2020.
 Gaussian 16:  ES64L-G16RevA.03 25-Dec-2016

 ----------------------------------------------------------------------
 # B3LYP/6-311++G(d,p) empiricaldispersion=gd3bj scf=xqc pop=npa geom=c
 heck
 ----------------------------------------------------------------------

 -----------------------------------
 CID_80494062_JID_1411_Energie_anion
 -----------------------------------
 Structure from the checkpoint file:  "JID_1411.chk"
 Charge = -1 Multiplicity = 2

                         Standard orientation:
 ---------------------------------------------------------------------
 Center     Atomic      Atomic             Coordinates (Angstroms)
 Number     Number       Type             X           Y           Z
 ---------------------------------------------------------------------
      1          6           0       -3.083617   -0.046174   -0.109978
      2          6           0       -1.675217    0.322999    0.389798
      3          6           0       -1.321668   -1.129987   -0.040695
      4          8           0       -2.720177   -1.437607   -0.241745
      5          7           0       -1.064707    1.486478   -0.207444
      6          6           0        0.279009    1.796444    0.302561
      7          6           0        1.308957    0.708891    0.142223
      8          6           0        1.735954   -0.207244    1.089054
      9          7           0        2.612420   -1.034613    0.460838
     10          7           0        2.796959   -0.725082   -0.840851
     11          6           0        2.006515    0.329653   -1.034654
     12          1           0       -3.327831    0.412201   -1.080595
     13          1           0       -3.924498    0.103622    0.576968
     14          1           0       -1.639382    0.440937    1.478280
     15          1           0       -0.856539   -1.788666    0.701651
     16          1           0       -0.746170   -1.180998   -0.975844
     17          1           0       -1.022005    1.363353   -1.218743
     18          1           0        0.614309    2.708451   -0.203988
     19          1           0        0.174434    2.048454    1.364843
     20          1           0        1.486700   -0.323023    2.134498
     21          1           0        3.126130   -1.809107    0.852933
     22          1           0        1.963953    0.790665   -2.013689
 ---------------------------------------------------------------------

 SCF Done:  E(UB3LYP) =  -512.935204434     A.U. after   32 cycles

 The electronic state is 2-A.
 Alpha  occ. eigenvalues --  -19.02100 -14.27757 -14.22781 -14.20870 -10.12141
 Alpha  occ. eigenvalues --  -10.11121 -10.10572 -10.10406 -10.09962 -10.08555
 Alpha  occ. eigenvalues --  -10.06713  -0.94637  -0.94127  -0.81585  -0.71294
 Alpha  occ. eigenvalues --   -0.68896  -0.63412  -0.59399  -0.56805  -0.50437
 Alpha  occ. eigenvalues --   -0.47879  -0.47527  -0.43685  -0.41587  -0.39517
 Alpha  occ. eigenvalues --   -0.36588  -0.34739  -0.33766  -0.33331  -0.31958
 Alpha  occ. eigenvalues --   -0.31732  -0.30530  -0.29158  -0.26530  -0.24953
 Alpha  occ. eigenvalues --   -0.22206  -0.19289  -0.16239  -0.15583  -0.14965
 Alpha  occ. eigenvalues --   -0.13200   0.04698
 Alpha virt. eigenvalues --    0.06814   0.07526   0.08024   0.09671   0.09909
 Alpha virt. eigenvalues --    0.10648   0.10986   0.11360   0.11681   0.13301
 Alpha virt. eigenvalues --    0.13683   0.14389   0.14548   0.15231   0.16107

  Beta  occ. eigenvalues --  -19.02100 -14.27701 -14.22782 -14.20859 -10.12128
  Beta  occ. eigenvalues --  -10.11109 -10.10559 -10.10387 -10.09922 -10.08539
  Beta  occ. eigenvalues --  -10.06716  -0.94631  -0.94079  -0.81561  -0.71225
  Beta  occ. eigenvalues --   -0.68858  -0.63377  -0.59367  -0.56752  -0.50341
  Beta  occ. eigenvalues --   -0.47830  -0.47478  -0.43580  -0.41545  -0.39485
  Beta  occ. eigenvalues --   -0.36567  -0.34679  -0.33727  -0.33299  -0.31914
  Beta  occ. eigenvalues --   -0.31690  -0.30511  -0.29116  -0.26497  -0.24926
  Beta  occ. eigenvalues --   -0.22191  -0.19270  -0.16217  -0.15565  -0.14950
  Beta  occ. eigenvalues --   -0.13179
  Beta virt. eigenvalues --    0.06977   0.08034   0.08446   0.08857   0.10160
  Beta virt. eigenvalues --    0.10496   0.10842   0.11243   0.11769   0.12313
  Beta virt. eigenvalues --    0.13627   0.13908   0.14586   0.14673   0.15408

 Mulliken charges and spin densities:
               1          2
     1  C    0.396618  -0.589022
     2  C   -0.612008   0.344331
     3  C    0.161787  -0.488043
     4  O   -0.225213   0.025700
     5  N   -0.055275   0.091223
     6  C    1.827648  -2.739306
     7  C   -0.417655   1.080728
     8  C    0.860978  -1.149933
     9  N    0.328800  -0.351714
    10  N   -0.272582   0.120807
    11  C   -0.614118   0.238261
    12  H   -0.043378   0.145576
    13  H   -0.073143   0.215450
    14  H   -0.009626   0.168897
    15  H   -0.067327   0.259632
    16  H    0.101373   0.092857
    17  H    0.124380   0.085078
    18  H   -0.069766   0.244051
    19  H   -0.248795   0.429784
    20  H   -1.527219   1.721457
    21  H   -0.442500   0.790777
    22  H   -0.122980   0.263410
 Sum of Mulliken charges =  -1.00000   1.00000

 Dipole moment (field-independent basis, Debye):
    X=             -4.0594    Y=              3.2714    Z=             -4.8819  Tot=              7.1424
 Quadrupole moment (field-independent basis, Debye-Ang):
   XX=           -121.8304   YY=           -104.4767   ZZ=           -106.8207
   XY=              7.5883   XZ=             -6.0835   YZ=              4.1870

 Summary of Natural Population Analysis:

                                       Natural Population
                Natural  -----------------------------------------------
    Atom  No    Charge         Core      Valence    Rydberg      Total
 -----------------------------------------------------------------------
      C    1   -0.00288      0.99963     1.99183    0.01142     3.00288
      C    2   -0.03360      0.99959     2.02113    0.01288     3.03360
      C    3   -0.01557      0.99962     2.00280    0.01315     3.01557
      O    4   -0.30720      0.99991     3.29900    0.00829     4.30720
      N    5   -0.33259      0.99974     2.82023    0.01263     3.83259
      C    6   -0.09430      0.99958     2.08279    0.01193     3.09430
      C    7   -0.09449      0.99952     2.08257    0.01241     3.09449
      C    8   -0.00400      0.99950     1.99029    0.01420     3.00400
      N    9   -0.16412      0.99970     2.64946    0.01496     3.66412
      N   10   -0.15589      0.99974     2.64197    0.01418     3.65589
      C   11   -0.01372      0.99956     2.00017    0.01399     3.01372
      H   12    0.07730      0.00000     0.42083    0.00187     0.42270
      H   13    0.08401      0.00000     0.41422    0.00177     0.41599
      H   14    0.09839      0.00000     0.39965    0.00197     0.40161
      H   15    0.09133      0.00000     0.40681    0.00186     0.40867
      H   16    0.08261      0.00000     0.41562    0.00177     0.41739
      H   17    0.16951      0.00000     0.32726    0.00323     0.33049
      H   18    0.09846      0.00000     0.40047    0.00107     0.40154
      H   19    0.09948      0.00000     0.39894    0.00157     0.40052
      H   20    0.11389      0.00000     0.37457    0.01154     0.38611
      H   21    0.20783      0.00000     0.27784    0.01433     0.29217
      H   22    0.09556      0.00000     0.40316    0.00129     0.40444
 =======================================================================
   * Total *   -0.00000     10.99610    29.82161    0.18230    41.00000

 Normal termination of Gaussian 16 at Tue Dec  8 20:09:05 2020.
