 Gaussian 16, Revision A.03,

 -----------------------------------------------------------
 # opt freq B3LYP/6-31G(d) empiricaldispersion=gd3bj scf=xqc
 -----------------------------------------------------------

 ------------------------------
 CID_63174495_JID_9966_neutraal
 ------------------------------
 Symbolic Z-matrix:
 Charge =  0 Multiplicity = 1

 SCF Done:  E(RB3LYP) =  -805.079892227     A.U. after   14 cycles
 SCF Done:  E(RB3LYP) =  -805.087385157     A.U. after   13 cycles
 SCF Done:  E(RB3LYP) =  -805.090028025     A.U. after   13 cycles
 SCF Done:  E(RB3LYP) =  -805.092266571     A.U. after   12 cycles
 SCF Done:  E(RB3LYP) =  -805.093229983     A.U. after   12 cycles
 SCF Done:  E(RB3LYP) =  -805.092835269     A.U. after   12 cycles
 SCF Done:  E(RB3LYP) =  -805.093543632     A.U. after   12 cycles
 SCF Done:  E(RB3LYP) =  -805.093595435     A.U. after   10 cycles
 SCF Done:  E(RB3LYP) =  -805.093610817     A.U. after    9 cycles
 SCF Done:  E(RB3LYP) =  -805.093617803     A.U. after    9 cycles
 SCF Done:  E(RB3LYP) =  -805.093620932     A.U. after    8 cycles
 SCF Done:  E(RB3LYP) =  -805.093622984     A.U. after    8 cycles
 SCF Done:  E(RB3LYP) =  -805.093623574     A.U. after    8 cycles
 SCF Done:  E(RB3LYP) =  -805.093623632     A.U. after    7 cycles
 Optimization completed.
    -- Stationary point found.
 Normal termination of Gaussian 16 at Mon Dec 14 18:55:13 2020.

 --------------------------------------------------------------------
 #N Geom=AllCheck Guess=TCheck SCRF=Check GenChk RB3LYP/6-31G(d) Freq
 --------------------------------------------------------------------

 Structure from the checkpoint file:  "JID_9966.chk"
 ------------------------------
 CID_63174495_JID_9966_neutraal
 ------------------------------
 Charge =  0 Multiplicity = 1

 SCF Done:  E(RB3LYP) =  -805.093623632     A.U. after    1 cycles

  Exact polarizability: 220.281  12.180 185.410  -2.892  15.279 136.832
 Approx polarizability: 294.146   7.791 286.622  -6.965  36.592 214.358

                      1                      2                      3
                      A                      A                      A
 Frequencies --     27.7638                32.4132                45.4143
 Red. masses --      4.5636                 4.2090                 3.1488
 Frc consts  --      0.0021                 0.0026                 0.0038
 IR Inten    --      0.0726                 0.7973                 0.1853

                      4                      5                      6
                      A                      A                      A
 Frequencies --     56.2038                84.7241                87.0379
 Red. masses --      3.7717                 3.6037                 3.6421
 Frc consts  --      0.0070                 0.0152                 0.0163
 IR Inten    --      0.3717                 0.5312                 1.2380

                      7                      8                      9
                      A                      A                      A
 Frequencies --    118.8884               159.4516               181.3381
 Red. masses --      4.3357                 2.8141                 2.9936
 Frc consts  --      0.0361                 0.0422                 0.0580
 IR Inten    --      0.3562                 0.2148                 0.7791

                     10                     11                     12
                      A                      A                      A
 Frequencies --    213.4746               238.8683               247.9329
 Red. masses --      2.6383                 2.9962                 2.5596
 Frc consts  --      0.0708                 0.1007                 0.0927
 IR Inten    --      3.0716                 0.4821                 2.6018

                     13                     14                     15
                      A                      A                      A
 Frequencies --    259.6555               273.9003               283.8480
 Red. masses --      1.2145                 1.4879                 2.1527
 Frc consts  --      0.0482                 0.0658                 0.1022
 IR Inten    --      0.1474                 2.1638                 0.0980

                     16                     17                     18
                      A                      A                      A
 Frequencies --    298.5456               325.1605               355.0781
 Red. masses --      2.2846                 2.4403                 3.1368
 Frc consts  --      0.1200                 0.1520                 0.2330
 IR Inten    --      4.2901                 5.2369                 5.1715

                     19                     20                     21
                      A                      A                      A
 Frequencies --    376.2332               392.4676               415.5609
 Red. masses --      3.1543                 2.5345                 2.1425
 Frc consts  --      0.2631                 0.2300                 0.2180
 IR Inten    --      3.8231                 6.6076                 0.6894

                     22                     23                     24
                      A                      A                      A
 Frequencies --    422.8083               436.0958               445.3084
 Red. masses --      3.0638                 2.3448                 2.5351
 Frc consts  --      0.3227                 0.2627                 0.2962
 IR Inten    --      0.1856                 3.0134                 4.1659

                     25                     26                     27
                      A                      A                      A
 Frequencies --    529.9914               536.4476               575.3559
 Red. masses --      3.7285                 3.8076                 2.8130
 Frc consts  --      0.6171                 0.6456                 0.5486
 IR Inten    --      2.7400                 6.5666                 8.7499

                     28                     29                     30
                      A                      A                      A
 Frequencies --    605.0370               635.4223               660.9187
 Red. masses --      3.3646                 6.3366                 3.5041
 Frc consts  --      0.7257                 1.5074                 0.9018
 IR Inten    --      8.3721                 0.0123                18.3748

                     31                     32                     33
                      A                      A                      A
 Frequencies --    688.5480               717.0996               751.5297
 Red. masses --      3.9739                 1.6103                 3.8850
 Frc consts  --      1.1100                 0.4879                 1.2928
 IR Inten    --      2.5213                28.8524                 6.1934

                     34                     35                     36
                      A                      A                      A
 Frequencies --    784.1509               794.3327               800.6444
 Red. masses --      2.5438                 2.1861                 2.1652
 Frc consts  --      0.9216                 0.8127                 0.8178
 IR Inten    --      7.7623                17.7178                10.4117

                     37                     38                     39
                      A                      A                      A
 Frequencies --    843.1503               868.4840               882.0560
 Red. masses --      1.4776                 1.2491                 1.9410
 Frc consts  --      0.6189                 0.5551                 0.8897
 IR Inten    --     64.3881                 1.4116                 6.6201

                     40                     41                     42
                      A                      A                      A
 Frequencies --    889.0328               934.6481               942.1132
 Red. masses --      1.7744                 2.3883                 1.9549
 Frc consts  --      0.8263                 1.2292                 1.0223
 IR Inten    --      7.3113                 8.9056                14.2539

                     43                     44                     45
                      A                      A                      A
 Frequencies --    945.8915               977.5024               980.3827
 Red. masses --      1.4316                 1.5909                 1.8619
 Frc consts  --      0.7547                 0.8957                 1.0544
 IR Inten    --      7.1975                 1.0192                 7.7878

                     46                     47                     48
                      A                      A                      A
 Frequencies --    996.7310               999.7482              1023.1148
 Red. masses --      2.0705                 1.3862                 6.0525
 Frc consts  --      1.2119                 0.8163                 3.7328
 IR Inten    --      2.5679                 1.9447                 0.3356

                     49                     50                     51
                      A                      A                      A
 Frequencies --   1038.2643              1059.3236              1080.1195
 Red. masses --      2.5465                 2.1988                 2.3086
 Frc consts  --      1.6174                 1.4537                 1.5869
 IR Inten    --      3.1350                 8.7986                30.5207

                     52                     53                     54
                      A                      A                      A
 Frequencies --   1086.3824              1091.6114              1097.0594
 Red. masses --      1.5170                 1.7063                 1.8926
 Frc consts  --      1.0549                 1.1980                 1.3420
 IR Inten    --      6.3087                17.5159                23.7927

                     55                     56                     57
                      A                      A                      A
 Frequencies --   1112.0486              1126.6693              1131.1609
 Red. masses --      1.5591                 2.1496                 1.2587
 Frc consts  --      1.1360                 1.6077                 0.9489
 IR Inten    --     11.8372                62.7195                 9.7302

                     58                     59                     60
                      A                      A                      A
 Frequencies --   1166.2815              1181.0935              1193.2936
 Red. masses --      2.3124                 2.3291                 1.1081
 Frc consts  --      1.8532                 1.9142                 0.9296
 IR Inten    --     46.6424                 7.3408                 1.0159

                     61                     62                     63
                      A                      A                      A
 Frequencies --   1197.4813              1198.9163              1205.0112
 Red. masses --      1.4839                 1.6328                 1.7916
 Frc consts  --      1.2537                 1.3828                 1.5328
 IR Inten    --     15.2376                36.3284                 7.7706

                     64                     65                     66
                      A                      A                      A
 Frequencies --   1213.3590              1256.4050              1263.1026
 Red. masses --      1.2685                 2.1632                 1.3241
 Frc consts  --      1.1003                 2.0119                 1.2447
 IR Inten    --     14.6720                 5.8848                 5.4997

                     67                     68                     69
                      A                      A                      A
 Frequencies --   1268.3662              1287.5679              1298.4392
 Red. masses --      1.8751                 1.6373                 1.2706
 Frc consts  --      1.7773                 1.5992                 1.2622
 IR Inten    --     20.6691                17.5634                11.4017

                     70                     71                     72
                      A                      A                      A
 Frequencies --   1328.2036              1335.9791              1343.1250
 Red. masses --      1.6357                 1.7891                 1.6126
 Frc consts  --      1.7001                 1.8814                 1.7140
 IR Inten    --     25.2046                37.1355                20.9788

                     73                     74                     75
                      A                      A                      A
 Frequencies --   1350.3426              1366.2185              1376.5896
 Red. masses --      1.8572                 2.5544                 1.5294
 Frc consts  --      1.9952                 2.8091                 1.7076
 IR Inten    --     15.5830                 0.4920                14.6000

                     76                     77                     78
                      A                      A                      A
 Frequencies --   1383.1950              1404.1421              1411.7039
 Red. masses --      1.3288                 1.3466                 1.3164
 Frc consts  --      1.4979                 1.5642                 1.5458
 IR Inten    --      1.9306                84.6744                26.0141

                     79                     80                     81
                      A                      A                      A
 Frequencies --   1428.4640              1436.8646              1445.5675
 Red. masses --      1.5345                 1.4404                 1.4700
 Frc consts  --      1.8448                 1.7521                 1.8098
 IR Inten    --     13.4324                19.0101                41.4291

                     82                     83                     84
                      A                      A                      A
 Frequencies --   1454.3125              1463.3606              1490.5509
 Red. masses --      2.5188                 1.1573                 1.1363
 Frc consts  --      3.1388                 1.4602                 1.4874
 IR Inten    --    176.6050                 2.3085                 1.6822

                     85                     86                     87
                      A                      A                      A
 Frequencies --   1495.5473              1505.3249              1509.9781
 Red. masses --      2.2187                 1.0493                 1.1014
 Frc consts  --      2.9237                 1.4009                 1.4795
 IR Inten    --     16.4750                10.2376                15.4696

                     88                     89                     90
                      A                      A                      A
 Frequencies --   1516.9721              1521.1794              1531.8481
 Red. masses --      1.0866                 1.0843                 1.0998
 Frc consts  --      1.4732                 1.4783                 1.5205
 IR Inten    --      0.4305                 3.9682                 2.5276

                     91                     92                     93
                      A                      A                      A
 Frequencies --   1534.4602              1539.4618              1546.1136
 Red. masses --      1.0785                 1.1110                 1.1215
 Frc consts  --      1.4962                 1.5513                 1.5795
 IR Inten    --      4.0443                 5.6593                 6.8443

                     94                     95                     96
                      A                      A                      A
 Frequencies --   1547.3240              1555.0802              1558.8717
 Red. masses --      1.9729                 1.0875                 1.0818
 Frc consts  --      2.7831                 1.5495                 1.5489
 IR Inten    --     13.3689                13.9957                 1.9889

                     97                     98                     99
                      A                      A                      A
 Frequencies --   1638.2615              1666.5281              1675.4696
 Red. masses --      5.7081                 5.6910                 8.6484
 Frc consts  --      9.0262                 9.3124                14.3040
 IR Inten    --     19.8164                 6.1241               165.4779

                    100                    101                    102
                      A                      A                      A
 Frequencies --   2899.5892              2927.7990              2934.0376
 Red. masses --      1.0739                 1.0748                 1.0739
 Frc consts  --      5.3197                 5.4282                 5.4468
 IR Inten    --     79.9562                35.0328               107.0410

                    103                    104                    105
                      A                      A                      A
 Frequencies --   2948.9844              2971.0673              2998.9334
 Red. masses --      1.0600                 1.0721                 1.0732
 Frc consts  --      5.4314                 5.5756                 5.6869
 IR Inten    --     70.3484                78.0984                83.5644

                    106                    107                    108
                      A                      A                      A
 Frequencies --   3000.4716              3025.7438              3063.5785
 Red. masses --      1.0468                 1.0679                 1.0712
 Frc consts  --      5.5525                 5.7603                 5.9236
 IR Inten    --    100.4922                53.0350                55.4808

                    109                    110                    111
                      A                      A                      A
 Frequencies --   3067.9858              3071.6825              3078.5474
 Red. masses --      1.0897                 1.0898                 1.0902
 Frc consts  --      6.0429                 6.0582                 6.0875
 IR Inten    --     34.9825                 1.6650                16.7633

                    112                    113                    114
                      A                      A                      A
 Frequencies --   3085.9002              3092.4739              3102.4078
 Red. masses --      1.0877                 1.0934                 1.0982
 Frc consts  --      6.1028                 6.1610                 6.2280
 IR Inten    --     23.0144                32.8523                11.9152

                    115                    116                    117
                      A                      A                      A
 Frequencies --   3104.3154              3107.8575              3166.8608
 Red. masses --      1.0903                 1.1034                 1.0889
 Frc consts  --      6.1905                 6.2792                 6.4345
 IR Inten    --     93.7418                39.4097                 9.0733

                    118                    119                    120
                      A                      A                      A
 Frequencies --   3182.5339              3192.9943              3204.9835
 Red. masses --      1.0851                 1.0891                 1.0932
 Frc consts  --      6.4754                 6.5421                 6.6162
 IR Inten    --      0.0729                15.3969                31.7291

                    121                    122                    123
                      A                      A                      A
 Frequencies --   3214.1192              3225.4888              3458.5045
 Red. masses --      1.0943                 1.0934                 1.0735
 Frc consts  --      6.6603                 6.7022                 7.5653
 IR Inten    --     10.2168                 6.4897                12.6338

 - Thermochemistry -
 -------------------
 Temperature   298.150 Kelvin.  Pressure   1.00000 Atm.
 Atom     1 has atomic number  6 and mass  12.00000

 Molecular mass:   260.20010 amu.
 Principal axes and moments of inertia in atomic units:
                           1         2         3
     Eigenvalues --  2957.333607976.161029422.00373
           X            0.99998   0.00051   0.00552
           Y           -0.00047   0.99997  -0.00753
           Z           -0.00552   0.00753   0.99996
 This molecule is an asymmetric top.
 Rotational symmetry number  1.
 Warning -- assumption of classical behavior for rotation
           may cause significant error
 Rotational temperatures (Kelvin)      0.02929     0.01086     0.00919
 Rotational constants (GHZ):           0.61026     0.22627     0.19155
 Zero-point vibrational energy    1005942.0 (Joules/Mol)
                                  240.42590 (Kcal/Mol)
 Warning -- explicit consideration of  28 degrees of freedom as
           vibrations may cause significant error
 Vibrational temperatures:     39.95    46.64    65.34    80.86   121.90
          (Kelvin)            125.23   171.05   229.42   260.91   307.14
                              343.68   356.72   373.59   394.08   408.39
                              429.54   467.83   510.88   541.32   564.67
                              597.90   608.33   627.44   640.70   762.54
                              771.83   827.81   870.51   914.23   950.91
                              990.67  1031.75  1081.28  1128.22  1142.87
                             1151.95  1213.11  1249.55  1269.08  1279.12
                             1344.75  1355.49  1360.93  1406.41  1410.55
                             1434.07  1438.41  1472.03  1493.83  1524.13
                             1554.05  1563.06  1570.59  1578.42  1599.99
                             1621.03  1627.49  1678.02  1699.33  1716.88
                             1722.91  1724.97  1733.74  1745.75  1807.69
                             1817.32  1824.90  1852.52  1868.16  1910.99
                             1922.18  1932.46  1942.84  1965.68  1980.61
                             1990.11  2020.25  2031.13  2055.24  2067.33
                             2079.85  2092.43  2105.45  2144.57  2151.76
                             2165.83  2172.52  2182.58  2188.64  2203.99
                             2207.75  2214.94  2224.51  2226.25  2237.41
                             2242.87  2357.09  2397.76  2410.63  4171.86
                             4212.45  4221.43  4242.93  4274.70  4314.80
                             4317.01  4353.37  4407.81  4414.15  4419.47
                             4429.34  4439.92  4449.38  4463.67  4466.42
                             4471.51  4556.41  4578.96  4594.01  4611.26
                             4624.40  4640.76  4976.02

 Zero-point correction=                           0.383143 (Hartree/Particle)
 Thermal correction to Energy=                    0.401399
 Thermal correction to Enthalpy=                  0.402343
 Thermal correction to Gibbs Free Energy=         0.335833
 Sum of electronic and zero-point Energies=           -804.710481
 Sum of electronic and thermal Energies=              -804.692225
 Sum of electronic and thermal Enthalpies=            -804.691280
 Sum of electronic and thermal Free Energies=         -804.757791

                     E (Thermal)             CV                S
                      KCal/Mol        Cal/Mol-Kelvin    Cal/Mol-Kelvin
 Total                  251.882             71.043            139.983
 Electronic               0.000              0.000              0.000
 Translational            0.889              2.981             42.568
 Rotational               0.889              2.981             33.763
 Vibrational            250.104             65.081             63.652
 Vibration     1          0.593              1.984              5.983
 Vibration     2          0.594              1.983              5.676
 Vibration     3          0.595              1.979              5.008
 Vibration     4          0.596              1.975              4.586
 Vibration     5          0.601              1.960              3.778
 Vibration     6          0.601              1.958              3.726
 Vibration     7          0.609              1.934              3.118
 Vibration     8          0.621              1.892              2.556
 Vibration     9          0.630              1.865              2.315
 Vibration    10          0.644              1.820              2.014
 Vibration    11          0.657              1.781              1.811
 Vibration    12          0.662              1.766              1.745
 Vibration    13          0.668              1.746              1.664
 Vibration    14          0.676              1.722              1.571
 Vibration    15          0.682              1.704              1.510
 Vibration    16          0.692              1.676              1.425
 Vibration    17          0.709              1.625              1.284
 Vibration    18          0.731              1.565              1.144
 Vibration    19          0.747              1.521              1.054
 Vibration    20          0.760              1.486              0.991
 Vibration    21          0.779              1.436              0.907
 Vibration    22          0.785              1.421              0.882
 Vibration    23          0.797              1.392              0.839
 Vibration    24          0.805              1.371              0.810
 Vibration    25          0.885              1.184              0.587
 Vibration    26          0.891              1.169              0.573
 Vibration    27          0.932              1.085              0.494
 Vibration    28          0.964              1.021              0.441

 Optimization completed.
    -- Stationary point found.
 Normal termination of Gaussian 16 at Mon Dec 14 19:17:29 2020.

 ----------------------------------------------------------------------
 # B3LYP/6-311++G(d,p) empiricaldispersion=gd3bj scf=xqc pop=npa geom=c
 heck
 ----------------------------------------------------------------------

 --------------------------------------
 CID_63174495_JID_9966_Energie_neutraal
 --------------------------------------
 Structure from the checkpoint file:  "JID_9966.chk"
 Charge =  0 Multiplicity = 1

 SCF Done:  E(RB3LYP) =  -805.311539454     A.U. after   15 cycles
 Normal termination of Gaussian 16 at Mon Dec 14 19:26:50 2020.

 ----------------------------------------------------------------------
 # B3LYP/6-311++G(d,p) empiricaldispersion=gd3bj scf=xqc pop=npa geom=c
 heck
 ----------------------------------------------------------------------

 ------------------------------------
 CID_63174495_JID_9966_Energie_kation
 ------------------------------------
 Structure from the checkpoint file:  "JID_9966.chk"
 Charge =  1 Multiplicity = 2

 SCF Done:  E(UB3LYP) =  -805.046488139     A.U. after   25 cycles
 Normal termination of Gaussian 16 at Mon Dec 14 19:47:37 2020.
 Gaussian 16:  ES64L-G16RevA.03 25-Dec-2016

 ----------------------------------------------------------------------
 # B3LYP/6-311++G(d,p) empiricaldispersion=gd3bj scf=xqc pop=npa geom=c
 heck
 ----------------------------------------------------------------------

 -----------------------------------
 CID_63174495_JID_9966_Energie_anion
 -----------------------------------
 Structure from the checkpoint file:  "JID_9966.chk"
 Charge = -1 Multiplicity = 2

                         Standard orientation:
 ---------------------------------------------------------------------
 Center     Atomic      Atomic             Coordinates (Angstroms)
 Number     Number       Type             X           Y           Z
 ---------------------------------------------------------------------
      1          6           0       -1.941367    2.066096   -0.791035
      2          7           0       -3.339284    1.792092   -0.489448
      3          6           0       -4.039954    1.207906   -1.617333
      4          6           0       -3.591097    1.119138    0.778193
      5          6           0       -3.346830   -0.400476    0.843454
      6          7           0       -1.976546   -0.784781    0.544964
      7          6           0       -1.796144   -2.185284    0.198457
      8          6           0       -0.461463   -2.354172   -0.551085
      9          7           0        0.523798   -1.427340   -0.011592
     10          6           0        0.312899   -1.113913    1.395387
     11          6           0       -1.021411   -0.369075    1.572137
     12          6           0        1.750141   -1.297286   -0.650101
     13          7           0        2.190567   -2.044127   -1.602274
     14          6           0        2.581449   -0.120378   -0.253289
     15          6           0        2.000856    1.131934   -0.010174
     16          6           0        2.799142    2.229682    0.307549
     17          6           0        4.185242    2.086246    0.388366
     18          6           0        4.769855    0.843118    0.136426
     19          6           0        3.973102   -0.252630   -0.188719
     20          1           0       -1.889258    2.757151   -1.641252
     21          1           0       -1.353930    1.166342   -1.034058
     22          1           0       -1.475486    2.563582    0.067431
     23          1           0       -3.633844    0.231892   -1.943910
     24          1           0       -5.097894    1.070023   -1.364504
     25          1           0       -3.983605    1.890826   -2.472967
     26          1           0       -3.002147    1.629250    1.549353
     27          1           0       -4.646888    1.277234    1.042546
     28          1           0       -3.672923   -0.759833    1.842430
     29          1           0       -3.995181   -0.891721    0.109554
     30          1           0       -1.831391   -2.849958    1.083339
     31          1           0       -2.612160   -2.498297   -0.459501
     32          1           0       -0.595551   -2.119668   -1.612780
     33          1           0       -0.129534   -3.404507   -0.476119
     34          1           0        1.139894   -0.510713    1.766483
     35          1           0        0.307752   -2.045574    1.982439
     36          1           0       -0.858316    0.709989    1.488425
     37          1           0       -1.407345   -0.565502    2.591605
     38          1           0        1.569203   -2.838648   -1.771987
     39          1           0        0.924611    1.244802   -0.096288
     40          1           0        2.339458    3.198345    0.483644
     41          1           0        4.807658    2.940584    0.639771
     42          1           0        5.848910    0.728746    0.190965
     43          1           0        4.411696   -1.220683   -0.405561
 ---------------------------------------------------------------------

 SCF Done:  E(UB3LYP) =  -805.302179510     A.U. after   33 cycles
 SCF Done:  E(UB3LYP) =  -805.302179510     a.u. after    1 cycles

 The electronic state is 2-A.
 Alpha  occ. eigenvalues --  -14.23176 -14.21101 -14.20685 -14.16531 -10.13229
 Alpha  occ. eigenvalues --  -10.10996 -10.10827 -10.10319 -10.10236 -10.09830
 Alpha  occ. eigenvalues --  -10.09583 -10.08936 -10.08657 -10.07752 -10.07670
 Alpha  occ. eigenvalues --  -10.07541 -10.07378 -10.07306 -10.07194  -0.87510
 Alpha  occ. eigenvalues --   -0.83693  -0.81855  -0.76765  -0.75137  -0.67914
 Alpha  occ. eigenvalues --   -0.66123  -0.65313  -0.64843  -0.60996  -0.60727
 Alpha  occ. eigenvalues --   -0.56330  -0.55236  -0.52436  -0.50975  -0.48700
 Alpha  occ. eigenvalues --   -0.47624  -0.44237  -0.43132  -0.41398  -0.40542
 Alpha  occ. eigenvalues --   -0.39685  -0.38661  -0.37867  -0.36237  -0.36060
 Alpha  occ. eigenvalues --   -0.35134  -0.34628  -0.33245  -0.32745  -0.32285
 Alpha  occ. eigenvalues --   -0.31664  -0.31039  -0.30887  -0.29583  -0.28939
 Alpha  occ. eigenvalues --   -0.28117  -0.27442  -0.27142  -0.26834  -0.26122
 Alpha  occ. eigenvalues --   -0.25958  -0.24774  -0.24732  -0.23971  -0.22645
 Alpha  occ. eigenvalues --   -0.16601  -0.15828  -0.15266  -0.13625  -0.12189
 Alpha  occ. eigenvalues --   -0.10668   0.04163
 Alpha virt. eigenvalues --    0.05697   0.06531   0.06684   0.07175   0.07799
 Alpha virt. eigenvalues --    0.08203   0.08487   0.08949   0.09227   0.09577
 Alpha virt. eigenvalues --    0.10003   0.10498   0.11231   0.11786   0.12028

  Beta  occ. eigenvalues --  -14.23180 -14.21082 -14.20684 -14.16430 -10.13184
  Beta  occ. eigenvalues --  -10.10976 -10.10816 -10.10290 -10.10225 -10.09818
  Beta  occ. eigenvalues --  -10.09559 -10.08908 -10.08647 -10.07761 -10.07664
  Beta  occ. eigenvalues --  -10.07450 -10.07256 -10.07253 -10.07167  -0.87460
  Beta  occ. eigenvalues --   -0.83651  -0.81827  -0.76632  -0.74997  -0.67858
  Beta  occ. eigenvalues --   -0.66067  -0.65137  -0.64734  -0.60962  -0.60673
  Beta  occ. eigenvalues --   -0.56269  -0.55152  -0.52265  -0.50923  -0.48614
  Beta  occ. eigenvalues --   -0.47556  -0.44166  -0.43073  -0.41354  -0.40475
  Beta  occ. eigenvalues --   -0.39628  -0.38627  -0.37838  -0.36199  -0.35991
  Beta  occ. eigenvalues --   -0.35062  -0.34555  -0.33216  -0.32710  -0.32240
  Beta  occ. eigenvalues --   -0.31631  -0.30973  -0.30810  -0.29548  -0.28896
  Beta  occ. eigenvalues --   -0.28077  -0.27171  -0.27103  -0.26788  -0.26065
  Beta  occ. eigenvalues --   -0.25902  -0.24712  -0.24670  -0.23934  -0.22309
  Beta  occ. eigenvalues --   -0.16431  -0.15536  -0.14773  -0.13487  -0.11978
  Beta  occ. eigenvalues --   -0.10604
  Beta virt. eigenvalues --    0.06190   0.06733   0.07042   0.07245   0.07583
  Beta virt. eigenvalues --    0.07994   0.08291   0.08707   0.09104   0.09630
  Beta virt. eigenvalues --    0.09829   0.10193   0.10624   0.11359   0.11936

 Mulliken charges and spin densities:
               1          2
     1  C   -0.562441  -0.107753
     2  N    0.091939   0.090323
     3  C    0.576278  -0.889549
     4  C   -0.257027  -0.307191
     5  C   -0.201569  -0.000502
     6  N    0.169458   0.128636
     7  C    1.144987  -1.623467
     8  C   -0.775754   0.562281
     9  N    0.146659   0.042427
    10  C    0.208637  -0.789625
    11  C   -0.227372  -0.063812
    12  C   -0.890153  -0.269981
    13  N   -0.276908   0.056677
    14  C    0.979948   0.411189
    15  C   -0.241956   0.031597
    16  C   -0.006003  -0.204720
    17  C   -0.202129  -0.011883
    18  C   -0.309450  -0.015804
    19  C   -0.147408   0.201227
    20  H    0.066721   0.064094
    21  H    0.201949   0.020392
    22  H    0.131345   0.056502
    23  H   -0.021163   0.151021
    24  H   -0.304814   0.447162
    25  H    0.036237   0.094445
    26  H    0.002787   0.112869
    27  H   -0.200930   0.386765
    28  H   -0.297414   0.400345
    29  H   -0.095715   0.231012
    30  H   -0.012500   0.161645
    31  H   -0.475326   0.651862
    32  H    0.129583   0.044193
    33  H   -0.019186   0.169988
    34  H    0.155009   0.008532
    35  H   -0.189424   0.375399
    36  H    0.197131  -0.082773
    37  H   -0.177024   0.309721
    38  H    0.177313   0.029812
    39  H    0.092953  -0.107706
    40  H   -0.000541   0.156357
    41  H    0.087757   0.041320
    42  H    0.109985   0.029780
    43  H    0.185530   0.007196
 Sum of Mulliken charges =  -1.00000   1.00000

 Dipole moment (field-independent basis, Debye):
    X=              3.8247    Y=              2.3034    Z=              1.5083  Tot=              4.7127
 Quadrupole moment (field-independent basis, Debye-Ang):
   XX=           -204.5725   YY=           -158.2512   ZZ=           -155.0893
   XY=             -1.2669   XZ=              5.8668   YZ=              1.8078

 Summary of Natural Population Analysis:

                                       Natural Population
                Natural  -----------------------------------------------
    Atom  No    Charge         Core      Valence    Rydberg      Total
 -----------------------------------------------------------------------
      C    1   -0.17648      0.99964     2.16993    0.00692     3.17648
      N    2   -0.28140      0.99974     2.76798    0.01368     3.78140
      C    3   -0.17884      0.99965     2.17005    0.00915     3.17884
      C    4   -0.08380      0.99960     2.07158    0.01261     3.08380
      C    5   -0.09026      0.99961     2.07854    0.01212     3.09026
      N    6   -0.28795      0.99970     2.77417    0.01408     3.78795
      C    7   -0.08599      0.99961     2.07477    0.01160     3.08599
      C    8   -0.08628      0.99961     2.07392    0.01275     3.08628
      N    9   -0.26326      0.99963     2.75311    0.01052     3.76326
      C   10   -0.08791      0.99961     2.07849    0.00981     3.08791
      C   11   -0.08399      0.99961     2.07408    0.01029     3.08399
      C   12    0.23397      0.99958     1.75009    0.01636     2.76603
      N   13   -0.34820      0.99972     2.84077    0.00771     3.84820
      C   14   -0.02989      0.99946     2.02019    0.01024     3.02989
      C   15   -0.09105      0.99952     2.08223    0.00930     3.09105
      C   16   -0.10829      0.99957     2.09948    0.00924     3.10829
      C   17   -0.08451      0.99957     2.07486    0.01009     3.08451
      C   18   -0.10810      0.99957     2.09848    0.01005     3.10810
      C   19   -0.07976      0.99953     2.07184    0.00839     3.07976
      H   20    0.09039      0.00000     0.40864    0.00097     0.40961
      H   21    0.09215      0.00000     0.40590    0.00195     0.40785
      H   22    0.09049      0.00000     0.40840    0.00111     0.40951
      H   23    0.08358      0.00000     0.41499    0.00144     0.41642
      H   24    0.09508      0.00000     0.40384    0.00108     0.40492
      H   25    0.09261      0.00000     0.40638    0.00101     0.40739
      H   26    0.09277      0.00000     0.40606    0.00117     0.40723
      H   27    0.09489      0.00000     0.40395    0.00116     0.40511
      H   28    0.08212      0.00000     0.41592    0.00196     0.41788
      H   29    0.09827      0.00000     0.39989    0.00184     0.40173
      H   30    0.08160      0.00000     0.41633    0.00207     0.41840
      H   31    0.10472      0.00000     0.39362    0.00166     0.39528
      H   32    0.09998      0.00000     0.39850    0.00152     0.40002
      H   33    0.08690      0.00000     0.41169    0.00141     0.41310
      H   34    0.11208      0.00000     0.38689    0.00102     0.38792
      H   35    0.08938      0.00000     0.40931    0.00131     0.41062
      H   36    0.09329      0.00000     0.40498    0.00173     0.40671
      H   37    0.08374      0.00000     0.41490    0.00136     0.41626
      H   38    0.15838      0.00000     0.33943    0.00218     0.34162
      H   39    0.10364      0.00000     0.39429    0.00207     0.39636
      H   40    0.09809      0.00000     0.40100    0.00092     0.40191
      H   41    0.09478      0.00000     0.40446    0.00077     0.40522
      H   42    0.09597      0.00000     0.40323    0.00079     0.40403
      H   43    0.10709      0.00000     0.39162    0.00129     0.39291
 =======================================================================
   * Total *   -0.00000     18.99253    51.76877    0.23870    71.00000

 Normal termination of Gaussian 16 at Mon Dec 14 20:15:26 2020.
