 Gaussian 16, Revision A.03,

 -----------------------------------------------------------
 # opt freq B3LYP/6-31G(d) empiricaldispersion=gd3bj scf=xqc
 -----------------------------------------------------------

 -----------------------------
 CID_21392207_JID_455_neutraal
 -----------------------------
 Symbolic Z-matrix:
 Charge =  0 Multiplicity = 1

 SCF Done:  E(RB3LYP) =  -462.529546095     A.U. after   15 cycles
 SCF Done:  E(RB3LYP) =  -462.530879729     A.U. after   13 cycles
 SCF Done:  E(RB3LYP) =  -462.531338465     A.U. after   13 cycles
 SCF Done:  E(RB3LYP) =  -462.532589898     A.U. after   12 cycles
 SCF Done:  E(RB3LYP) =  -462.532799226     A.U. after   12 cycles
 SCF Done:  E(RB3LYP) =  -462.532874944     A.U. after   13 cycles
 SCF Done:  E(RB3LYP) =  -462.532976932     A.U. after   11 cycles
 SCF Done:  E(RB3LYP) =  -462.533018907     A.U. after   12 cycles
 SCF Done:  E(RB3LYP) =  -462.533021550     A.U. after   10 cycles
 SCF Done:  E(RB3LYP) =  -462.533022144     A.U. after    9 cycles
 SCF Done:  E(RB3LYP) =  -462.533022269     A.U. after    8 cycles
 SCF Done:  E(RB3LYP) =  -462.533022323     A.U. after    8 cycles
 Optimization completed.
    -- Stationary point found.

 1\1\GINC-NODE361\FOpt\RB3LYP\6-31G(d)\C8H12O2\VSC10255\08-Dec-2020\0\\
 # opt freq B3LYP/6-31G(d) empiricaldispersion=gd3bj scf=xqc\\CID_21392
 207_JID_455_neutraal\\0,1\C,0.9203111133,0.0727292996,0.0177967777\C,0
 .4214982995,0.7561776117,1.267834563\C,-0.6099146217,1.6223487613,1.23
 55233616\C,-1.2635734017,2.4010478816,2.3437014132\C,-0.5859275914,3.7
 756056458,2.5908672908\C,-0.5599798926,4.6552952467,1.373234954\C,-1.2
 108532366,5.812483105,1.2542754358\C,1.1658545309,0.3498758924,2.48740
 00449\O,1.9993379234,-0.5360676732,2.5011123997\O,0.8745202212,1.05383

 Normal termination of Gaussian 16 at Tue Dec  8 10:44:31 2020.

 --------------------------------------------------------------------
 #N Geom=AllCheck Guess=TCheck SCRF=Check GenChk RB3LYP/6-31G(d) Freq
 --------------------------------------------------------------------

 Structure from the checkpoint file:  "JID_455.chk"
 -----------------------------
 CID_21392207_JID_455_neutraal
 -----------------------------
 Charge =  0 Multiplicity = 1

 SCF Done:  E(RB3LYP) =  -462.533022323     A.U. after    1 cycles

  Exact polarizability: 131.862   0.422  83.465  11.690  -3.145  59.511
 Approx polarizability: 188.790   2.759 114.130  27.585  -3.270  89.226

                      1                      2                      3
                      A                      A                      A
 Frequencies --     32.1124                59.5670                66.5985
 Red. masses --      6.8450                 3.3885                 4.3583
 Frc consts  --      0.0042                 0.0071                 0.0114
 IR Inten    --      1.2897                 0.2679                 0.2394

                      4                      5                      6
                      A                      A                      A
 Frequencies --    102.8836               135.9760               176.9552
 Red. masses --      2.6564                 2.6024                 1.0793
 Frc consts  --      0.0166                 0.0283                 0.0199
 IR Inten    --      0.2429                 0.2612                 0.1659

                      7                      8                      9
                      A                      A                      A
 Frequencies --    245.5146               288.1658               325.7155
 Red. masses --      3.2127                 3.7399                 2.8718
 Frc consts  --      0.1141                 0.1830                 0.1795
 IR Inten    --      0.9152                 2.4371                 2.7247

                     10                     11                     12
                      A                      A                      A
 Frequencies --    352.0474               381.8584               420.2558
 Red. masses --      2.2478                 2.5111                 2.8400
 Frc consts  --      0.1641                 0.2157                 0.2955
 IR Inten    --      1.2493                 4.3304                 5.7180

                     13                     14                     15
                      A                      A                      A
 Frequencies --    481.9882               564.2174               595.6328
 Red. masses --      1.9896                 4.3279                 3.2001
 Frc consts  --      0.2723                 0.8117                 0.6689
 IR Inten    --      4.2609                19.8415                10.3448

                     16                     17                     18
                      A                      A                      A
 Frequencies --    626.7627               674.0098               744.6254
 Red. masses --      1.2305                 1.6401                 2.9530
 Frc consts  --      0.2848                 0.4390                 0.9647
 IR Inten    --     69.7776                17.9879                28.6418

                     19                     20                     21
                      A                      A                      A
 Frequencies --    782.5130               835.3469               878.2781
 Red. masses --      4.3037                 1.8378                 2.0383
 Frc consts  --      1.5526                 0.7556                 0.9264
 IR Inten    --     20.0219                11.4343                 0.0700

                     22                     23                     24
                      A                      A                      A
 Frequencies --    927.7973               939.7605               977.0282
 Red. masses --      1.5432                 1.3522                 1.5286
 Frc consts  --      0.7827                 0.7036                 0.8597
 IR Inten    --     19.6808                33.1752                 8.6702

                     25                     26                     27
                      A                      A                      A
 Frequencies --   1003.3120              1039.8538              1060.8664
 Red. masses --      1.9116                 1.1194                 1.6511
 Frc consts  --      1.1337                 0.7131                 1.0948
 IR Inten    --      4.4503                 9.1222                 4.0255

                     28                     29                     30
                      A                      A                      A
 Frequencies --   1088.0665              1104.0721              1141.0633
 Red. masses --      1.4865                 3.9336                 2.4860
 Frc consts  --      1.0369                 2.8251                 1.9071
 IR Inten    --      3.1514                43.8153                73.4311

                     31                     32                     33
                      A                      A                      A
 Frequencies --   1145.2351              1205.4211              1263.7161
 Red. masses --      1.7299                 1.5507                 1.5428
 Frc consts  --      1.3368                 1.3276                 1.4517
 IR Inten    --      8.3104                94.3298                23.7303

                     34                     35                     36
                      A                      A                      A
 Frequencies --   1281.5837              1332.2947              1350.7655
 Red. masses --      1.3441                 1.2316                 1.4665
 Frc consts  --      1.3007                 1.2881                 1.5765
 IR Inten    --      3.5835                 0.9179                 8.9152

                     37                     38                     39
                      A                      A                      A
 Frequencies --   1357.7563              1382.0513              1440.4086
 Red. masses --      1.2551                 1.4161                 1.9882
 Frc consts  --      1.3632                 1.5936                 2.4304
 IR Inten    --      1.3217                 6.3560                32.6827

                     40                     41                     42
                      A                      A                      A
 Frequencies --   1447.7692              1476.5542              1503.6290
 Red. masses --      1.2791                 1.1808                 1.0447
 Frc consts  --      1.5797                 1.5168                 1.3917
 IR Inten    --      0.8779                 2.3623                 5.6431

                     43                     44                     45
                      A                      A                      A
 Frequencies --   1517.2935              1521.5273              1525.6657
 Red. masses --      1.1143                 1.0625                 1.1111
 Frc consts  --      1.5114                 1.4493                 1.5237
 IR Inten    --      7.8719                 9.6836                 2.8945

                     46                     47                     48
                      A                      A                      A
 Frequencies --   1717.6983              1735.8037              1807.9941
 Red. masses --      6.8024                 4.5069                 9.2914
 Frc consts  --     11.8252                 8.0007                17.8947
 IR Inten    --      6.0515                 6.7997               392.9519

                     49                     50                     51
                      A                      A                      A
 Frequencies --   3048.4017              3057.6914              3060.7251
 Red. masses --      1.0588                 1.0358                 1.0699
 Frc consts  --      5.7973                 5.7057                 5.9052
 IR Inten    --     23.8591                18.7863                19.7537

                     52                     53                     54
                      A                      A                      A
 Frequencies --   3093.7131              3113.8277              3136.7417
 Red. masses --      1.1019                 1.1003                 1.0944
 Frc consts  --      6.2137                 6.2857                 6.3446
 IR Inten    --     28.0588                13.7949                 4.1124

                     55                     56                     57
                      A                      A                      A
 Frequencies --   3141.1914              3145.4308              3154.0364
 Red. masses --      1.0992                 1.0790                 1.0871
 Frc consts  --      6.3902                 6.2897                 6.3717
 IR Inten    --      8.0233                25.1894                25.8820

                     58                     59                     60
                      A                      A                      A
 Frequencies --   3156.5109              3234.2559              3684.9515
 Red. masses --      1.0762                 1.1155                 1.0640
 Frc consts  --      6.3176                 6.8747                 8.5125
 IR Inten    --     11.0316                21.0885                59.6029

 - Thermochemistry -
 -------------------
 Temperature   298.150 Kelvin.  Pressure   1.00000 Atm.
 Atom     1 has atomic number  6 and mass  12.00000

 Molecular mass:   140.08373 amu.
 Principal axes and moments of inertia in atomic units:
                           1         2         3
     Eigenvalues --   729.182422689.425563092.17446
           X            0.99986  -0.01674  -0.00116
           Y            0.01671   0.99968  -0.01914
           Z            0.00148   0.01912   0.99982
 This molecule is an asymmetric top.
 Rotational symmetry number  1.
 Warning -- assumption of classical behavior for rotation
           may cause significant error
 Rotational temperatures (Kelvin)      0.11878     0.03221     0.02801
 Rotational constants (GHZ):           2.47502     0.67105     0.58365
 Zero-point vibrational energy     491028.1 (Joules/Mol)
                                  117.35854 (Kcal/Mol)
 Warning -- explicit consideration of  15 degrees of freedom as
           vibrations may cause significant error
 Vibrational temperatures:     46.20    85.70    95.82   148.03   195.64
          (Kelvin)            254.60   353.24   414.61   468.63   506.52
                              549.41   604.65   693.47   811.78   856.98
                              901.77   969.75  1071.35  1125.86  1201.88
                             1263.65  1334.89  1352.11  1405.73  1443.54
                             1496.12  1526.35  1565.48  1588.51  1641.74
                             1647.74  1734.33  1818.21  1843.91  1916.87
                             1943.45  1953.51  1988.46  2072.43  2083.02
                             2124.43  2163.39  2183.05  2189.14  2195.09
                             2471.38  2497.43  2601.30  4385.97  4399.34
                             4403.70  4451.16  4480.10  4513.07  4519.47
                             4525.57  4537.95  4541.52  4653.37  5301.82

 Zero-point correction=                           0.187023 (Hartree/Particle)
 Thermal correction to Energy=                    0.198233
 Thermal correction to Enthalpy=                  0.199177
 Thermal correction to Gibbs Free Energy=         0.148863
 Sum of electronic and zero-point Energies=           -462.346000
 Sum of electronic and thermal Energies=              -462.334789
 Sum of electronic and thermal Enthalpies=            -462.333845
 Sum of electronic and thermal Free Energies=         -462.384160

                     E (Thermal)             CV                S
                      KCal/Mol        Cal/Mol-Kelvin    Cal/Mol-Kelvin
 Total                  124.393             40.117            105.896
 Electronic               0.000              0.000              0.000
 Translational            0.889              2.981             40.723
 Rotational               0.889              2.981             30.184
 Vibrational            122.616             34.156             34.989
 Vibration     1          0.594              1.983              5.694
 Vibration     2          0.597              1.974              4.471
 Vibration     3          0.598              1.970              4.251
 Vibration     4          0.605              1.947              3.399
 Vibration     5          0.614              1.917              2.860
 Vibration     6          0.628              1.871              2.360
 Vibration     7          0.660              1.770              1.763
 Vibration     8          0.685              1.696              1.485
 Vibration     9          0.710              1.624              1.281
 Vibration    10          0.729              1.571              1.157
 Vibration    11          0.751              1.509              1.032
 Vibration    12          0.783              1.426              0.891
 Vibration    13          0.838              1.290              0.705
 Vibration    14          0.920              1.109              0.515
 Vibration    15          0.953              1.041              0.457

 Optimization completed.
    -- Stationary point found.

 1\1\GINC-NODE361\Freq\RB3LYP\6-31G(d)\C8H12O2\VSC10255\08-Dec-2020\0\\
 #N Geom=AllCheck Guess=TCheck SCRF=Check GenChk RB3LYP/6-31G(d) Freq\\
 CID_21392207_JID_455_neutraal\\0,1\C,0.9203111133,0.0727292996,0.01779
 67777\C,0.4214982995,0.7561776117,1.267834563\C,-0.6099146217,1.622348
 7613,1.2355233616\C,-1.2635734017,2.4010478816,2.3437014132\C,-0.58592
 75914,3.7756056458,2.5908672908\C,-0.5599798926,4.6552952467,1.3732349
 54\C,-1.2108532366,5.812483105,1.2542754358\C,1.1658545309,0.349875892
 4,2.4874000449\O,1.9993379234,-0.5360676732,2.5011123997\O,0.874520221

 Normal termination of Gaussian 16 at Tue Dec  8 10:48:45 2020.

 ----------------------------------------------------------------------
 # B3LYP/6-311++G(d,p) empiricaldispersion=gd3bj scf=xqc pop=npa geom=c
 heck
 ----------------------------------------------------------------------

 -------------------------------------
 CID_21392207_JID_455_Energie_neutraal
 -------------------------------------
 Structure from the checkpoint file:  "JID_455.chk"
 Charge =  0 Multiplicity = 1

 SCF Done:  E(RB3LYP) =  -462.676925286     A.U. after   14 cycles
 Normal termination of Gaussian 16 at Tue Dec  8 10:51:00 2020.

 ----------------------------------------------------------------------
 # B3LYP/6-311++G(d,p) empiricaldispersion=gd3bj scf=xqc pop=npa geom=c
 heck
 ----------------------------------------------------------------------

 -----------------------------------
 CID_21392207_JID_455_Energie_kation
 -----------------------------------
 Structure from the checkpoint file:  "JID_455.chk"
 Charge =  1 Multiplicity = 2

 SCF Done:  E(UB3LYP) =  -462.348360849     A.U. after   23 cycles
 Normal termination of Gaussian 16 at Tue Dec  8 10:56:06 2020.
 Gaussian 16:  ES64L-G16RevA.03 25-Dec-2016

 ----------------------------------
 CID_21392207_JID_455_Energie_anion
 ----------------------------------
 Structure from the checkpoint file:  "JID_455.chk"
 Charge = -1 Multiplicity = 2

                         Standard orientation:
 ---------------------------------------------------------------------
 Center     Atomic      Atomic             Coordinates (Angstroms)
 Number     Number       Type             X           Y           Z
 ---------------------------------------------------------------------
      1          6           0       -1.979503    1.972559   -0.105835
      2          6           0       -1.218190    0.703181    0.190123
      3          6           0        0.008957    0.728837    0.745606
      4          6           0        0.930798   -0.397335    1.124614
      5          6           0        1.861465   -0.828060   -0.040735
      6          6           0        2.709669    0.292442   -0.571943
      7          6           0        4.039123    0.346865   -0.491555
      8          6           0       -1.973288   -0.523772   -0.171679
      9          8           0       -3.131665   -0.514053   -0.542955
     10          8           0       -1.276440   -1.690523   -0.084254
     11          1           0       -1.393990    2.852307    0.174929
     12          1           0       -2.930420    1.992226    0.437271
     13          1           0       -2.231013    2.042215   -1.170100
     14          1           0        0.411349    1.724178    0.934523
     15          1           0        1.556753   -0.061702    1.959868
     16          1           0        0.365576   -1.270829    1.452930
     17          1           0        2.503673   -1.644890    0.310267
     18          1           0        1.226955   -1.231126   -0.839742
     19          1           0        2.172299    1.115425   -1.044859
     20          1           0        4.605331    1.185503   -0.887641
     21          1           0        4.614262   -0.452892   -0.028634
     22          1           0       -1.910127   -2.382109   -0.352722
 ---------------------------------------------------------------------

 SCF Done:  E(UB3LYP) =  -462.672037715     A.U. after   33 cycles
 SCF Done:  E(UB3LYP) =  -462.672037715     a.u. after    1 cycles

 The electronic state is 2-A.
 Alpha  occ. eigenvalues --  -19.01488 -18.94125 -10.12318 -10.05487 -10.04461
 Alpha  occ. eigenvalues --  -10.04054 -10.03325 -10.02896 -10.02091 -10.01135
 Alpha  occ. eigenvalues --   -0.95097  -0.85585  -0.68504  -0.65596  -0.60890
 Alpha  occ. eigenvalues --   -0.54626  -0.51285  -0.47523  -0.43207  -0.39952
 Alpha  occ. eigenvalues --   -0.35643  -0.34149  -0.32823  -0.30681  -0.30194
 Alpha  occ. eigenvalues --   -0.29492  -0.27486  -0.26689  -0.25954  -0.25178
 Alpha  occ. eigenvalues --   -0.24132  -0.22645  -0.20513  -0.19049  -0.17414
 Alpha  occ. eigenvalues --   -0.14516  -0.12485  -0.11160   0.05614
 Alpha virt. eigenvalues --    0.07901   0.08914   0.09521   0.10052   0.11047
 Alpha virt. eigenvalues --    0.11425   0.11938   0.12583   0.13134   0.13621
 Alpha virt. eigenvalues --    0.14296   0.15167   0.15831   0.17449   0.18042

  Beta  occ. eigenvalues --  -19.01422 -18.93833 -10.12032 -10.05471 -10.04439
  Beta  occ. eigenvalues --  -10.03983 -10.03359 -10.02904 -10.02002 -10.00714
  Beta  occ. eigenvalues --   -0.94797  -0.85149  -0.68294  -0.65240  -0.60738
  Beta  occ. eigenvalues --   -0.54366  -0.50810  -0.47235  -0.43094  -0.39608
  Beta  occ. eigenvalues --   -0.35522  -0.33878  -0.32641  -0.30312  -0.29402
  Beta  occ. eigenvalues --   -0.29263  -0.27340  -0.26365  -0.25780  -0.24992
  Beta  occ. eigenvalues --   -0.23987  -0.22468  -0.20378  -0.18829  -0.16313
  Beta  occ. eigenvalues --   -0.14388  -0.12152  -0.09486
  Beta virt. eigenvalues --    0.08178   0.09221   0.09501   0.10229   0.11018
  Beta virt. eigenvalues --    0.11278   0.11450   0.12547   0.12784   0.13131
  Beta virt. eigenvalues --    0.13708   0.14378   0.15212   0.15748   0.17397

 Mulliken charges and spin densities:
               1          2
     1  C   -0.711956  -0.026852
     2  C    0.281753  -0.142142
     3  C   -0.321066   0.756880
     4  C    0.169472  -0.559652
     5  C    0.943691  -1.286363
     6  C   -1.730960   1.979163
     7  C    1.058426  -1.719863
     8  C   -0.062193   0.171635
     9  O   -0.413422   0.103677
    10  O   -0.251681   0.014437
    11  H    0.109114   0.000256
    12  H    0.142383   0.000077
    13  H    0.110499   0.038445
    14  H    0.118264   0.011108
    15  H    0.064942   0.060071
    16  H    0.142203   0.037697
    17  H   -0.310573   0.433712
    18  H    0.038530   0.090933
    19  H   -0.167523   0.340366
    20  H   -0.170791   0.268625
    21  H   -0.273056   0.383277
    22  H    0.233946   0.044512
 Sum of Mulliken charges =  -1.00000   1.00000

 Dipole moment (field-independent basis, Debye):
    X=             -1.0444    Y=              0.2285    Z=              0.6356  Tot=              1.2438
 Quadrupole moment (field-independent basis, Debye-Ang):
   XX=           -122.7483   YY=            -76.8577   ZZ=            -76.2031
   XY=              1.8886   XZ=             -1.3876   YZ=              0.9176

 Summary of Natural Population Analysis:

                                       Natural Population
                Natural  -----------------------------------------------
    Atom  No    Charge         Core      Valence    Rydberg      Total
 -----------------------------------------------------------------------
      C    1   -0.28481      0.99965     2.28023    0.00493     3.28481
      C    2   -0.07229      0.99944     2.06184    0.01101     3.07229
      C    3    0.01334      0.99950     1.97628    0.01087     2.98666
      C    4   -0.20960      0.99961     2.19864    0.01135     3.20960
      C    5   -0.19883      0.99960     2.18919    0.01004     3.19883
      C    6   -0.07406      0.99957     2.06279    0.01170     3.07406
      C    7   -0.20580      0.99956     2.19951    0.00674     3.20580
      C    8    0.42318      0.99964     1.55281    0.02438     2.57682
      O    9   -0.30978      0.99987     3.30405    0.00586     4.30978
      O   10   -0.35511      0.99988     3.34803    0.00720     4.35511
      H   11    0.09054      0.00000     0.40859    0.00087     0.40946
      H   12    0.10016      0.00000     0.39872    0.00112     0.39984
      H   13    0.09787      0.00000     0.40060    0.00152     0.40213
      H   14    0.07931      0.00000     0.41969    0.00101     0.42069
      H   15    0.09356      0.00000     0.40536    0.00108     0.40644
      H   16    0.11104      0.00000     0.38761    0.00135     0.38896
      H   17    0.09351      0.00000     0.40459    0.00190     0.40649
      H   18    0.10679      0.00000     0.39146    0.00175     0.39321
      H   19    0.09447      0.00000     0.40435    0.00118     0.40553
      H   20    0.08934      0.00000     0.40927    0.00139     0.41066
      H   21    0.08760      0.00000     0.41084    0.00157     0.41240
      H   22    0.22956      0.00000     0.26595    0.00449     0.27044
 =======================================================================
   * Total *   -0.00000      9.99632    27.88038    0.12331    38.00000

 Normal termination of Gaussian 16 at Tue Dec  8 11:02:16 2020.
