 Gaussian 16, Revision A.03,

 -----------------------------------------------------------
 # opt freq B3LYP/6-31G(d) empiricaldispersion=gd3bj scf=xqc
 -----------------------------------------------------------

 ------------------------------
 CID_66565699_JID_4349_neutraal
 ------------------------------
 Symbolic Z-matrix:
 Charge =  0 Multiplicity = 1

 SCF Done:  E(RB3LYP) =  -598.508963862     A.U. after   13 cycles
 SCF Done:  E(RB3LYP) =  -598.512540898     A.U. after   11 cycles
 SCF Done:  E(RB3LYP) =  -598.506919652     A.U. after   11 cycles
 SCF Done:  E(RB3LYP) =  -598.512869526     A.U. after   11 cycles
 SCF Done:  E(RB3LYP) =  -598.513792938     A.U. after   11 cycles
 SCF Done:  E(RB3LYP) =  -598.514167166     A.U. after   10 cycles
 SCF Done:  E(RB3LYP) =  -598.514352695     A.U. after   10 cycles
 SCF Done:  E(RB3LYP) =  -598.514407874     A.U. after   10 cycles
 SCF Done:  E(RB3LYP) =  -598.514464400     A.U. after    9 cycles
 SCF Done:  E(RB3LYP) =  -598.514499702     A.U. after   10 cycles
 SCF Done:  E(RB3LYP) =  -598.514544810     A.U. after    9 cycles
 SCF Done:  E(RB3LYP) =  -598.514569398     A.U. after   10 cycles
 SCF Done:  E(RB3LYP) =  -598.514575064     A.U. after    9 cycles
 SCF Done:  E(RB3LYP) =  -598.514576774     A.U. after    9 cycles
 SCF Done:  E(RB3LYP) =  -598.514577296     A.U. after    7 cycles
 SCF Done:  E(RB3LYP) =  -598.514577437     A.U. after    7 cycles
 Optimization completed.
    -- Stationary point found.
 Normal termination of Gaussian 16 at Thu Dec 10 09:31:53 2020.

 --------------------------------------------------------------------
 #N Geom=AllCheck Guess=TCheck SCRF=Check GenChk RB3LYP/6-31G(d) Freq
 --------------------------------------------------------------------

 Structure from the checkpoint file:  "JID_4349.chk"
 ------------------------------
 CID_66565699_JID_4349_neutraal
 ------------------------------
 Charge =  0 Multiplicity = 1

 SCF Done:  E(RB3LYP) =  -598.514577436     A.U. after    1 cycles

  Exact polarizability: 158.888   0.561 135.473  -0.260  -3.704 115.427
 Approx polarizability: 191.030   2.981 185.322   3.820  -4.176 181.869

                      1                      2                      3
                      A                      A                      A
 Frequencies --     26.2882                41.3035                56.3485
 Red. masses --      2.7223                 3.2120                 3.4797
 Frc consts  --      0.0011                 0.0032                 0.0065
 IR Inten    --      0.0715                 0.0755                 0.0210

                      4                      5                      6
                      A                      A                      A
 Frequencies --     72.9846               107.1076               141.6708
 Red. masses --      2.8600                 2.6396                 2.1711
 Frc consts  --      0.0090                 0.0178                 0.0257
 IR Inten    --      0.4740                 0.3769                 2.7922

                      7                      8                      9
                      A                      A                      A
 Frequencies --    159.9538               187.8518               224.2305
 Red. masses --      3.4139                 2.7681                 2.3984
 Frc consts  --      0.0515                 0.0576                 0.0711
 IR Inten    --      0.7222                 2.7027                 4.0009

                     10                     11                     12
                      A                      A                      A
 Frequencies --    229.0490               241.8925               263.8750
 Red. masses --      2.2301                 1.4531                 1.5512
 Frc consts  --      0.0689                 0.0501                 0.0636
 IR Inten    --      1.0390                 1.9654                 8.8805

                     13                     14                     15
                      A                      A                      A
 Frequencies --    276.8563               307.7962               340.4201
 Red. masses --      1.3599                 1.4976                 1.4405
 Frc consts  --      0.0614                 0.0836                 0.0984
 IR Inten    --      0.2291                 8.7227                24.0425

                     16                     17                     18
                      A                      A                      A
 Frequencies --    353.2463               368.1955               377.5821
 Red. masses --      2.4086                 2.2924                 2.1437
 Frc consts  --      0.1771                 0.1831                 0.1801
 IR Inten    --      5.6641                 2.6194                 1.3587

                     19                     20                     21
                      A                      A                      A
 Frequencies --    413.2192               441.6094               445.7882
 Red. masses --      1.9543                 2.1740                 2.0903
 Frc consts  --      0.1966                 0.2498                 0.2447
 IR Inten    --      1.7864                 1.8242                 3.8595

                     22                     23                     24
                      A                      A                      A
 Frequencies --    494.6171               504.0054               548.4011
 Red. masses --      3.2093                 2.6003                 2.2690
 Frc consts  --      0.4626                 0.3892                 0.4020
 IR Inten    --      3.8918                 2.0589                 2.4476

                     25                     26                     27
                      A                      A                      A
 Frequencies --    604.4402               753.9081               786.0020
 Red. masses --      2.0786                 2.3902                 3.1924
 Frc consts  --      0.4474                 0.8004                 1.1620
 IR Inten    --      1.9542                 2.7439                 5.4618

                     28                     29                     30
                      A                      A                      A
 Frequencies --    820.0849               827.3722               847.9584
 Red. masses --      1.1656                 1.4782                 2.0046
 Frc consts  --      0.4619                 0.5962                 0.8493
 IR Inten    --      2.4586                 1.6372                73.9527

                     31                     32                     33
                      A                      A                      A
 Frequencies --    851.6813               871.7515               894.8653
 Red. masses --      1.9836                 1.9898                 1.5910
 Frc consts  --      0.8477                 0.8909                 0.7506
 IR Inten    --      1.1346                21.4474               104.3772

                     34                     35                     36
                      A                      A                      A
 Frequencies --    916.1189               972.3001               985.7038
 Red. masses --      1.7937                 1.6048                 2.1551
 Frc consts  --      0.8870                 0.8939                 1.2337
 IR Inten    --      8.0654                 4.8073                12.0233

                     37                     38                     39
                      A                      A                      A
 Frequencies --    999.5980              1006.5077              1028.2658
 Red. masses --      1.9372                 1.5902                 2.2508
 Frc consts  --      1.1405                 0.9492                 1.4022
 IR Inten    --     13.1852                 3.0229                 9.6128

                     40                     41                     42
                      A                      A                      A
 Frequencies --   1040.7686              1088.9263              1096.8591
 Red. masses --      2.1342                 2.4297                 2.2306
 Frc consts  --      1.3621                 1.6974                 1.5812
 IR Inten    --     18.4479                 2.4651                 9.2326

                     43                     44                     45
                      A                      A                      A
 Frequencies --   1098.9932              1125.0913              1125.7713
 Red. masses --      1.7967                 1.8457                 2.1678
 Frc consts  --      1.2786                 1.3765                 1.6187
 IR Inten    --     14.5699                23.4058                12.7613

                     46                     47                     48
                      A                      A                      A
 Frequencies --   1129.9340              1151.3333              1164.0214
 Red. masses --      2.4511                 1.8033                 1.6791
 Frc consts  --      1.8438                 1.4084                 1.3405
 IR Inten    --     31.3228                 8.7991                20.4274

                     49                     50                     51
                      A                      A                      A
 Frequencies --   1180.1483              1185.8390              1193.1268
 Red. masses --      1.9078                 1.9793                 1.2564
 Frc consts  --      1.5655                 1.6399                 1.0538
 IR Inten    --     10.8129                15.3236                 2.1739

                     52                     53                     54
                      A                      A                      A
 Frequencies --   1216.7390              1250.8661              1261.7173
 Red. masses --      1.6268                 1.6602                 1.7130
 Frc consts  --      1.4189                 1.5305                 1.6067
 IR Inten    --     26.6415                 7.4743                 8.6744

                     55                     56                     57
                      A                      A                      A
 Frequencies --   1290.4278              1319.1444              1324.4587
 Red. masses --      1.4612                 1.2677                 1.2757
 Frc consts  --      1.4336                 1.2997                 1.3185
 IR Inten    --     15.8293                 7.8780                 4.2450

                     58                     59                     60
                      A                      A                      A
 Frequencies --   1327.2465              1346.7624              1351.0681
 Red. masses --      1.6264                 1.3536                 1.3089
 Frc consts  --      1.6880                 1.4465                 1.4077
 IR Inten    --     29.1558                 8.1111                 6.6685

                     61                     62                     63
                      A                      A                      A
 Frequencies --   1364.5625              1384.0277              1399.5615
 Red. masses --      1.4152                 1.3478                 1.3959
 Frc consts  --      1.5526                 1.5211                 1.6110
 IR Inten    --     23.9439                16.3715                 9.4173

                     64                     65                     66
                      A                      A                      A
 Frequencies --   1402.2053              1407.9833              1411.8135
 Red. masses --      1.3594                 1.2366                 1.5512
 Frc consts  --      1.5747                 1.4443                 1.8217
 IR Inten    --      5.1734                 1.4261                 6.9959

                     67                     68                     69
                      A                      A                      A
 Frequencies --   1416.1437              1422.3601              1428.7558
 Red. masses --      1.3163                 1.2799                 1.2811
 Frc consts  --      1.5553                 1.5256                 1.5408
 IR Inten    --     27.8924                 9.6166                 1.4312

                     70                     71                     72
                      A                      A                      A
 Frequencies --   1434.8998              1437.4587              1456.9083
 Red. masses --      1.2829                 1.4203                 1.4682
 Frc consts  --      1.5563                 1.7291                 1.8361
 IR Inten    --      2.4162                42.0666                19.4936

                     73                     74                     75
                      A                      A                      A
 Frequencies --   1485.8633              1500.3105              1502.9216
 Red. masses --      1.2022                 1.0803                 1.0906
 Frc consts  --      1.5638                 1.4326                 1.4514
 IR Inten    --      0.2011                 0.8871                 2.0960

                     76                     77                     78
                      A                      A                      A
 Frequencies --   1510.2781              1514.7665              1515.9470
 Red. masses --      1.0792                 1.0907                 1.0578
 Frc consts  --      1.4503                 1.4744                 1.4323
 IR Inten    --      4.7393                 2.4196                10.6017

                     79                     80                     81
                      A                      A                      A
 Frequencies --   1518.1787              1521.4314              1525.8943
 Red. masses --      1.0838                 1.0848                 1.0530
 Frc consts  --      1.4718                 1.4794                 1.4445
 IR Inten    --     14.8738                 2.0138                 4.0355

                     82                     83                     84
                      A                      A                      A
 Frequencies --   1535.7603              1537.3689              1541.0520
 Red. masses --      1.0560                 1.0528                 1.1107
 Frc consts  --      1.4675                 1.4660                 1.5541
 IR Inten    --      2.7483                 2.4057                 6.2567

                     85                     86                     87
                      A                      A                      A
 Frequencies --   1550.8507              1701.1288              2886.1651
 Red. masses --      1.0890                 1.0870                 1.0740
 Frc consts  --      1.5432                 1.8534                 5.2710
 IR Inten    --      0.7150                47.4102                28.3590

                     88                     89                     90
                      A                      A                      A
 Frequencies --   2895.4043              2910.4033              2934.4811
 Red. masses --      1.0723                 1.0746                 1.0624
 Frc consts  --      5.2966                 5.3631                 5.3903
 IR Inten    --     78.0086                83.5294               124.4603

                     91                     92                     93
                      A                      A                      A
 Frequencies --   2954.3053              3008.1653              3033.1999
 Red. masses --      1.0729                 1.0811                 1.0600
 Frc consts  --      5.5174                 5.7639                 5.7457
 IR Inten    --     90.1046                24.8060                 5.5066

                     94                     95                     96
                      A                      A                      A
 Frequencies --   3038.2062              3044.9531              3047.5805
 Red. masses --      1.0610                 1.0650                 1.0669
 Frc consts  --      5.7702                 5.8180                 5.8380
 IR Inten    --     34.6295                25.4935                39.3563

                     97                     98                     99
                      A                      A                      A
 Frequencies --   3050.9429              3056.5280              3067.4436
 Red. masses --      1.0793                 1.0392                 1.0941
 Frc consts  --      5.9191                 5.7200                 6.0653
 IR Inten    --     71.5876                24.7215                12.9068

                    100                    101                    102
                      A                      A                      A
 Frequencies --   3069.0115              3070.7024              3074.8073
 Red. masses --      1.0860                 1.0825                 1.1016
 Frc consts  --      6.0269                 6.0141                 6.1364
 IR Inten    --     63.8757                 2.5603                10.3401

                    103                    104                    105
                      A                      A                      A
 Frequencies --   3076.4021              3079.4572              3090.7073
 Red. masses --      1.0737                 1.1032                 1.0990
 Frc consts  --      5.9870                 6.1638                 6.1852
 IR Inten    --     72.4220                65.5103                81.5208

                    106                    107                    108
                      A                      A                      A
 Frequencies --   3103.3989              3119.1372              3123.8841
 Red. masses --      1.0961                 1.1040                 1.1015
 Frc consts  --      6.2196                 6.3285                 6.3333
 IR Inten    --     41.3738                33.9445                41.5665

                    109                    110                    111
                      A                      A                      A
 Frequencies --   3128.9503              3482.4336              3570.2270
 Red. masses --      1.1032                 1.0489                 1.0920
 Frc consts  --      6.3637                 7.4944                 8.2011
 IR Inten    --     31.3939                 2.5486                 1.4373

 - Thermochemistry -
 -------------------
 Temperature   298.150 Kelvin.  Pressure   1.00000 Atm.
 Atom     1 has atomic number  6 and mass  12.00000

 Molecular mass:   199.20485 amu.
 Principal axes and moments of inertia in atomic units:
                           1         2         3
     Eigenvalues --  1755.095774745.246195768.66465
           X            0.99997  -0.00720  -0.00284
           Y            0.00715   0.99982  -0.01740
           Z            0.00297   0.01738   0.99984
 This molecule is an asymmetric top.
 Rotational symmetry number  1.
 Warning -- assumption of classical behavior for rotation
           may cause significant error
 Rotational temperatures (Kelvin)      0.04935     0.01825     0.01501
 Rotational constants (GHZ):           1.02829     0.38033     0.31285
 Zero-point vibrational energy     959437.5 (Joules/Mol)
                                  229.31106 (Kcal/Mol)
 Warning -- explicit consideration of  25 degrees of freedom as
           vibrations may cause significant error
 Vibrational temperatures:     37.82    59.43    81.07   105.01   154.10
          (Kelvin)            203.83   230.14   270.28   322.62   329.55
                              348.03   379.66   398.33   442.85   489.79
                              508.24   529.75   543.26   594.53   635.38
                              641.39   711.64   725.15   789.03   869.65
                             1084.71  1130.88  1179.92  1190.40  1220.02
                             1225.38  1254.26  1287.51  1318.09  1398.92
                             1418.21  1438.20  1448.14  1479.45  1497.43
                             1566.72  1578.14  1581.21  1618.76  1619.73
                             1625.72  1656.51  1674.77  1697.97  1706.16
                             1716.64  1750.62  1799.72  1815.33  1856.64
                             1897.95  1905.60  1909.61  1937.69  1943.89
                             1963.30  1991.31  2013.66  2017.46  2025.77
                             2031.28  2037.51  2046.46  2055.66  2064.50
                             2068.18  2096.17  2137.83  2158.61  2162.37
                             2172.95  2179.41  2181.11  2184.32  2189.00
                             2195.42  2209.62  2211.93  2217.23  2231.33
                             2447.54  4152.55  4165.84  4187.42  4222.06
                             4250.59  4328.08  4364.10  4371.30  4381.01
                             4384.79  4389.63  4397.66  4413.37  4415.62
                             4418.06  4423.96  4426.26  4430.65  4446.84
                             4465.10  4487.74  4494.57  4501.86  5010.45
                             5136.76

 Zero-point correction=                           0.365430 (Hartree/Particle)
 Thermal correction to Energy=                    0.381416
 Thermal correction to Enthalpy=                  0.382360
 Thermal correction to Gibbs Free Energy=         0.321673
 Sum of electronic and zero-point Energies=           -598.149147
 Sum of electronic and thermal Energies=              -598.133162
 Sum of electronic and thermal Enthalpies=            -598.132218
 Sum of electronic and thermal Free Energies=         -598.192905

                     E (Thermal)             CV                S
                      KCal/Mol        Cal/Mol-Kelvin    Cal/Mol-Kelvin
 Total                  239.342             60.824            127.726
 Electronic               0.000              0.000              0.000
 Translational            0.889              2.981             41.772
 Rotational               0.889              2.981             32.241
 Vibrational            237.564             54.862             53.713
 Vibration     1          0.593              1.985              6.091
 Vibration     2          0.594              1.981              5.196
 Vibration     3          0.596              1.975              4.581
 Vibration     4          0.599              1.967              4.071
 Vibration     5          0.606              1.944              3.321
 Vibration     6          0.615              1.912              2.781
 Vibration     7          0.622              1.891              2.550
 Vibration     8          0.633              1.857              2.249
 Vibration     9          0.649              1.804              1.925
 Vibration    10          0.652              1.797              1.886
 Vibration    11          0.658              1.776              1.789
 Vibration    12          0.670              1.739              1.636
 Vibration    13          0.678              1.716              1.553
 Vibration    14          0.698              1.659              1.374
 Vibration    15          0.720              1.595              1.210
 Vibration    16          0.729              1.569              1.152
 Vibration    17          0.741              1.538              1.087
 Vibration    18          0.748              1.518              1.049
 Vibration    19          0.777              1.442              0.915
 Vibration    20          0.801              1.379              0.822
 Vibration    21          0.805              1.370              0.809
 Vibration    22          0.850              1.262              0.672
 Vibration    23          0.859              1.241              0.648
 Vibration    24          0.904              1.143              0.547
 Vibration    25          0.963              1.022              0.442

                           ! Non-Optimized Parameters !
 Normal termination of Gaussian 16 at Thu Dec 10 09:46:14 2020.

 ----------------------------------------------------------------------
 # B3LYP/6-311++G(d,p) empiricaldispersion=gd3bj scf=xqc pop=npa geom=c
 heck
 ----------------------------------------------------------------------

 --------------------------------------
 CID_66565699_JID_4349_Energie_neutraal
 --------------------------------------
 Structure from the checkpoint file:  "JID_4349.chk"
 Charge =  0 Multiplicity = 1

 SCF Done:  E(RB3LYP) =  -598.687653215     A.U. after   14 cycles
 Normal termination of Gaussian 16 at Thu Dec 10 09:53:32 2020.

 ----------------------------------------------------------------------
 # B3LYP/6-311++G(d,p) empiricaldispersion=gd3bj scf=xqc pop=npa geom=c
 heck
 ----------------------------------------------------------------------

 ------------------------------------
 CID_66565699_JID_4349_Energie_kation
 ------------------------------------
 Structure from the checkpoint file:  "JID_4349.chk"
 Charge =  1 Multiplicity = 2

 SCF Done:  E(UB3LYP) =  -598.426258441     A.U. after   25 cycles
 Normal termination of Gaussian 16 at Thu Dec 10 10:12:19 2020.
 Gaussian 16:  ES64L-G16RevA.03 25-Dec-2016

 ----------------------------------------------------------------------
 # B3LYP/6-311++G(d,p) empiricaldispersion=gd3bj scf=xqc pop=npa geom=c
 heck
 ----------------------------------------------------------------------

 -----------------------------------
 CID_66565699_JID_4349_Energie_anion
 -----------------------------------
 Structure from the checkpoint file:  "JID_4349.chk"
 Charge = -1 Multiplicity = 2

                         Standard orientation:
 ---------------------------------------------------------------------
 Center     Atomic      Atomic             Coordinates (Angstroms)
 Number     Number       Type             X           Y           Z
 ---------------------------------------------------------------------
      1          6           0       -2.531884    2.558978   -0.659438
      2          6           0       -2.641088    1.033745   -0.695786
      3          7           0       -2.221155    0.384926    0.533132
      4          6           0       -2.768821   -0.944323    0.768531
      5          6           0       -2.779761   -1.942230   -0.411960
      6          7           0       -1.506024   -2.371183   -0.984810
      7          6           0       -0.938220    0.757078    1.101022
      8          6           0        0.353765    0.387692    0.319779
      9          6           0        1.051488   -0.856817    0.884150
     10          6           0        2.329087   -1.181782    0.112092
     11          7           0        3.251009   -0.049606    0.133326
     12          6           0        2.642916    1.144704   -0.447236
     13          6           0        1.369434    1.538668    0.301409
     14          6           0        4.509160   -0.374603   -0.515836
     15          1           0       -3.043489    2.961065    0.221557
     16          1           0       -2.995374    2.984607   -1.555937
     17          1           0       -1.491704    2.899693   -0.636199
     18          1           0       -3.694200    0.768214   -0.854778
     19          1           0       -2.100886    0.664535   -1.590614
     20          1           0       -2.224581   -1.386402    1.611612
     21          1           0       -3.820711   -0.844605    1.093081
     22          1           0       -3.316859   -2.839334   -0.076742
     23          1           0       -3.381094   -1.523752   -1.227965
     24          1           0       -0.945437   -2.848325   -0.282017
     25          1           0       -0.964554   -1.561300   -1.278708
     26          1           0       -0.944859    1.843187    1.255378
     27          1           0       -0.885526    0.319596    2.105647
     28          1           0        0.075688    0.186444   -0.725958
     29          1           0        0.377580   -1.719526    0.866964
     30          1           0        1.311964   -0.670773    1.934579
     31          1           0        2.066900   -1.469595   -0.929158
     32          1           0        2.836000   -2.044093    0.561378
     33          1           0        3.376783    1.958138   -0.401793
     34          1           0        2.400516    0.989804   -1.520828
     35          1           0        0.929745    2.427727   -0.168797
     36          1           0        1.630831    1.811212    1.332746
     37          1           0        4.394413   -0.615852   -1.591607
     38          1           0        5.198419    0.472581   -0.431076
     39          1           0        4.967179   -1.238876   -0.022659
 ---------------------------------------------------------------------

 SCF Done:  E(UB3LYP) =  -598.672442209     A.U. after   28 cycles

 The electronic state is 2-A.
 Alpha  occ. eigenvalues --  -14.21001 -14.20131 -14.19568 -10.09795 -10.09586
 Alpha  occ. eigenvalues --  -10.09549 -10.09540 -10.09535 -10.09297 -10.09225
 Alpha  occ. eigenvalues --  -10.07467 -10.06994 -10.06921 -10.06453  -0.83600
 Alpha  occ. eigenvalues --   -0.82653  -0.78219  -0.71462  -0.66057  -0.65900
 Alpha  occ. eigenvalues --   -0.63582  -0.59869  -0.56483  -0.53648  -0.52935
 Alpha  occ. eigenvalues --   -0.50784  -0.46246  -0.45998  -0.40704  -0.39674
 Alpha  occ. eigenvalues --   -0.39055  -0.38104  -0.36948  -0.36194  -0.35328
 Alpha  occ. eigenvalues --   -0.34167  -0.33912  -0.32710  -0.32028  -0.30976
 Alpha  occ. eigenvalues --   -0.29777  -0.29515  -0.28671  -0.27747  -0.27542
 Alpha  occ. eigenvalues --   -0.26841  -0.25835  -0.25328  -0.24817  -0.24675
 Alpha  occ. eigenvalues --   -0.23356  -0.22747  -0.21334  -0.15274  -0.12703
 Alpha  occ. eigenvalues --   -0.10036   0.04325
 Alpha virt. eigenvalues --    0.06000   0.06394   0.07403   0.07797   0.07947
 Alpha virt. eigenvalues --    0.09077   0.09458   0.09701   0.10137   0.10201
 Alpha virt. eigenvalues --    0.11050   0.11660   0.11805   0.12474   0.12648

  Beta  occ. eigenvalues --  -14.20990 -14.20133 -14.19549 -10.09773 -10.09578
  Beta  occ. eigenvalues --  -10.09533 -10.09523 -10.09516 -10.09282 -10.09200
  Beta  occ. eigenvalues --  -10.07462 -10.06981 -10.06908 -10.06424  -0.83575
  Beta  occ. eigenvalues --   -0.82640  -0.78185  -0.71439  -0.66024  -0.65867
  Beta  occ. eigenvalues --   -0.63551  -0.59826  -0.56434  -0.53598  -0.52877
  Beta  occ. eigenvalues --   -0.50739  -0.46201  -0.45950  -0.40676  -0.39629
  Beta  occ. eigenvalues --   -0.39036  -0.38072  -0.36922  -0.36155  -0.35297
  Beta  occ. eigenvalues --   -0.34139  -0.33880  -0.32672  -0.32004  -0.30944
  Beta  occ. eigenvalues --   -0.29747  -0.29480  -0.28640  -0.27718  -0.27497
  Beta  occ. eigenvalues --   -0.26796  -0.25811  -0.25295  -0.24788  -0.24643
  Beta  occ. eigenvalues --   -0.23319  -0.22721  -0.21312  -0.15252  -0.12641
  Beta  occ. eigenvalues --   -0.10025
  Beta virt. eigenvalues --    0.06321   0.06790   0.07210   0.07612   0.08359
  Beta virt. eigenvalues --    0.08567   0.09270   0.09719   0.10062   0.10422
  Beta virt. eigenvalues --    0.10740   0.11294   0.11832   0.12016   0.12706

 Mulliken charges and spin densities:
               1          2
     1  C    1.034858  -1.601676
     2  C   -0.487067   0.315156
     3  N    0.178380   0.096956
     4  C   -0.072801  -0.112422
     5  C    0.244333  -0.719605
     6  N   -0.263785  -0.022446
     7  C   -0.176177  -0.705370
     8  C   -0.090645   0.878880
     9  C   -0.249829  -0.190503
    10  C    0.226786  -0.722943
    11  N   -0.049278   0.201560
    12  C    0.238266  -0.757449
    13  C   -0.468850  -0.133163
    14  C    0.427719  -0.689156
    15  H   -0.021704   0.168595
    16  H   -0.313377   0.450892
    17  H   -0.120252   0.257565
    18  H   -0.208451   0.356058
    19  H   -0.102192   0.236263
    20  H   -0.125837   0.261465
    21  H   -0.215909   0.376076
    22  H   -0.358045   0.522535
    23  H    0.058827   0.106811
    24  H    0.100947   0.129999
    25  H    0.041907   0.165386
    26  H    0.118764   0.084914
    27  H    0.037614   0.101096
    28  H    0.450394  -0.359978
    29  H    0.055932   0.006807
    30  H    0.034990   0.133187
    31  H    0.112561  -0.002468
    32  H   -0.294178   0.483775
    33  H   -0.153124   0.346922
    34  H   -0.163277   0.269330
    35  H   -0.087135   0.208618
    36  H    0.101331   0.056084
    37  H   -0.023892   0.132966
    38  H   -0.210999   0.335352
    39  H   -0.206808   0.333934
 Sum of Mulliken charges =  -1.00000   1.00000

 Dipole moment (field-independent basis, Debye):
    X=              0.1987    Y=              0.6815    Z=              1.8315  Tot=              1.9642
 Quadrupole moment (field-independent basis, Debye-Ang):
   XX=           -178.1099   YY=           -146.4736   ZZ=           -127.2795
   XY=              0.0308   XZ=             -2.2002   YZ=              3.8993

 Summary of Natural Population Analysis:

                                       Natural Population
                Natural  -----------------------------------------------
    Atom  No    Charge         Core      Valence    Rydberg      Total
 -----------------------------------------------------------------------
      C    1   -0.28981      0.99966     2.28508    0.00507     3.28981
      C    2   -0.08222      0.99962     2.07124    0.01136     3.08222
      N    3   -0.28962      0.99971     2.77559    0.01432     3.78962
      C    4   -0.08436      0.99960     2.07287    0.01188     3.08436
      C    5   -0.09943      0.99964     2.08825    0.01155     3.09943
      N    6   -0.41855      0.99978     2.90910    0.00967     3.91855
      C    7   -0.07299      0.99958     2.06188    0.01153     3.07299
      C    8   -0.12583      0.99958     2.11673    0.00952     3.12583
      C    9   -0.19247      0.99960     2.18290    0.00997     3.19247
      C   10   -0.08308      0.99961     2.07148    0.01199     3.08308
      N   11   -0.27917      0.99971     2.76741    0.01204     3.77917
      C   12   -0.08255      0.99961     2.07089    0.01205     3.08255
      C   13   -0.19138      0.99961     2.18166    0.01012     3.19138
      C   14   -0.17277      0.99965     2.16611    0.00702     3.17277
      H   15    0.09821      0.00000     0.40061    0.00118     0.40179
      H   16    0.10148      0.00000     0.39753    0.00099     0.39852
      H   17    0.09678      0.00000     0.40177    0.00145     0.40322
      H   18    0.09458      0.00000     0.40401    0.00141     0.40542
      H   19    0.07808      0.00000     0.42017    0.00174     0.42192
      H   20    0.09307      0.00000     0.40561    0.00132     0.40693
      H   21    0.08828      0.00000     0.41023    0.00148     0.41172
      H   22    0.09091      0.00000     0.40778    0.00131     0.40909
      H   23    0.08922      0.00000     0.40938    0.00139     0.41078
      H   24    0.17115      0.00000     0.32644    0.00241     0.32885
      H   25    0.17205      0.00000     0.32474    0.00321     0.32795
      H   26    0.09341      0.00000     0.40499    0.00160     0.40659
      H   27    0.09463      0.00000     0.40410    0.00127     0.40537
      H   28    0.09152      0.00000     0.40554    0.00294     0.40848
      H   29    0.09808      0.00000     0.40045    0.00147     0.40192
      H   30    0.09660      0.00000     0.40171    0.00169     0.40340
      H   31    0.07770      0.00000     0.42049    0.00181     0.42230
      H   32    0.09757      0.00000     0.40108    0.00135     0.40243
      H   33    0.09702      0.00000     0.40166    0.00133     0.40298
      H   34    0.07842      0.00000     0.41993    0.00165     0.42158
      H   35    0.10034      0.00000     0.39855    0.00111     0.39966
      H   36    0.09628      0.00000     0.40215    0.00157     0.40372
      H   37    0.07902      0.00000     0.41923    0.00174     0.42098
      H   38    0.09478      0.00000     0.40383    0.00139     0.40522
      H   39    0.09502      0.00000     0.40358    0.00140     0.40498
 =======================================================================
   * Total *    0.00000     13.99496    41.81674    0.18830    56.00000

 Normal termination of Gaussian 16 at Thu Dec 10 10:33:30 2020.
