 Gaussian 16, Revision A.03,

 -----------------------------------------------------------
 # opt freq B3LYP/6-31G(d) empiricaldispersion=gd3bj scf=xqc
 -----------------------------------------------------------

 -------------------------------
 CID_103573758_JID_8617_neutraal
 -------------------------------
 Symbolic Z-matrix:
 Charge =  0 Multiplicity = 1

 SCF Done:  E(RB3LYP) =  -781.833240421     A.U. after   14 cycles
 SCF Done:  E(RB3LYP) =  -781.838715756     A.U. after   12 cycles
 SCF Done:  E(RB3LYP) =  -781.839745342     A.U. after   12 cycles
 SCF Done:  E(RB3LYP) =  -781.840460726     A.U. after   11 cycles
 SCF Done:  E(RB3LYP) =  -781.840703107     A.U. after   11 cycles
 SCF Done:  E(RB3LYP) =  -781.840828418     A.U. after   11 cycles
 SCF Done:  E(RB3LYP) =  -781.840888496     A.U. after   10 cycles
 SCF Done:  E(RB3LYP) =  -781.840958266     A.U. after   11 cycles
 SCF Done:  E(RB3LYP) =  -781.841083419     A.U. after   12 cycles
 SCF Done:  E(RB3LYP) =  -781.841061352     A.U. after   12 cycles
 SCF Done:  E(RB3LYP) =  -781.841573384     A.U. after   10 cycles
 SCF Done:  E(RB3LYP) =  -781.841578661     A.U. after   10 cycles
 SCF Done:  E(RB3LYP) =  -781.841578810     A.U. after    8 cycles
 SCF Done:  E(RB3LYP) =  -781.841578847     A.U. after    7 cycles
 SCF Done:  E(RB3LYP) =  -781.841578849     A.U. after    6 cycles
 Optimization completed.
    -- Stationary point found.
 Normal termination of Gaussian 16 at Fri Dec 11 21:34:51 2020.

 --------------------------------------------------------------------
 #N Geom=AllCheck Guess=TCheck SCRF=Check GenChk RB3LYP/6-31G(d) Freq
 --------------------------------------------------------------------

 Structure from the checkpoint file:  "JID_8617.chk"
 -------------------------------
 CID_103573758_JID_8617_neutraal
 -------------------------------
 Charge =  0 Multiplicity = 1

 SCF Done:  E(RB3LYP) =  -781.841578849     A.U. after    1 cycles

  Exact polarizability: 207.920 -16.718 159.734  13.148  11.573 125.543
 Approx polarizability: 271.875 -36.010 248.815  27.462  32.586 207.229

                      1                      2                      3
                      A                      A                      A
 Frequencies --     17.6945                27.4135                32.0306
 Red. masses --      3.6091                 3.7880                 3.5776
 Frc consts  --      0.0007                 0.0017                 0.0022
 IR Inten    --      0.5158                 0.6436                 0.3608

                      4                      5                      6
                      A                      A                      A
 Frequencies --     58.7005                62.1604                85.9979
 Red. masses --      3.7369                 3.6567                 3.9674
 Frc consts  --      0.0076                 0.0083                 0.0173
 IR Inten    --      0.0600                 0.1527                 2.2538

                      7                      8                      9
                      A                      A                      A
 Frequencies --     98.8336               116.5855               142.2409
 Red. masses --      3.4058                 2.1124                 3.2326
 Frc consts  --      0.0196                 0.0169                 0.0385
 IR Inten    --      1.0025                 0.0587                 0.9101

                     10                     11                     12
                      A                      A                      A
 Frequencies --    152.7168               206.7193               245.2695
 Red. masses --      2.0582                 1.6463                 1.6275
 Frc consts  --      0.0283                 0.0414                 0.0577
 IR Inten    --      0.5903                 0.7996                 9.1070

                     13                     14                     15
                      A                      A                      A
 Frequencies --    249.4951               265.7244               277.4787
 Red. masses --      1.5214                 2.6195                 2.7423
 Frc consts  --      0.0558                 0.1090                 0.1244
 IR Inten    --      1.3777                 1.4653                 0.9606

                     16                     17                     18
                      A                      A                      A
 Frequencies --    283.8306               315.4099               335.5845
 Red. masses --      1.5984                 2.4135                 3.4318
 Frc consts  --      0.0759                 0.1415                 0.2277
 IR Inten    --     19.8797                 4.3292                11.2841

                     19                     20                     21
                      A                      A                      A
 Frequencies --    364.7006               392.8392               407.8940
 Red. masses --      3.3692                 2.8205                 2.9744
 Frc consts  --      0.2640                 0.2565                 0.2916
 IR Inten    --      0.4448                 6.3527                 2.3481

                     22                     23                     24
                      A                      A                      A
 Frequencies --    448.7566               478.1915               505.8809
 Red. masses --      2.7077                 3.2114                 3.3193
 Frc consts  --      0.3213                 0.4327                 0.5005
 IR Inten    --      1.0361                 1.1637                 0.7623

                     25                     26                     27
                      A                      A                      A
 Frequencies --    565.0305               654.2472               669.6187
 Red. masses --      2.2276                 4.0064                 4.0044
 Frc consts  --      0.4190                 1.0104                 1.0579
 IR Inten    --      9.3013                 4.4487                11.0846

                     28                     29                     30
                      A                      A                      A
 Frequencies --    674.7323               687.5576               691.5711
 Red. masses --      4.4465                 2.8655                 2.8793
 Frc consts  --      1.1927                 0.7981                 0.8113
 IR Inten    --     13.7677                 1.7448                 5.8724

                     31                     32                     33
                      A                      A                      A
 Frequencies --    767.4449               781.6100               785.3228
 Red. masses --      2.4354                 2.3307                 1.3794
 Frc consts  --      0.8451                 0.8389                 0.5012
 IR Inten    --      7.2078                 5.3325                 5.9413

                     34                     35                     36
                      A                      A                      A
 Frequencies --    790.7364               796.6587               818.0514
 Red. masses --      1.5964                 1.4698                 1.4504
 Frc consts  --      0.5881                 0.5496                 0.5719
 IR Inten    --     28.3266                 8.7569                16.8030

                     37                     38                     39
                      A                      A                      A
 Frequencies --    831.9757               858.8138               881.4126
 Red. masses --      1.4168                 1.3993                 2.5435
 Frc consts  --      0.5778                 0.6081                 1.1642
 IR Inten    --     12.4156                17.0869                 3.2650

                     40                     41                     42
                      A                      A                      A
 Frequencies --    896.5709               916.5315               929.8590
 Red. masses --      1.5634                 1.3432                 6.1015
 Frc consts  --      0.7404                 0.6648                 3.1083
 IR Inten    --    158.0540                 4.4774                19.5866

                     43                     44                     45
                      A                      A                      A
 Frequencies --    963.3774               980.4909               992.8428
 Red. masses --      1.7397                 2.2469                 4.0297
 Frc consts  --      0.9513                 1.2727                 2.3403
 IR Inten    --     10.4192                13.2164                18.0000

                     46                     47                     48
                      A                      A                      A
 Frequencies --   1014.3452              1029.0621              1051.9108
 Red. masses --      3.7525                 1.5638                 1.8375
 Frc consts  --      2.2748                 0.9757                 1.1980
 IR Inten    --     17.0145                 2.4161                 3.9603

                     49                     50                     51
                      A                      A                      A
 Frequencies --   1079.6036              1101.6947              1116.0118
 Red. masses --      1.4315                 2.2922                 1.9439
 Frc consts  --      0.9830                 1.6392                 1.4265
 IR Inten    --      2.6460                 9.2353                10.1318

                     52                     53                     54
                      A                      A                      A
 Frequencies --   1118.8769              1128.6336              1159.6613
 Red. masses --      2.4074                 1.6959                 2.0066
 Frc consts  --      1.7757                 1.2728                 1.5899
 IR Inten    --     10.3038                10.0446                24.1612

                     55                     56                     57
                      A                      A                      A
 Frequencies --   1167.9465              1190.3278              1215.6572
 Red. masses --      1.5682                 2.1106                 1.5451
 Frc consts  --      1.2604                 1.7619                 1.3453
 IR Inten    --     15.5630                 7.7342                 6.4064

                     58                     59                     60
                      A                      A                      A
 Frequencies --   1238.5557              1255.0366              1262.4586
 Red. masses --      2.7358                 1.6267                 1.5894
 Frc consts  --      2.4727                 1.5097                 1.4925
 IR Inten    --     12.1098                 3.0619                11.7814

                     61                     62                     63
                      A                      A                      A
 Frequencies --   1271.7118              1297.2868              1316.5631
 Red. masses --      1.5727                 2.7244                 1.1939
 Frc consts  --      1.4985                 2.7014                 1.2193
 IR Inten    --      4.3473                29.5480                 0.8913

                     64                     65                     66
                      A                      A                      A
 Frequencies --   1318.2157              1357.4813              1367.4127
 Red. masses --      1.1617                 2.5310                 1.8978
 Frc consts  --      1.1893                 2.7480                 2.0907
 IR Inten    --      6.6536                 5.7855                 2.2350

                     67                     68                     69
                      A                      A                      A
 Frequencies --   1375.1543              1382.6991              1393.2379
 Red. masses --      1.4826                 3.4429                 2.8583
 Frc consts  --      1.6518                 3.8782                 3.2690
 IR Inten    --      9.1033                 3.6562                 2.9387

                     70                     71                     72
                      A                      A                      A
 Frequencies --   1400.3237              1403.8922              1413.2010
 Red. masses --      1.4634                 1.5311                 1.5657
 Frc consts  --      1.6907                 1.7779                 1.8423
 IR Inten    --     25.5978                 1.5402                 7.1587

                     73                     74                     75
                      A                      A                      A
 Frequencies --   1422.2987              1438.3344              1445.4015
 Red. masses --      1.5779                 5.5788                 1.2947
 Frc consts  --      1.8807                 6.8000                 1.5937
 IR Inten    --     16.4559                14.4517                10.1534

                     76                     77                     78
                      A                      A                      A
 Frequencies --   1447.2309              1449.0744              1492.6158
 Red. masses --      1.2757                 1.4177                 3.4574
 Frc consts  --      1.5742                 1.7539                 4.5383
 IR Inten    --      8.5897                 0.5897                60.1244

                     79                     80                     81
                      A                      A                      A
 Frequencies --   1509.7236              1511.7246              1514.7299
 Red. masses --      1.3480                 1.4163                 1.1009
 Frc consts  --      1.8103                 1.9070                 1.4882
 IR Inten    --     16.2538                16.7250                 2.0298

                     82                     83                     84
                      A                      A                      A
 Frequencies --   1516.4076              1530.7154              1531.0442
 Red. masses --      1.1525                 1.0589                 1.4118
 Frc consts  --      1.5615                 1.4619                 1.9498
 IR Inten    --     10.2011                 2.4672                41.0033

                     85                     86                     87
                      A                      A                      A
 Frequencies --   1534.5027              1537.1205              1540.5143
 Red. masses --      1.0655                 1.0583                 1.1425
 Frc consts  --      1.4783                 1.4733                 1.5975
 IR Inten    --      2.2818                 7.5587                 8.8235

                     88                     89                     90
                      A                      A                      A
 Frequencies --   1568.7562              1656.8541              1698.9316
 Red. masses --      4.3231                 6.9228                 1.0925
 Frc consts  --      6.2684                11.1970                 1.8578
 IR Inten    --     11.3182                11.8998                18.8308

                     91                     92                     93
                      A                      A                      A
 Frequencies --   3037.3733              3047.7232              3050.0621
 Red. masses --      1.0658                 1.0391                 1.0391
 Frc consts  --      5.7935                 5.6869                 5.6956
 IR Inten    --     24.2115                19.2486                24.7082

                     94                     95                     96
                      A                      A                      A
 Frequencies --   3052.9159              3075.3038              3077.3730
 Red. masses --      1.0642                 1.0610                 1.0743
 Frc consts  --      5.8438                 5.9122                 5.9942
 IR Inten    --     29.8972                29.6526                 5.0373

                     97                     98                     99
                      A                      A                      A
 Frequencies --   3080.5056              3089.3006              3096.8417
 Red. masses --      1.0965                 1.0739                 1.0962
 Frc consts  --      6.1305                 6.0386                 6.1943
 IR Inten    --     10.1481                42.5605                 8.0588

                    100                    101                    102
                      A                      A                      A
 Frequencies --   3113.4654              3116.5029              3126.1954
 Red. masses --      1.0986                 1.1006                 1.1013
 Frc consts  --      6.2747                 6.2981                 6.3413
 IR Inten    --     40.3646                32.4497                41.8201

                    103                    104                    105
                      A                      A                      A
 Frequencies --   3127.8639              3130.5616              3136.9803
 Red. masses --      1.1056                 1.1034                 1.1019
 Frc consts  --      6.3728                 6.3714                 6.3888
 IR Inten    --     26.5873                40.8453                18.9047

                    106                    107                    108
                      A                      A                      A
 Frequencies --   3252.0735              3256.9027              3262.5727
 Red. masses --      1.0942                 1.0980                 1.0956
 Frc consts  --      6.8180                 6.8623                 6.8713
 IR Inten    --     12.5345                 0.2473                 4.9173

                    109                    110                    111
                      A                      A                      A
 Frequencies --   3279.6907              3464.9851              3551.7382
 Red. masses --      1.0977                 1.0494                 1.0920
 Frc consts  --      6.9566                 7.4236                 8.1163
 IR Inten    --      0.0408                 2.4329                 0.0785

 - Thermochemistry -
 -------------------
 Temperature   298.150 Kelvin.  Pressure   1.00000 Atm.
 Atom     1 has atomic number  6 and mass  12.00000

 Molecular mass:   247.17970 amu.
 Principal axes and moments of inertia in atomic units:
                           1         2         3
     Eigenvalues --  2513.373547756.528529174.12898
           X            0.99981   0.01966  -0.00060
           Y           -0.01967   0.99979  -0.00509
           Z            0.00050   0.00510   0.99999
 This molecule is an asymmetric top.
 Rotational symmetry number  1.
 Warning -- assumption of classical behavior for rotation
           may cause significant error
 Rotational temperatures (Kelvin)      0.03446     0.01117     0.00944
 Rotational constants (GHZ):           0.71806     0.23267     0.19672
 Zero-point vibrational energy     895443.6 (Joules/Mol)
                                  214.01616 (Kcal/Mol)
 Warning -- explicit consideration of  25 degrees of freedom as
           vibrations may cause significant error
 Vibrational temperatures:     25.46    39.44    46.08    84.46    89.43
          (Kelvin)            123.73   142.20   167.74   204.65   219.73
                              297.42   352.89   358.97   382.32   399.23
                              408.37   453.80   482.83   524.72   565.21
                              586.87   645.66   688.01   727.85   812.95
                              941.32   963.43   970.79   989.24   995.02
                             1104.18  1124.56  1129.90  1137.69  1146.21
                             1176.99  1197.03  1235.64  1268.16  1289.97
                             1318.68  1337.86  1386.09  1410.71  1428.48
                             1459.42  1480.59  1513.46  1553.31  1585.09
                             1605.69  1609.81  1623.85  1668.49  1680.41
                             1712.62  1749.06  1782.01  1805.72  1816.40
                             1829.71  1866.51  1894.24  1896.62  1953.11
                             1967.40  1978.54  1989.40  2004.56  2014.75
                             2019.89  2033.28  2046.37  2069.44  2079.61
                             2082.24  2084.89  2147.54  2172.16  2175.03
                             2179.36  2181.77  2202.36  2202.83  2207.81
                             2211.57  2216.46  2257.09  2383.84  2444.38
                             4370.10  4384.99  4388.36  4392.47  4424.68
                             4427.65  4432.16  4444.81  4455.66  4479.58
                             4483.95  4497.90  4500.30  4504.18  4513.41
                             4679.01  4685.96  4694.11  4718.74  4985.34
                             5110.16

 Zero-point correction=                           0.341056 (Hartree/Particle)
 Thermal correction to Energy=                    0.359299
 Thermal correction to Enthalpy=                  0.360243
 Thermal correction to Gibbs Free Energy=         0.292195
 Sum of electronic and zero-point Energies=           -781.500522
 Sum of electronic and thermal Energies=              -781.482280
 Sum of electronic and thermal Enthalpies=            -781.481336
 Sum of electronic and thermal Free Energies=         -781.549384

                     E (Thermal)             CV                S
                      KCal/Mol        Cal/Mol-Kelvin    Cal/Mol-Kelvin
 Total                  225.463             68.052            143.219
 Electronic               0.000              0.000              0.000
 Translational            0.889              2.981             42.415
 Rotational               0.889              2.981             33.547
 Vibrational            223.686             62.090             67.257
 Vibration     1          0.593              1.986              6.877
 Vibration     2          0.593              1.984              6.008
 Vibration     3          0.594              1.983              5.700
 Vibration     4          0.596              1.974              4.500
 Vibration     5          0.597              1.972              4.387
 Vibration     6          0.601              1.959              3.749
 Vibration     7          0.604              1.950              3.477
 Vibration     8          0.608              1.936              3.156
 Vibration     9          0.616              1.911              2.774
 Vibration    10          0.619              1.900              2.638
 Vibration    11          0.641              1.830              2.072
 Vibration    12          0.660              1.771              1.764
 Vibration    13          0.662              1.764              1.734
 Vibration    14          0.672              1.736              1.624
 Vibration    15          0.678              1.715              1.549
 Vibration    16          0.682              1.704              1.510
 Vibration    17          0.703              1.644              1.334
 Vibration    18          0.717              1.604              1.233
 Vibration    19          0.738              1.545              1.102
 Vibration    20          0.760              1.485              0.989
 Vibration    21          0.772              1.453              0.934
 Vibration    22          0.808              1.364              0.800
 Vibration    23          0.835              1.298              0.715
 Vibration    24          0.861              1.237              0.644
 Vibration    25          0.921              1.107              0.514

 Optimization completed.
    -- Stationary point found.
 Normal termination of Gaussian 16 at Fri Dec 11 21:52:40 2020.

 ----------------------------------------------------------------------
 # B3LYP/6-311++G(d,p) empiricaldispersion=gd3bj scf=xqc pop=npa geom=c
 heck
 ----------------------------------------------------------------------

 ---------------------------------------
 CID_103573758_JID_8617_Energie_neutraal
 ---------------------------------------
 Structure from the checkpoint file:  "JID_8617.chk"
 Charge =  0 Multiplicity = 1

 SCF Done:  E(RB3LYP) =  -782.057267622     A.U. after   15 cycles
 Normal termination of Gaussian 16 at Fri Dec 11 22:01:00 2020.

 ----------------------------------------------------------------------
 # B3LYP/6-311++G(d,p) empiricaldispersion=gd3bj scf=xqc pop=npa geom=c
 heck
 ----------------------------------------------------------------------

 -------------------------------------
 CID_103573758_JID_8617_Energie_kation
 -------------------------------------
 Structure from the checkpoint file:  "JID_8617.chk"
 Charge =  1 Multiplicity = 2

 SCF Done:  E(UB3LYP) =  -781.781891710     A.U. after   23 cycles
 Normal termination of Gaussian 16 at Fri Dec 11 22:19:05 2020.
 Gaussian 16:  ES64L-G16RevA.03 25-Dec-2016

 ----------------------------------------------------------------------
 # B3LYP/6-311++G(d,p) empiricaldispersion=gd3bj scf=xqc pop=npa geom=c
 heck
 ----------------------------------------------------------------------

 ------------------------------------
 CID_103573758_JID_8617_Energie_anion
 ------------------------------------
 Structure from the checkpoint file:  "JID_8617.chk"
 Charge = -1 Multiplicity = 2

                         Standard orientation:
 ---------------------------------------------------------------------
 Center     Atomic      Atomic             Coordinates (Angstroms)
 Number     Number       Type             X           Y           Z
 ---------------------------------------------------------------------
      1          6           0        5.029220    0.982344    0.088292
      2          6           0        4.997232   -0.546220    0.123619
      3          6           0        3.787065   -1.106715    0.877631
      4          7           0        2.527136   -0.707417    0.267503
      5          6           0        1.645579    0.227961    0.702987
      6          6           0        0.654035    0.342355   -0.265662
      7          6           0        1.053212   -0.590090   -1.261896
      8          7           0        2.181794   -1.218153   -0.935657
      9          6           0       -0.473643    1.260176   -0.225359
     10          6           0       -0.553302    2.559339    0.239281
     11          7           0       -1.825937    3.060673    0.106319
     12          6           0       -2.519378    2.080174   -0.433077
     13          7           0       -1.761020    0.963199   -0.665403
     14          6           0       -2.275614   -0.322933   -1.113984
     15          6           0       -2.238016   -1.413018   -0.027534
     16          6           0       -2.873822   -0.966936    1.305379
     17          6           0       -4.369986   -0.648193    1.238642
     18          7           0       -2.804852   -2.622807   -0.635315
     19          1           0        4.146527    1.382965   -0.420877
     20          1           0        5.915206    1.342463   -0.444626
     21          1           0        5.053780    1.404061    1.101055
     22          1           0        4.977898   -0.947004   -0.895779
     23          1           0        5.902706   -0.935952    0.606398
     24          1           0        3.816023   -2.200035    0.896340
     25          1           0        3.769485   -0.746620    1.911520
     26          1           0        1.766301    0.730179    1.651600
     27          1           0        0.566699   -0.821708   -2.199506
     28          1           0        0.254878    3.160589    0.634543
     29          1           0       -3.568805    2.113619   -0.694680
     30          1           0       -3.305864   -0.152978   -1.443471
     31          1           0       -1.717509   -0.675747   -1.983673
     32          1           0       -1.183335   -1.631728    0.170337
     33          1           0       -2.707529   -1.770129    2.036248
     34          1           0       -2.329321   -0.092282    1.681418
     35          1           0       -4.951900   -1.502743    0.872163
     36          1           0       -4.755812   -0.395311    2.231354
     37          1           0       -4.576413    0.205250    0.584299
     38          1           0       -2.652822   -3.419113   -0.018929
     39          1           0       -3.815534   -2.525700   -0.727776
 ---------------------------------------------------------------------

 SCF Done:  E(UB3LYP) =  -782.048945341     A.U. after   33 cycles
 SCF Done:  E(UB3LYP) =  -782.048945341     a.u. after    1 cycles

 The electronic state is 2-A.
 Alpha  occ. eigenvalues --  -14.30472 -14.28540 -14.24432 -14.20918 -14.20655
 Alpha  occ. eigenvalues --  -10.13639 -10.13071 -10.12690 -10.12296 -10.12139
 Alpha  occ. eigenvalues --  -10.11526 -10.10752 -10.09668 -10.09611 -10.08812
 Alpha  occ. eigenvalues --  -10.07759 -10.07719 -10.07360  -0.96754  -0.93415
 Alpha  occ. eigenvalues --   -0.81609  -0.79333  -0.76690  -0.72159  -0.69300
 Alpha  occ. eigenvalues --   -0.68255  -0.65866  -0.63898  -0.60700  -0.56936
 Alpha  occ. eigenvalues --   -0.53894  -0.53332  -0.51499  -0.50050  -0.47719
 Alpha  occ. eigenvalues --   -0.46743  -0.44866  -0.42844  -0.41407  -0.39766
 Alpha  occ. eigenvalues --   -0.38564  -0.37637  -0.36935  -0.35889  -0.35147
 Alpha  occ. eigenvalues --   -0.34263  -0.34042  -0.33428  -0.32716  -0.32506
 Alpha  occ. eigenvalues --   -0.32100  -0.31505  -0.30400  -0.29961  -0.27249
 Alpha  occ. eigenvalues --   -0.27018  -0.26697  -0.26051  -0.25297  -0.24895
 Alpha  occ. eigenvalues --   -0.21568  -0.20304  -0.18762  -0.17851  -0.17359
 Alpha  occ. eigenvalues --   -0.16049  -0.12578   0.03667
 Alpha virt. eigenvalues --    0.04972   0.06595   0.07003   0.07131   0.07578
 Alpha virt. eigenvalues --    0.07976   0.08476   0.09114   0.09333   0.09670
 Alpha virt. eigenvalues --    0.09815   0.10142   0.10568   0.10820   0.11346

  Beta  occ. eigenvalues --  -14.30465 -14.28537 -14.24419 -14.20916 -14.20613
  Beta  occ. eigenvalues --  -10.13635 -10.13062 -10.12661 -10.12294 -10.12109
  Beta  occ. eigenvalues --  -10.11523 -10.10749 -10.09666 -10.09608 -10.08795
  Beta  occ. eigenvalues --  -10.07739 -10.07703 -10.07327  -0.96733  -0.93410
  Beta  occ. eigenvalues --   -0.81578  -0.79294  -0.76661  -0.72131  -0.69270
  Beta  occ. eigenvalues --   -0.68207  -0.65841  -0.63870  -0.60660  -0.56882
  Beta  occ. eigenvalues --   -0.53872  -0.53293  -0.51480  -0.50003  -0.47673
  Beta  occ. eigenvalues --   -0.46705  -0.44833  -0.42802  -0.41375  -0.39717
  Beta  occ. eigenvalues --   -0.38535  -0.37612  -0.36912  -0.35860  -0.35118
  Beta  occ. eigenvalues --   -0.34235  -0.34017  -0.33394  -0.32680  -0.32476
  Beta  occ. eigenvalues --   -0.32083  -0.31465  -0.30369  -0.29938  -0.27212
  Beta  occ. eigenvalues --   -0.26976  -0.26660  -0.26016  -0.25266  -0.24860
  Beta  occ. eigenvalues --   -0.21550  -0.20279  -0.18756  -0.17817  -0.17298
  Beta  occ. eigenvalues --   -0.16008  -0.12549
  Beta virt. eigenvalues --    0.05844   0.06083   0.07020   0.07270   0.07651
  Beta virt. eigenvalues --    0.07864   0.08447   0.08641   0.09363   0.09553
  Beta virt. eigenvalues --    0.09798   0.10156   0.10313   0.10761   0.11094

 Mulliken charges and spin densities:
               1          2
     1  C    0.142142  -0.650697
     2  C   -0.410831   0.134108
     3  C    0.803613  -0.996638
     4  N    0.351233   0.014216
     5  C   -1.179295   0.523100
     6  C    0.603886  -0.311453
     7  C    0.090785  -0.696435
     8  N   -0.269384   0.197562
     9  C    0.314559  -0.012591
    10  C   -0.307128  -0.219241
    11  N   -0.099677   0.014869
    12  C    0.138888  -0.126376
    13  N    0.111366   0.056345
    14  C    0.105827  -0.579348
    15  C    0.260327  -0.507619
    16  C   -1.002758   0.723039
    17  C    0.834014  -1.392786
    18  N   -0.261083   0.016618
    19  H    0.131919   0.020131
    20  H   -0.102665   0.239075
    21  H   -0.021109   0.166058
    22  H    0.193941  -0.030656
    23  H   -0.365889   0.517461
    24  H   -0.138893   0.321259
    25  H   -0.532752   0.698487
    26  H   -0.245505   0.434817
    27  H    0.093313   0.030170
    28  H    0.092363   0.031714
    29  H    0.103217   0.048852
    30  H   -0.011906   0.200186
    31  H    0.145331   0.042259
    32  H    0.200749   0.096841
    33  H   -0.418889   0.601479
    34  H    0.189835  -0.021062
    35  H   -0.237906   0.375641
    36  H   -0.154800   0.302596
    37  H   -0.037481   0.161253
    38  H   -0.110835   0.355766
    39  H    0.001480   0.220999
 Sum of Mulliken charges =  -1.00000   1.00000

 Dipole moment (field-independent basis, Debye):
    X=             -0.6345    Y=              3.1886    Z=             -3.9424  Tot=              5.1100
 Quadrupole moment (field-independent basis, Debye-Ang):
   XX=           -212.9695   YY=           -169.0863   ZZ=           -147.9719
   XY=             -4.6272   XZ=             -5.2379   YZ=              1.0159

 Summary of Natural Population Analysis:

                                       Natural Population
                Natural  -----------------------------------------------
    Atom  No    Charge         Core      Valence    Rydberg      Total
 -----------------------------------------------------------------------
      C    1   -0.28939      0.99966     2.28448    0.00525     3.28939
      C    2   -0.19588      0.99964     2.18838    0.00787     3.19588
      C    3   -0.07950      0.99960     2.06778    0.01212     3.07950
      N    4   -0.10447      0.99966     2.59047    0.01434     3.60447
      C    5    0.01249      0.99952     1.97699    0.01100     2.98751
      C    6   -0.09980      0.99951     2.09092    0.00937     3.09980
      C    7   -0.00597      0.99959     1.99357    0.01280     3.00597
      N    8   -0.14910      0.99973     2.63820    0.01117     3.64910
      C    9    0.05342      0.99950     1.93570    0.01138     2.94658
      C   10   -0.02618      0.99954     2.01370    0.01295     3.02618
      N   11   -0.25552      0.99973     2.74439    0.01140     3.75552
      C   12    0.10434      0.99964     1.88015    0.01587     2.89566
      N   13   -0.20314      0.99962     2.69412    0.00940     3.70314
      C   14   -0.08478      0.99958     2.07319    0.01201     3.08478
      C   15   -0.02208      0.99959     2.01015    0.01234     3.02208
      C   16   -0.20049      0.99962     2.19178    0.00909     3.20049
      C   17   -0.29078      0.99966     2.28510    0.00602     3.29078
      N   18   -0.42176      0.99977     2.91191    0.01008     3.92176
      H   19    0.10014      0.00000     0.39887    0.00099     0.39986
      H   20    0.09953      0.00000     0.39978    0.00069     0.40047
      H   21    0.09807      0.00000     0.40084    0.00109     0.40193
      H   22    0.10142      0.00000     0.39736    0.00123     0.39858
      H   23    0.10067      0.00000     0.39767    0.00166     0.39933
      H   24    0.10594      0.00000     0.39262    0.00144     0.39406
      H   25    0.10230      0.00000     0.39508    0.00261     0.39770
      H   26    0.10910      0.00000     0.38964    0.00127     0.39090
      H   27    0.09901      0.00000     0.40000    0.00098     0.40099
      H   28    0.09681      0.00000     0.40192    0.00127     0.40319
      H   29    0.09177      0.00000     0.40671    0.00152     0.40823
      H   30    0.10034      0.00000     0.39862    0.00105     0.39966
      H   31    0.10545      0.00000     0.39324    0.00131     0.39455
      H   32    0.10041      0.00000     0.39700    0.00259     0.39959
      H   33    0.09997      0.00000     0.39860    0.00143     0.40003
      H   34    0.10177      0.00000     0.39671    0.00152     0.39823
      H   35    0.09663      0.00000     0.40162    0.00175     0.40337
      H   36    0.10272      0.00000     0.39646    0.00082     0.39728
      H   37    0.09272      0.00000     0.40600    0.00128     0.40728
      H   38    0.18029      0.00000     0.31755    0.00216     0.31971
      H   39    0.17353      0.00000     0.32421    0.00225     0.32647
 =======================================================================
   * Total *    0.00000     17.99315    48.78146    0.22539    67.00000

 Normal termination of Gaussian 16 at Fri Dec 11 22:44:55 2020.
