 Gaussian 16, Revision A.03,

 -----------------------------------------------------------
 # opt freq B3LYP/6-31G(d) empiricaldispersion=gd3bj scf=xqc
 -----------------------------------------------------------

 ------------------------------
 CID_61354868_JID_3752_neutraal
 ------------------------------
 Symbolic Z-matrix:
 Charge =  0 Multiplicity = 1

 SCF Done:  E(RB3LYP) =  -1009.72922277     A.U. after   15 cycles
 SCF Done:  E(RB3LYP) =  -1009.73396316     A.U. after   12 cycles
 SCF Done:  E(RB3LYP) =  -1009.73466152     A.U. after   12 cycles
 SCF Done:  E(RB3LYP) =  -1009.73435361     A.U. after   13 cycles
 SCF Done:  E(RB3LYP) =  -1009.73529301     A.U. after   12 cycles
 SCF Done:  E(RB3LYP) =  -1009.73598754     A.U. after   11 cycles
 SCF Done:  E(RB3LYP) =  -1009.73612882     A.U. after   12 cycles
 SCF Done:  E(RB3LYP) =  -1009.73623147     A.U. after   11 cycles
 SCF Done:  E(RB3LYP) =  -1009.73633941     A.U. after   11 cycles
 SCF Done:  E(RB3LYP) =  -1009.73653714     A.U. after   11 cycles
 SCF Done:  E(RB3LYP) =  -1009.73675911     A.U. after    7 cycles
 SCF Done:  E(RB3LYP) =  -1009.73675923     A.U. after    7 cycles
 SCF Done:  E(RB3LYP) =  -1009.73675926     A.U. after    7 cycles
 SCF Done:  E(RB3LYP) =  -1009.73675929     A.U. after    7 cycles
 SCF Done:  E(RB3LYP) =  -1009.73675931     A.U. after    7 cycles
 SCF Done:  E(RB3LYP) =  -1009.73675933     A.U. after    7 cycles
 Optimization completed.
    -- Stationary point found.
 Normal termination of Gaussian 16 at Mon Dec 14 18:49:56 2020.

 --------------------------------------------------------------------
 #N Geom=AllCheck Guess=TCheck SCRF=Check GenChk RB3LYP/6-31G(d) Freq
 --------------------------------------------------------------------

 Structure from the checkpoint file:  "JID_3752.chk"
 ------------------------------
 CID_61354868_JID_3752_neutraal
 ------------------------------
 Charge =  0 Multiplicity = 1

 SCF Done:  E(RB3LYP) =  -1009.73675933     A.U. after    1 cycles

  Exact polarizability: 132.746  -6.907 111.102   0.719  -1.910  94.839
 Approx polarizability: 160.143  -2.172 174.061  -2.569  -5.724 151.717

                      1                      2                      3
                      A                      A                      A
 Frequencies --     26.1776                41.4130                69.4050
 Red. masses --      3.7562                 4.9478                 2.4048
 Frc consts  --      0.0015                 0.0050                 0.0068
 IR Inten    --      5.6659                 5.6863                 0.3032

                      4                      5                      6
                      A                      A                      A
 Frequencies --     89.1070                95.2340               110.5673
 Red. masses --      2.9699                 1.9843                 1.6985
 Frc consts  --      0.0139                 0.0106                 0.0122
 IR Inten    --      1.8934                 1.0214                 0.1417

                      7                      8                      9
                      A                      A                      A
 Frequencies --    152.3923               170.0688               180.5418
 Red. masses --      1.9344                 3.2443                 1.9157
 Frc consts  --      0.0265                 0.0553                 0.0368
 IR Inten    --      1.5362                 0.6112                 1.0139

                     10                     11                     12
                      A                      A                      A
 Frequencies --    218.4467               223.6070               228.6830
 Red. masses --      1.3694                 1.3967                 3.4133
 Frc consts  --      0.0385                 0.0411                 0.1052
 IR Inten    --      0.3088                 1.2334                 2.7154

                     13                     14                     15
                      A                      A                      A
 Frequencies --    258.8912               271.3609               288.2658
 Red. masses --      1.7014                 2.8038                 2.5225
 Frc consts  --      0.0672                 0.1216                 0.1235
 IR Inten    --      2.0415                 3.4369                 0.6715

                     16                     17                     18
                      A                      A                      A
 Frequencies --    318.7627               338.6339               394.4724
 Red. masses --      3.6315                 3.5666                 4.8376
 Frc consts  --      0.2174                 0.2410                 0.4435
 IR Inten    --      4.1810                 4.6339                 5.2616

                     19                     20                     21
                      A                      A                      A
 Frequencies --    411.1085               422.7150               484.7424
 Red. masses --      4.5427                 2.6350                 4.0674
 Frc consts  --      0.4524                 0.2774                 0.5631
 IR Inten    --      5.4921                 1.5354                25.9012

                     22                     23                     24
                      A                      A                      A
 Frequencies --    512.8206               542.3563               622.1409
 Red. masses --      6.5283                 1.8826                 3.9449
 Frc consts  --      1.0115                 0.3263                 0.8996
 IR Inten    --     19.3596               102.0856                 5.8759

                     25                     26                     27
                      A                      A                      A
 Frequencies --    655.3604               705.2338               726.1443
 Red. masses --      2.8503                 4.5527                 4.1030
 Frc consts  --      0.7213                 1.3341                 1.2747
 IR Inten    --     40.6478                83.8365                28.7489

                     28                     29                     30
                      A                      A                      A
 Frequencies --    740.8087               785.4023               845.3304
 Red. masses --      4.7222                 1.3093                 3.6890
 Frc consts  --      1.5269                 0.4759                 1.5531
 IR Inten    --      4.4913                 5.6884               103.5147

                     31                     32                     33
                      A                      A                      A
 Frequencies --    924.0659               983.6826               996.2507
 Red. masses --      2.3540                 2.3742                 1.7086
 Frc consts  --      1.1843                 1.3535                 0.9992
 IR Inten    --     40.7003                15.9314                 2.3802

                     34                     35                     36
                      A                      A                      A
 Frequencies --   1069.6390              1073.2183              1089.6181
 Red. masses --      1.4482                 1.6372                 1.8915
 Frc consts  --      0.9762                 1.1111                 1.3231
 IR Inten    --     21.2696                73.0650                 3.3442

                     37                     38                     39
                      A                      A                      A
 Frequencies --   1089.9693              1118.8357              1135.0510
 Red. masses --      1.5120                 2.9474                 3.9783
 Frc consts  --      1.0584                 2.1738                 3.0198
 IR Inten    --     10.9511                41.1383               134.8876

                     40                     41                     42
                      A                      A                      A
 Frequencies --   1139.6481              1146.5790              1189.5771
 Red. masses --      1.3089                 2.3883                 1.3675
 Frc consts  --      1.0016                 1.8499                 1.1402
 IR Inten    --     20.2622                34.6098                 9.4087

                     43                     44                     45
                      A                      A                      A
 Frequencies --   1223.8164              1281.9700              1287.1260
 Red. masses --      2.3107                 1.2335                 4.8566
 Frc consts  --      2.0391                 1.1944                 4.7405
 IR Inten    --     41.0568                 9.7722                49.9943

                     46                     47                     48
                      A                      A                      A
 Frequencies --   1311.7862              1334.4452              1360.1706
 Red. masses --      2.4236                 1.4710                 1.7675
 Frc consts  --      2.4572                 1.5433                 1.9267
 IR Inten    --     80.8031                19.6804                45.1237

                     49                     50                     51
                      A                      A                      A
 Frequencies --   1387.6034              1434.9235              1441.0637
 Red. masses --      1.2764                 1.3830                 1.2327
 Frc consts  --      1.4481                 1.6778                 1.5082
 IR Inten    --     60.1609                47.5227                10.1570

                     52                     53                     54
                      A                      A                      A
 Frequencies --   1448.4324              1455.6501              1464.1588
 Red. masses --      1.6905                 1.2732                 1.3600
 Frc consts  --      2.0896                 1.5895                 1.7177
 IR Inten    --     67.1520                12.8396                23.7916

                     55                     56                     57
                      A                      A                      A
 Frequencies --   1489.6548              1491.3629              1518.5079
 Red. masses --      1.0904                 1.1940                 1.0469
 Frc consts  --      1.4256                 1.5647                 1.4223
 IR Inten    --      3.7348                24.4636                 1.7634

                     58                     59                     60
                      A                      A                      A
 Frequencies --   1522.0140              1523.9502              1526.9330
 Red. masses --      1.0521                 1.0528                 1.0627
 Frc consts  --      1.4360                 1.4406                 1.4599
 IR Inten    --     16.3249                 3.7166                 0.6957

                     61                     62                     63
                      A                      A                      A
 Frequencies --   1530.2922              1538.0388              1545.5985
 Red. masses --      1.0476                 1.0518                 1.0455
 Frc consts  --      1.4454                 1.4660                 1.4715
 IR Inten    --      7.4114                 8.3401                19.1242

                     64                     65                     66
                      A                      A                      A
 Frequencies --   1563.8029              1754.6289              3029.1849
 Red. masses --      1.2417                 9.0744                 1.0469
 Frc consts  --      1.7891                16.4603                 5.6597
 IR Inten    --     28.5011               283.3504                33.3750

                     67                     68                     69
                      A                      A                      A
 Frequencies --   3038.2975              3062.3494              3074.7899
 Red. masses --      1.0458                 1.0831                 1.0387
 Frc consts  --      5.6877                 5.9845                 5.7859
 IR Inten    --     81.6275                14.0898                20.3514

                     70                     71                     72
                      A                      A                      A
 Frequencies --   3082.7807              3083.3487              3092.1665
 Red. masses --      1.0389                 1.0595                 1.0960
 Frc consts  --      5.8172                 5.9345                 6.1741
 IR Inten    --     11.6228                 4.0655                32.8193

                     73                     74                     75
                      A                      A                      A
 Frequencies --   3096.3691              3132.9002              3142.6290
 Red. masses --      1.0983                 1.1062                 1.0996
 Frc consts  --      6.2041                 6.3973                 6.3985
 IR Inten    --     28.8679                 1.8906                16.0233

                     76                     77                     78
                      A                      A                      A
 Frequencies --   3158.1746              3165.4222              3177.0196
 Red. masses --      1.0990                 1.1039                 1.1024
 Frc consts  --      6.4582                 6.5169                 6.5557
 IR Inten    --     11.4080                12.5918                 9.8518

                     79                     80                     81
                      A                      A                      A
 Frequencies --   3198.0780              3213.1906              3541.7985
 Red. masses --      1.0971                 1.0953                 1.0754
 Frc consts  --      6.6112                 6.6627                 7.9484
 IR Inten    --      1.3404                 2.4333                22.8236

 - Thermochemistry -
 -------------------
 Temperature   298.150 Kelvin.  Pressure   1.00000 Atm.
 Atom     1 has atomic number  6 and mass  12.00000

 Molecular mass:   208.08816 amu.
 Principal axes and moments of inertia in atomic units:
                           1         2         3
     Eigenvalues --  1466.287984388.614794891.39666
           X            0.99897  -0.04479   0.00712
           Y            0.04472   0.99895   0.01046
           Z           -0.00759  -0.01013   0.99992
 This molecule is an asymmetric top.
 Rotational symmetry number  1.
 Warning -- assumption of classical behavior for rotation
           may cause significant error
 Rotational temperatures (Kelvin)      0.05907     0.01974     0.01771
 Rotational constants (GHZ):           1.23082     0.41123     0.36896
 Zero-point vibrational energy     643655.3 (Joules/Mol)
                                  153.83730 (Kcal/Mol)
 Warning -- explicit consideration of  23 degrees of freedom as
           vibrations may cause significant error
 Vibrational temperatures:     37.66    59.58    99.86   128.21   137.02
          (Kelvin)            159.08   219.26   244.69   259.76   314.30
                              321.72   329.02   372.49   390.43   414.75
                              458.63   487.22   567.56   591.49   608.19
                              697.44   737.83   780.33   895.12   942.92
                             1014.67  1044.76  1065.86  1130.02  1216.24
                             1329.52  1415.30  1433.38  1538.97  1544.12
                             1567.72  1568.22  1609.76  1633.09  1639.70
                             1649.67  1711.54  1760.80  1844.47  1851.89
                             1887.37  1919.97  1956.98  1996.45  2064.53
                             2073.37  2083.97  2094.36  2106.60  2143.28
                             2145.74  2184.79  2189.84  2192.62  2196.92
                             2201.75  2212.89  2223.77  2249.96  2524.52
                             4358.32  4371.43  4406.04  4423.94  4435.43
                             4436.25  4448.94  4454.98  4507.54  4521.54
                             4543.91  4554.34  4571.02  4601.32  4623.06
                             5095.86

 Zero-point correction=                           0.245155 (Hartree/Particle)
 Thermal correction to Energy=                    0.261064
 Thermal correction to Enthalpy=                  0.262008
 Thermal correction to Gibbs Free Energy=         0.201173
 Sum of electronic and zero-point Energies=          -1009.491604
 Sum of electronic and thermal Energies=             -1009.475695
 Sum of electronic and thermal Enthalpies=           -1009.474751
 Sum of electronic and thermal Free Energies=        -1009.535586

                     E (Thermal)             CV                S
                      KCal/Mol        Cal/Mol-Kelvin    Cal/Mol-Kelvin
 Total                  163.820             56.557            128.039
 Electronic               0.000              0.000              0.000
 Translational            0.889              2.981             41.902
 Rotational               0.889              2.981             31.821
 Vibrational            162.043             50.595             54.316
 Vibration     1          0.593              1.985              6.100
 Vibration     2          0.594              1.981              5.190
 Vibration     3          0.598              1.969              4.170
 Vibration     4          0.602              1.957              3.680
 Vibration     5          0.603              1.953              3.550
 Vibration     6          0.606              1.941              3.259
 Vibration     7          0.619              1.900              2.642
 Vibration     8          0.625              1.879              2.435
 Vibration     9          0.629              1.866              2.323
 Vibration    10          0.646              1.813              1.972
 Vibration    11          0.649              1.805              1.930
 Vibration    12          0.651              1.797              1.889
 Vibration    13          0.668              1.748              1.669
 Vibration    14          0.675              1.726              1.588
 Vibration    15          0.685              1.696              1.484
 Vibration    16          0.705              1.638              1.316
 Vibration    17          0.719              1.598              1.219
 Vibration    18          0.761              1.482              0.983
 Vibration    19          0.775              1.446              0.923
 Vibration    20          0.785              1.421              0.883
 Vibration    21          0.841              1.284              0.697
 Vibration    22          0.868              1.222              0.627
 Vibration    23          0.897              1.156              0.560

 Optimization completed.
    -- Stationary point found.
 Normal termination of Gaussian 16 at Mon Dec 14 18:57:29 2020.

 ----------------------------------------------------------------------
 # B3LYP/6-311++G(d,p) empiricaldispersion=gd3bj scf=xqc pop=npa geom=c
 heck
 ----------------------------------------------------------------------

 --------------------------------------
 CID_61354868_JID_3752_Energie_neutraal
 --------------------------------------
 Structure from the checkpoint file:  "JID_3752.chk"
 Charge =  0 Multiplicity = 1

 SCF Done:  E(RB3LYP) =  -1009.94979974     A.U. after   15 cycles
 Normal termination of Gaussian 16 at Mon Dec 14 19:01:10 2020.

 ----------------------------------------------------------------------
 # B3LYP/6-311++G(d,p) empiricaldispersion=gd3bj scf=xqc pop=npa geom=c
 heck
 ----------------------------------------------------------------------

 ------------------------------------
 CID_61354868_JID_3752_Energie_kation
 ------------------------------------
 Structure from the checkpoint file:  "JID_3752.chk"
 Charge =  1 Multiplicity = 2

 SCF Done:  E(UB3LYP) =  -1009.61700488     A.U. after   31 cycles
 Normal termination of Gaussian 16 at Mon Dec 14 19:12:01 2020.
 Gaussian 16:  ES64L-G16RevA.03 25-Dec-2016

 ----------------------------------------------------------------------
 # B3LYP/6-311++G(d,p) empiricaldispersion=gd3bj scf=xqc pop=npa geom=c
 heck
 ----------------------------------------------------------------------

 -----------------------------------
 CID_61354868_JID_3752_Energie_anion
 -----------------------------------
 Structure from the checkpoint file:  "JID_3752.chk"
 Charge = -1 Multiplicity = 2

                         Standard orientation:
 ---------------------------------------------------------------------
 Center     Atomic      Atomic             Coordinates (Angstroms)
 Number     Number       Type             X           Y           Z
 ---------------------------------------------------------------------
      1          6           0       -2.907644    1.869233    0.026483
      2          6           0       -2.823872    0.624268   -0.848974
      3         16           0       -1.864220   -0.747331   -0.123793
      4          8           0       -2.128179   -0.762364    1.316079
      5          8           0       -2.108876   -1.919582   -0.967447
      6          7           0       -0.226693   -0.423877   -0.348077
      7          6           0        0.465819    0.778715    0.153129
      8          6           0        0.351889    0.964377    1.670465
      9          6           0        1.942865    0.763738   -0.297230
     10          8           0        2.381903    1.782743   -0.824840
     11          7           0        2.708400   -0.353895   -0.103185
     12          6           0        2.358008   -1.504928    0.721482
     13          6           0        4.110634   -0.289576   -0.497609
     14          1           0       -3.271020    1.609254    1.023621
     15          1           0       -3.605905    2.581968   -0.424164
     16          1           0       -1.941222    2.368568    0.129232
     17          1           0       -3.811389    0.178484   -1.004481
     18          1           0       -2.386403    0.818000   -1.833161
     19          1           0        0.023877   -0.670754   -1.302332
     20          1           0        0.086328    1.681506   -0.337737
     21          1           0        0.698376    0.083843    2.214683
     22          1           0        0.962374    1.825681    1.958839
     23          1           0       -0.680528    1.149253    1.969313
     24          1           0        2.727145   -2.414502    0.234675
     25          1           0        2.830274   -1.433771    1.711338
     26          1           0        1.280563   -1.591966    0.830627
     27          1           0        4.391147   -1.221939   -0.999831
     28          1           0        4.249379    0.555990   -1.168610
     29          1           0        4.757607   -0.159255    0.380694
 ---------------------------------------------------------------------

 SCF Done:  E(UB3LYP) =  -1009.94076427     A.U. after   31 cycles

 The electronic state is 2-A.
 Alpha  occ. eigenvalues --  -88.97092 -19.02648 -19.02447 -18.99899 -14.25936
 Alpha  occ. eigenvalues --  -14.25597 -10.18493 -10.14081 -10.12060 -10.10815
 Alpha  occ. eigenvalues --  -10.10360 -10.08553 -10.08020  -8.03277  -5.99577
 Alpha  occ. eigenvalues --   -5.99520  -5.99337  -1.02874  -0.95236  -0.91987
 Alpha  occ. eigenvalues --   -0.85103  -0.83759  -0.71080  -0.68644  -0.63158
 Alpha  occ. eigenvalues --   -0.61348  -0.59237  -0.56064  -0.50805  -0.46416
 Alpha  occ. eigenvalues --   -0.44632  -0.43374  -0.41245  -0.39381  -0.38674
 Alpha  occ. eigenvalues --   -0.37817  -0.36597  -0.36175  -0.34358  -0.32854
 Alpha  occ. eigenvalues --   -0.32237  -0.31875  -0.30996  -0.30647  -0.30198
 Alpha  occ. eigenvalues --   -0.29225  -0.28471  -0.28447  -0.27537  -0.25206
 Alpha  occ. eigenvalues --   -0.23309  -0.21934  -0.21433  -0.18785  -0.17015
 Alpha  occ. eigenvalues --   -0.15767   0.03942
 Alpha virt. eigenvalues --    0.05504   0.07113   0.08069   0.08354   0.08576
 Alpha virt. eigenvalues --    0.09296   0.09799   0.10826   0.10986   0.11064
 Alpha virt. eigenvalues --    0.11599   0.12054   0.13167   0.13499   0.14042

  Beta  occ. eigenvalues --  -88.97090 -19.02634 -19.02444 -18.99892 -14.25936
  Beta  occ. eigenvalues --  -14.25577 -10.18487 -10.14071 -10.12019 -10.10779
  Beta  occ. eigenvalues --  -10.10321 -10.08507 -10.08001  -8.03274  -5.99575
  Beta  occ. eigenvalues --   -5.99518  -5.99336  -1.02853  -0.95224  -0.91965
  Beta  occ. eigenvalues --   -0.85086  -0.83730  -0.71023  -0.68607  -0.63104
  Beta  occ. eigenvalues --   -0.61295  -0.59164  -0.55996  -0.50742  -0.46367
  Beta  occ. eigenvalues --   -0.44592  -0.43341  -0.41210  -0.39337  -0.38636
  Beta  occ. eigenvalues --   -0.37778  -0.36568  -0.36145  -0.34323  -0.32785
  Beta  occ. eigenvalues --   -0.32205  -0.31830  -0.30958  -0.30614  -0.30145
  Beta  occ. eigenvalues --   -0.29189  -0.28445  -0.28402  -0.27508  -0.25184
  Beta  occ. eigenvalues --   -0.23296  -0.21914  -0.21407  -0.18756  -0.17000
  Beta  occ. eigenvalues --   -0.15748
  Beta virt. eigenvalues --    0.06253   0.06846   0.07658   0.08590   0.08890
  Beta virt. eigenvalues --    0.09121   0.09750   0.10113   0.11121   0.11378
  Beta virt. eigenvalues --    0.11572   0.11761   0.12281   0.13388   0.13655

 Mulliken charges and spin densities:
               1          2
     1  C    0.701772  -1.155137
     2  C   -0.669563   0.144148
     3  S    1.266070  -0.802613
     4  O   -0.187283   0.003457
     5  O   -0.239228   0.038111
     6  N   -0.332187   0.083308
     7  C   -0.368089   0.115206
     8  C    0.315364  -0.716743
     9  C   -0.667931   0.225996
    10  O   -0.304177   0.007862
    11  N   -0.180515   0.232255
    12  C    0.446640  -0.853855
    13  C    0.691641  -0.927849
    14  H    0.088352   0.087082
    15  H   -0.785225   0.957656
    16  H   -0.049664   0.197321
    17  H   -0.133333   0.376569
    18  H   -0.268449   0.512604
    19  H    0.149102   0.186954
    20  H    0.012547   0.226924
    21  H    0.090552   0.096805
    22  H   -0.076508   0.236408
    23  H    0.171728   0.011659
    24  H   -0.189017   0.330176
    25  H   -0.261767   0.432197
    26  H    0.385509  -0.134799
    27  H   -0.338592   0.484880
    28  H   -0.016383   0.194503
    29  H   -0.251367   0.408917
 Sum of Mulliken charges =  -1.00000   1.00000

 Dipole moment (field-independent basis, Debye):
    X=             -0.0340    Y=             -0.7450    Z=              1.9785  Tot=              2.1144
 Quadrupole moment (field-independent basis, Debye-Ang):
   XX=           -168.7272   YY=           -135.7433   ZZ=           -122.2193
   XY=              7.5367   XZ=             -5.0868   YZ=              5.8492

 Summary of Natural Population Analysis:

                                       Natural Population
                Natural  -----------------------------------------------
    Atom  No    Charge         Core      Valence    Rydberg      Total
 -----------------------------------------------------------------------
      C    1   -0.29747      0.99965     2.29032    0.00749     3.29747
      C    2   -0.28753      0.99959     2.27629    0.01164     3.28753
      S    3    1.09968      4.99928     1.80099    0.10005     6.90032
      O    4   -0.46397      0.99990     3.45851    0.00555     4.46397
      O    5   -0.46610      0.99991     3.46073    0.00547     4.46610
      N    6   -0.44803      0.99972     2.93409    0.01423     3.94803
      C    7   -0.04773      0.99956     2.03413    0.01404     3.04773
      C    8   -0.29038      0.99963     2.28551    0.00524     3.29038
      C    9    0.34392      0.99960     1.63313    0.02335     2.65608
      O   10   -0.32342      0.99988     3.31785    0.00569     4.32342
      N   11   -0.24945      0.99965     2.73920    0.01059     3.74945
      C   12   -0.18069      0.99963     2.17276    0.00830     3.18069
      C   13   -0.17910      0.99963     2.17108    0.00839     3.17910
      H   14    0.10847      0.00000     0.39038    0.00115     0.39153
      H   15    0.11078      0.00000     0.38662    0.00260     0.38922
      H   16    0.10075      0.00000     0.39777    0.00148     0.39925
      H   17    0.11730      0.00000     0.38136    0.00134     0.38270
      H   18    0.11548      0.00000     0.38243    0.00209     0.38452
      H   19    0.20345      0.00000     0.29413    0.00242     0.29655
      H   20    0.10299      0.00000     0.39466    0.00234     0.39701
      H   21    0.10488      0.00000     0.39400    0.00113     0.39512
      H   22    0.10515      0.00000     0.39387    0.00098     0.39485
      H   23    0.11147      0.00000     0.38756    0.00097     0.38853
      H   24    0.09797      0.00000     0.40062    0.00141     0.40203
      H   25    0.09259      0.00000     0.40592    0.00149     0.40741
      H   26    0.11444      0.00000     0.38385    0.00171     0.38556
      H   27    0.09592      0.00000     0.40256    0.00152     0.40408
      H   28    0.11451      0.00000     0.38438    0.00111     0.38549
      H   29    0.09410      0.00000     0.40428    0.00161     0.40590
 =======================================================================
   * Total *   -0.00000     16.99563    38.75898    0.24538    56.00000

 Normal termination of Gaussian 16 at Mon Dec 14 19:22:56 2020.
