 Gaussian 16, Revision A.03,

 -----------------------------------------------------------
 # opt freq B3LYP/6-31G(d) empiricaldispersion=gd3bj scf=xqc
 -----------------------------------------------------------

 ------------------------------
 CID_130068068_JID_116_neutraal
 ------------------------------
 Symbolic Z-matrix:
 Charge =  0 Multiplicity = 1

 SCF Done:  E(RB3LYP) =  -499.633051054     A.U. after   14 cycles
 SCF Done:  E(RB3LYP) =  -499.634198676     A.U. after   13 cycles
 SCF Done:  E(RB3LYP) =  -499.632622441     A.U. after   14 cycles
 SCF Done:  E(RB3LYP) =  -499.636004407     A.U. after   13 cycles
 SCF Done:  E(RB3LYP) =  -499.636435347     A.U. after   13 cycles
 SCF Done:  E(RB3LYP) =  -499.636468514     A.U. after   10 cycles
 SCF Done:  E(RB3LYP) =  -499.636481459     A.U. after   11 cycles
 SCF Done:  E(RB3LYP) =  -499.636586271     A.U. after   14 cycles
 SCF Done:  E(RB3LYP) =  -499.636356044     A.U. after   15 cycles
 SCF Done:  E(RB3LYP) =  -499.636932305     A.U. after   14 cycles
 SCF Done:  E(RB3LYP) =  -499.642286466     A.U. after   14 cycles
 SCF Done:  E(RB3LYP) =  -499.642850128     A.U. after   12 cycles
 SCF Done:  E(RB3LYP) =  -499.643111192     A.U. after   11 cycles
 SCF Done:  E(RB3LYP) =  -499.643171738     A.U. after   11 cycles
 SCF Done:  E(RB3LYP) =  -499.643176565     A.U. after    9 cycles
 SCF Done:  E(RB3LYP) =  -499.643177991     A.U. after    8 cycles
 Optimization completed.
    -- Stationary point found.

 1\1\GINC-NODE307\FOpt\RB3LYP\6-31G(d)\C7H12O3\VSC10255\08-Dec-2020\0\\
 # opt freq B3LYP/6-31G(d) empiricaldispersion=gd3bj scf=xqc\\CID_13006
 8068_JID_116_neutraal\\0,1\C,0.975321373,0.0526932859,-0.0913303831\C,
 0.3289325846,0.6077586321,1.1826166879\C,0.7914276264,2.0466492699,1.4
 379240341\O,0.3330457868,2.9177743416,0.4142631005\C,-1.0839645001,2.9
 733932512,0.4173196375\C,-1.6882850176,1.5824783736,0.2209240317\O,-1.
 1188489287,0.6023268484,1.0775721516\C,-1.6826621967,1.127903969,-1.23
 96393678\O,-1.7784160185,1.8827317172,-2.1803570735\C,0.6263503013,-0.

 Normal termination of Gaussian 16 at Tue Dec  8 10:21:45 2020.

 --------------------------------------------------------------------
 #N Geom=AllCheck Guess=TCheck SCRF=Check GenChk RB3LYP/6-31G(d) Freq
 --------------------------------------------------------------------

 Structure from the checkpoint file:  "JID_116.chk"
 ------------------------------
 CID_130068068_JID_116_neutraal
 ------------------------------
 Charge =  0 Multiplicity = 1

 SCF Done:  E(RB3LYP) =  -499.643177991     A.U. after    1 cycles

  Exact polarizability:  91.100   1.950  75.408  -0.686  -3.037  69.353
 Approx polarizability: 123.203   4.513 103.491   3.996   0.329 106.634

                      1                      2                      3
                      A                      A                      A
 Frequencies --     82.6773               104.3377               206.8733
 Red. masses --      5.9294                 3.6776                 2.7198
 Frc consts  --      0.0239                 0.0236                 0.0686
 IR Inten    --      4.0245                 0.3332                 7.4149

                      4                      5                      6
                      A                      A                      A
 Frequencies --    220.7944               240.6137               263.4941
 Red. masses --      1.0454                 3.4936                 2.6455
 Frc consts  --      0.0300                 0.1192                 0.1082
 IR Inten    --      0.0642                 2.9189                 1.3825

                      7                      8                      9
                      A                      A                      A
 Frequencies --    291.5433               321.0415               353.1571
 Red. masses --      1.1240                 2.4950                 2.6920
 Frc consts  --      0.0563                 0.1515                 0.1978
 IR Inten    --      1.1023                 1.4647                15.7615

                     10                     11                     12
                      A                      A                      A
 Frequencies --    360.7350               431.0767               447.4122
 Red. masses --      3.4108                 2.0450                 4.2791
 Frc consts  --      0.2615                 0.2239                 0.5047
 IR Inten    --      1.7847                10.6477                 0.2200

                     13                     14                     15
                      A                      A                      A
 Frequencies --    490.7032               550.0565               611.9915
 Red. masses --      2.7291                 3.7911                 4.4881
 Frc consts  --      0.3872                 0.6758                 0.9904
 IR Inten    --     12.1849                 4.4566                 0.6960

                     16                     17                     18
                      A                      A                      A
 Frequencies --    699.9381               784.6456               823.1950
 Red. masses --      3.2463                 3.1111                 3.7020
 Frc consts  --      0.9370                 1.1285                 1.4781
 IR Inten    --      1.7215                22.4900                10.8531

                     19                     20                     21
                      A                      A                      A
 Frequencies --    881.1828               913.2571               945.1812
 Red. masses --      2.4304                 2.0690                 2.0301
 Frc consts  --      1.1119                 1.0167                 1.0686
 IR Inten    --     18.3585                 2.9204                20.2402

                     22                     23                     24
                      A                      A                      A
 Frequencies --    952.1887               969.1202              1013.3505
 Red. masses --      1.4518                 2.1800                 1.6224
 Frc consts  --      0.7755                 1.2063                 0.9816
 IR Inten    --      0.0876                10.4436                22.2189

                     25                     26                     27
                      A                      A                      A
 Frequencies --   1041.0826              1068.2304              1104.2720
 Red. masses --      1.9255                 1.6143                 2.3714
 Frc consts  --      1.2296                 1.0853                 1.7038
 IR Inten    --     10.0938                 2.8613                 2.3554

                     28                     29                     30
                      A                      A                      A
 Frequencies --   1158.2731              1164.8767              1219.5356
 Red. masses --      4.1036                 4.9907                 1.9875
 Frc consts  --      3.2437                 3.9900                 1.7416
 IR Inten    --     15.4474               190.4269                 1.9750

                     31                     32                     33
                      A                      A                      A
 Frequencies --   1247.9555              1275.8996              1294.5321
 Red. masses --      2.7283                 1.9181                 1.4532
 Frc consts  --      2.5035                 1.8398                 1.4349
 IR Inten    --     40.6924                17.7123                12.8551

                     34                     35                     36
                      A                      A                      A
 Frequencies --   1334.5666              1341.4683              1369.8495
 Red. masses --      1.7393                 1.2761                 1.2547
 Frc consts  --      1.8252                 1.3530                 1.3871
 IR Inten    --     17.1094                 0.7310                 6.8261

                     37                     38                     39
                      A                      A                      A
 Frequencies --   1395.1898              1411.4590              1422.7522
 Red. masses --      1.2867                 1.2722                 1.2896
 Frc consts  --      1.4757                 1.4933                 1.5381
 IR Inten    --      3.6795                 9.1593                12.6408

                     40                     41                     42
                      A                      A                      A
 Frequencies --   1435.2275              1448.0857              1504.7812
 Red. masses --      1.3895                 1.2648                 1.0702
 Frc consts  --      1.6864                 1.5627                 1.4277
 IR Inten    --      8.3405                 9.4614                 1.0777

                     43                     44                     45
                      A                      A                      A
 Frequencies --   1510.9635              1514.7302              1521.9590
 Red. masses --      1.0702                 1.0539                 1.0915
 Frc consts  --      1.4395                 1.4247                 1.4896
 IR Inten    --      1.4030                 2.5157                 6.9750

                     46                     47                     48
                      A                      A                      A
 Frequencies --   1530.2107              1544.0636              1832.5573
 Red. masses --      1.0550                 1.0572                10.5740
 Frc consts  --      1.4555                 1.4850                20.9220
 IR Inten    --      1.1073                 8.3548               121.4536

                     49                     50                     51
                      A                      A                      A
 Frequencies --   2934.4570              2998.1487              3007.8063
 Red. masses --      1.0858                 1.0698                 1.0724
 Frc consts  --      5.5090                 5.6655                 5.7161
 IR Inten    --     94.1944                31.4124                61.0721

                     52                     53                     54
                      A                      A                      A
 Frequencies --   3024.2087              3057.7529              3062.8032
 Red. masses --      1.0814                 1.0352                 1.0359
 Frc consts  --      5.8270                 5.7026                 5.7253
 IR Inten    --     43.0429                15.8363                11.4742

                     55                     56                     57
                      A                      A                      A
 Frequencies --   3114.8550              3125.5957              3134.3485
 Red. masses --      1.0951                 1.1008                 1.1020
 Frc consts  --      6.2598                 6.3359                 6.3789
 IR Inten    --     15.6363                15.5923                39.7956

                     58                     59                     60
                      A                      A                      A
 Frequencies --   3137.1328              3144.2896              3145.3513
 Red. masses --      1.1032                 1.1036                 1.0939
 Frc consts  --      6.3969                 6.4287                 6.3766
 IR Inten    --     21.4594                20.7279                 6.9910

 - Thermochemistry -
 -------------------
 Temperature   298.150 Kelvin.  Pressure   1.00000 Atm.
 Atom     1 has atomic number  6 and mass  12.00000

 Molecular mass:   144.07864 amu.
 Principal axes and moments of inertia in atomic units:
                           1         2         3
     Eigenvalues --   839.043711629.160171872.05914
           X            0.99958   0.02412  -0.01592
           Y           -0.02533   0.99640  -0.08095
           Z            0.01391   0.08132   0.99659
 This molecule is an asymmetric top.
 Rotational symmetry number  1.
 Warning -- assumption of classical behavior for rotation
           may cause significant error
 Rotational temperatures (Kelvin)      0.10323     0.05316     0.04627
 Rotational constants (GHZ):           2.15095     1.10777     0.96404
 Zero-point vibrational energy     493685.9 (Joules/Mol)
                                  117.99376 (Kcal/Mol)
 Warning -- explicit consideration of  15 degrees of freedom as
           vibrations may cause significant error
 Vibrational temperatures:    118.95   150.12   297.64   317.67   346.19
          (Kelvin)            379.11   419.47   461.91   508.11   519.02
                              620.22   643.73   706.01   791.41   880.52
                             1007.05  1128.93  1184.39  1267.83  1313.97
                             1359.90  1369.99  1394.35  1457.99  1497.89
                             1536.95  1588.80  1666.50  1676.00  1754.64
                             1795.53  1835.74  1862.54  1920.14  1930.07
                             1970.91  2007.37  2030.77  2047.02  2064.97
                             2083.47  2165.04  2173.94  2179.36  2189.76
                             2201.63  2221.56  2636.64  4222.03  4313.67
                             4327.56  4351.16  4399.42  4406.69  4481.58
                             4497.04  4509.63  4513.63  4523.93  4525.46

 Zero-point correction=                           0.188035 (Hartree/Particle)
 Thermal correction to Energy=                    0.197871
 Thermal correction to Enthalpy=                  0.198816
 Thermal correction to Gibbs Free Energy=         0.153571
 Sum of electronic and zero-point Energies=           -499.455143
 Sum of electronic and thermal Energies=              -499.445307
 Sum of electronic and thermal Enthalpies=            -499.444362
 Sum of electronic and thermal Free Energies=         -499.489607

                     E (Thermal)             CV                S
                      KCal/Mol        Cal/Mol-Kelvin    Cal/Mol-Kelvin
 Total                  124.166             37.804             95.225
 Electronic               0.000              0.000              0.000
 Translational            0.889              2.981             40.807
 Rotational               0.889              2.981             29.327
 Vibrational            122.389             31.843             25.091
 Vibration     1          0.600              1.961              3.826
 Vibration     2          0.605              1.946              3.372
 Vibration     3          0.641              1.830              2.071
 Vibration     4          0.648              1.809              1.953
 Vibration     5          0.658              1.778              1.798
 Vibration     6          0.670              1.740              1.639
 Vibration     7          0.687              1.689              1.465
 Vibration     8          0.707              1.633              1.305
 Vibration     9          0.729              1.569              1.152
 Vibration    10          0.735              1.553              1.119
 Vibration    11          0.792              1.403              0.855
 Vibration    12          0.807              1.367              0.804
 Vibration    13          0.846              1.271              0.682
 Vibration    14          0.905              1.140              0.544
 Vibration    15          0.971              1.006              0.429

                           ! Non-Optimized Parameters !

 1\1\GINC-NODE307\Freq\RB3LYP\6-31G(d)\C7H12O3\VSC10255\08-Dec-2020\0\\
 #N Geom=AllCheck Guess=TCheck SCRF=Check GenChk RB3LYP/6-31G(d) Freq\\
 CID_130068068_JID_116_neutraal\\0,1\C,0.975321373,0.0526932859,-0.0913
 303831\C,0.3289325846,0.6077586321,1.1826166879\C,0.7914276264,2.04664
 92699,1.4379240341\O,0.3330457868,2.9177743416,0.4142631005\C,-1.08396
 45001,2.9733932512,0.4173196375\C,-1.6882850176,1.5824783736,0.2209240
 317\O,-1.1188489287,0.6023268484,1.0775721516\C,-1.6826621967,1.127903
 969,-1.2396393678\O,-1.7784160185,1.8827317172,-2.1803570735\C,0.62635

 Normal termination of Gaussian 16 at Tue Dec  8 10:25:44 2020.

 ----------------------------------------------------------------------
 # B3LYP/6-311++G(d,p) empiricaldispersion=gd3bj scf=xqc pop=npa geom=c
 heck
 ----------------------------------------------------------------------

 --------------------------------------
 CID_130068068_JID_116_Energie_neutraal
 --------------------------------------
 Structure from the checkpoint file:  "JID_116.chk"
 Charge =  0 Multiplicity = 1

 SCF Done:  E(RB3LYP) =  -499.791471749     A.U. after   14 cycles
 Normal termination of Gaussian 16 at Tue Dec  8 10:27:04 2020.

 ----------------------------------------------------------------------
 # B3LYP/6-311++G(d,p) empiricaldispersion=gd3bj scf=xqc pop=npa geom=c
 heck
 ----------------------------------------------------------------------

 ------------------------------------
 CID_130068068_JID_116_Energie_kation
 ------------------------------------
 Structure from the checkpoint file:  "JID_116.chk"
 Charge =  1 Multiplicity = 2

 SCF Done:  E(UB3LYP) =  -499.463430191     A.U. after   19 cycles
 Normal termination of Gaussian 16 at Tue Dec  8 10:29:29 2020.
 Gaussian 16:  ES64L-G16RevA.03 25-Dec-2016

 -----------------------------------
 CID_130068068_JID_116_Energie_anion
 -----------------------------------
 Structure from the checkpoint file:  "JID_116.chk"
 Charge = -1 Multiplicity = 2

                         Standard orientation:
 ---------------------------------------------------------------------
 Center     Atomic      Atomic             Coordinates (Angstroms)
 Number     Number       Type             X           Y           Z
 ---------------------------------------------------------------------
      1          6           0       -0.939384   -1.157298    1.222638
      2          6           0       -1.256626   -0.246452    0.031599
      3          6           0       -1.138567    1.227647    0.434817
      4          8           0        0.201285    1.557718    0.770535
      5          6           0        1.040166    1.410933   -0.363376
      6          6           0        0.980944   -0.016426   -0.908863
      7          8           0       -0.346835   -0.495226   -1.071817
      8          6           0        1.841530   -0.998283   -0.111828
      9          8           0        2.866629   -0.690950    0.452621
     10          6           0       -2.637844   -0.544089   -0.539758
     11          1           0        0.009968   -0.885289    1.693055
     12          1           0       -0.897148   -2.201972    0.900740
     13          1           0       -1.720144   -1.062861    1.985550
     14          1           0       -1.488458    1.864392   -0.394097
     15          1           0       -1.744961    1.436378    1.320872
     16          1           0        2.058933    1.638065   -0.042865
     17          1           0        0.733461    2.117017   -1.150727
     18          1           0        1.410135   -0.020314   -1.922675
     19          1           0        1.473525   -2.046464   -0.136761
     20          1           0       -2.694335   -1.589528   -0.858440
     21          1           0       -3.414278   -0.368148    0.212357
     22          1           0       -2.836653    0.090194   -1.409091
 ---------------------------------------------------------------------

 SCF Done:  E(UB3LYP) =  -499.781423295     A.U. after   29 cycles

 The electronic state is 2-A.
 Alpha  occ. eigenvalues --  -19.01562 -19.01026 -18.97705 -10.11848 -10.10486
 Alpha  occ. eigenvalues --  -10.10444 -10.10288 -10.09996 -10.04842 -10.04504
 Alpha  occ. eigenvalues --   -0.94587  -0.91193  -0.90529  -0.70017  -0.62275
 Alpha  occ. eigenvalues --   -0.58600  -0.57623  -0.53010  -0.46905  -0.41935
 Alpha  occ. eigenvalues --   -0.39290  -0.38355  -0.36665  -0.35773  -0.33569
 Alpha  occ. eigenvalues --   -0.31603  -0.30313  -0.28765  -0.28069  -0.27301
 Alpha  occ. eigenvalues --   -0.26637  -0.26048  -0.25142  -0.23908  -0.22841
 Alpha  occ. eigenvalues --   -0.18961  -0.17796  -0.14139  -0.11420   0.05091
 Alpha virt. eigenvalues --    0.07474   0.08486   0.09405   0.09632   0.10696
 Alpha virt. eigenvalues --    0.11509   0.11759   0.12384   0.12701   0.14107
 Alpha virt. eigenvalues --    0.14669   0.15161   0.15641   0.17177   0.18022

  Beta  occ. eigenvalues --  -19.01553 -19.01012 -18.97416 -10.11849 -10.10506
  Beta  occ. eigenvalues --  -10.10267 -10.10153 -10.09959 -10.04802 -10.04463
  Beta  occ. eigenvalues --   -0.94550  -0.90876  -0.90271  -0.69971  -0.62163
  Beta  occ. eigenvalues --   -0.58499  -0.57522  -0.52798  -0.46493  -0.41750
  Beta  occ. eigenvalues --   -0.39213  -0.38309  -0.36482  -0.35670  -0.33463
  Beta  occ. eigenvalues --   -0.31339  -0.30181  -0.28638  -0.27993  -0.27012
  Beta  occ. eigenvalues --   -0.26575  -0.25502  -0.25061  -0.23846  -0.21991
  Beta  occ. eigenvalues --   -0.18879  -0.17723  -0.14051  -0.11238
  Beta virt. eigenvalues --    0.07900   0.09051   0.09846   0.09938   0.10670
  Beta virt. eigenvalues --    0.11423   0.11837   0.12265   0.12719   0.13130
  Beta virt. eigenvalues --    0.14354   0.15016   0.15264   0.15771   0.17151

 Mulliken charges and spin densities:
               1          2
     1  C    0.715181  -1.183702
     2  C   -1.411177   1.282128
     3  C    0.568780  -0.989825
     4  O   -0.090922   0.019190
     5  C    0.900506  -1.289238
     6  C   -0.485155   0.764328
     7  O    0.009837  -0.040664
     8  C    0.161740  -0.213814
     9  O   -0.294935   0.093936
    10  C    0.513949  -0.926375
    11  H    0.103931   0.089706
    12  H    0.087649   0.068301
    13  H   -0.220184   0.378453
    14  H   -0.019228   0.172743
    15  H   -0.200933   0.368381
    16  H    0.175494   0.014935
    17  H   -0.417098   0.561221
    18  H   -0.369249   0.583013
    19  H    0.097282  -0.026017
    20  H   -0.180706   0.332598
    21  H   -0.365787   0.510099
    22  H   -0.278974   0.430604
 Sum of Mulliken charges =  -1.00000   1.00000

 Dipole moment (field-independent basis, Debye):
    X=              0.9987    Y=             -0.7979    Z=              0.3571  Tot=              1.3272
 Quadrupole moment (field-independent basis, Debye-Ang):
   XX=           -112.9033   YY=            -85.8200   ZZ=            -91.7956
   XY=             -0.0681   XZ=              0.5822   YZ=              3.5028

 Summary of Natural Population Analysis:

                                       Natural Population
                Natural  -----------------------------------------------
    Atom  No    Charge         Core      Valence    Rydberg      Total
 -----------------------------------------------------------------------
      C    1   -0.30271      0.99960     2.29561    0.00750     3.30271
      C    2    0.11869      0.99952     1.86513    0.01666     2.88131
      C    3   -0.02095      0.99949     2.00740    0.01406     3.02095
      O    4   -0.29756      0.99989     3.28865    0.00901     4.29756
      C    5   -0.02156      0.99956     2.00777    0.01423     3.02156
      C    6    0.00339      0.99953     1.98158    0.01550     2.99661
      O    7   -0.31115      0.99988     3.29988    0.01140     4.31115
      C    8    0.24900      0.99972     1.73052    0.02075     2.75100
      O    9   -0.26343      0.99988     3.25708    0.00647     4.26343
      C   10   -0.28928      0.99960     2.28213    0.00755     3.28928
      H   11    0.10963      0.00000     0.38912    0.00125     0.39037
      H   12    0.10147      0.00000     0.39747    0.00106     0.39853
      H   13    0.10363      0.00000     0.39505    0.00131     0.39637
      H   14    0.08343      0.00000     0.41476    0.00181     0.41657
      H   15    0.09469      0.00000     0.40382    0.00149     0.40531
      H   16    0.10296      0.00000     0.39575    0.00129     0.39704
      H   17    0.08082      0.00000     0.41731    0.00187     0.41918
      H   18    0.10714      0.00000     0.39043    0.00242     0.39286
      H   19    0.04139      0.00000     0.45623    0.00239     0.45861
      H   20    0.10338      0.00000     0.39538    0.00124     0.39662
      H   21    0.10264      0.00000     0.39535    0.00201     0.39736
      H   22    0.10436      0.00000     0.39415    0.00150     0.39564
 =======================================================================
   * Total *    0.00000      9.99668    28.86057    0.14275    39.00000

 Normal termination of Gaussian 16 at Tue Dec  8 10:34:45 2020.
