 Gaussian 16, Revision A.03,

 -----------------------------------------------------------
 # opt freq B3LYP/6-31G(d) empiricaldispersion=gd3bj scf=xqc
 -----------------------------------------------------------

 ------------------------------
 CID_99824955_JID_8859_neutraal
 ------------------------------
 Symbolic Z-matrix:
 Charge =  0 Multiplicity = 1

 SCF Done:  E(RB3LYP) =  -823.002300884     A.U. after   15 cycles
 SCF Done:  E(RB3LYP) =  -823.010918836     A.U. after   13 cycles
 SCF Done:  E(RB3LYP) =  -823.011190224     A.U. after   12 cycles
 SCF Done:  E(RB3LYP) =  -823.011861531     A.U. after   12 cycles
 SCF Done:  E(RB3LYP) =  -823.011868926     A.U. after   12 cycles
 SCF Done:  E(RB3LYP) =  -823.011744409     A.U. after   12 cycles
 SCF Done:  E(RB3LYP) =  -823.012048679     A.U. after   11 cycles
 SCF Done:  E(RB3LYP) =  -823.012073902     A.U. after   11 cycles
 SCF Done:  E(RB3LYP) =  -823.012089111     A.U. after   11 cycles
 SCF Done:  E(RB3LYP) =  -823.012090932     A.U. after    9 cycles
 SCF Done:  E(RB3LYP) =  -823.012091386     A.U. after    8 cycles
 Optimization completed.
    -- Stationary point found.
 Normal termination of Gaussian 16 at Fri Dec 11 22:12:29 2020.

 --------------------------------------------------------------------
 #N Geom=AllCheck Guess=TCheck SCRF=Check GenChk RB3LYP/6-31G(d) Freq
 --------------------------------------------------------------------

 Structure from the checkpoint file:  "JID_8859.chk"
 ------------------------------
 CID_99824955_JID_8859_neutraal
 ------------------------------
 Charge =  0 Multiplicity = 1

 SCF Done:  E(RB3LYP) =  -823.012091386     A.U. after    1 cycles

  Exact polarizability: 247.970  -8.889 153.916  11.428  -5.290  88.985
 Approx polarizability: 347.259 -13.900 269.209  22.446  -8.960 141.748

                      1                      2                      3
                      A                      A                      A
 Frequencies --     18.0238                35.1556                43.7391
 Red. masses --      4.0091                 4.8380                 5.2484
 Frc consts  --      0.0008                 0.0035                 0.0059
 IR Inten    --      0.6242                 0.4971                 0.0457

                      4                      5                      6
                      A                      A                      A
 Frequencies --     70.4922               132.1177               134.9271
 Red. masses --      6.3523                 4.4432                 1.4060
 Frc consts  --      0.0186                 0.0457                 0.0151
 IR Inten    --      0.6615                 0.0916                 2.6694

                      7                      8                      9
                      A                      A                      A
 Frequencies --    184.3960               190.1028               194.1314
 Red. masses --      4.2813                 2.2499                 3.0483
 Frc consts  --      0.0858                 0.0479                 0.0677
 IR Inten    --      0.6184                 3.6235                 3.4817

                     10                     11                     12
                      A                      A                      A
 Frequencies --    205.4592               240.3995               249.9965
 Red. masses --      2.2099                 1.2328                 1.9243
 Frc consts  --      0.0550                 0.0420                 0.0709
 IR Inten    --      1.1254                 1.0726                 1.1299

                     13                     14                     15
                      A                      A                      A
 Frequencies --    286.8785               309.6521               327.8137
 Red. masses --      1.5135                 4.0405                 4.7726
 Frc consts  --      0.0734                 0.2283                 0.3022
 IR Inten    --      1.8851                 4.1719                 1.3253

                     16                     17                     18
                      A                      A                      A
 Frequencies --    348.3281               359.6785               416.1259
 Red. masses --      2.6537                 5.9083                 3.5077
 Frc consts  --      0.1897                 0.4503                 0.3579
 IR Inten    --      1.8067                 3.3108                 0.4499

                     19                     20                     21
                      A                      A                      A
 Frequencies --    431.0374               456.5818               489.5253
 Red. masses --      3.8320                 4.6347                 3.6715
 Frc consts  --      0.4195                 0.5693                 0.5184
 IR Inten    --      4.1395                 4.2476                 3.1869

                     22                     23                     24
                      A                      A                      A
 Frequencies --    494.6206               527.7559               539.7002
 Red. masses --      3.2651                 4.3793                 6.8051
 Frc consts  --      0.4706                 0.7187                 1.1679
 IR Inten    --      6.8075                 0.7177                 0.7807

                     25                     26                     27
                      A                      A                      A
 Frequencies --    551.7016               613.2597               630.3518
 Red. masses --      5.3078                 3.9789                 7.0127
 Frc consts  --      0.9519                 0.8817                 1.6417
 IR Inten    --      5.6284                14.8853                 3.4378

                     28                     29                     30
                      A                      A                      A
 Frequencies --    656.1704               741.9436               752.6732
 Red. masses --      3.3809                 8.0742                 6.5153
 Frc consts  --      0.8577                 2.6187                 2.1747
 IR Inten    --      0.7558                 5.6743                 3.8186

                     31                     32                     33
                      A                      A                      A
 Frequencies --    769.0306               788.6140               796.3341
 Red. masses --      1.4184                 4.8218                 3.1579
 Frc consts  --      0.4942                 1.7668                 1.1799
 IR Inten    --     30.3314                 4.2752                 9.0032

                     34                     35                     36
                      A                      A                      A
 Frequencies --    821.7290               873.2336               881.7473
 Red. masses --      3.5758                 2.5509                 1.6100
 Frc consts  --      1.4226                 1.1461                 0.7375
 IR Inten    --      9.9586                 5.1493                 5.1179

                     37                     38                     39
                      A                      A                      A
 Frequencies --    917.5829               932.0256               937.8033
 Red. masses --      3.4177                 2.0589                 1.4226
 Frc consts  --      1.6954                 1.0537                 0.7372
 IR Inten    --      5.2971                25.1974                 0.8440

                     40                     41                     42
                      A                      A                      A
 Frequencies --    953.6470               963.5406               967.4606
 Red. masses --      1.4729                 2.0846                 1.4744
 Frc consts  --      0.7892                 1.1403                 0.8131
 IR Inten    --      0.4362                 3.9417                 4.5439

                     43                     44                     45
                      A                      A                      A
 Frequencies --    998.7027              1009.1715              1035.1318
 Red. masses --      1.2780                 4.5348                 1.3344
 Frc consts  --      0.7510                 2.7210                 0.8424
 IR Inten    --      0.0622                18.5204                 0.6229

                     46                     47                     48
                      A                      A                      A
 Frequencies --   1049.3840              1116.2350              1125.4236
 Red. masses --      2.1749                 3.4297                 4.6038
 Frc consts  --      1.4111                 2.5178                 3.4356
 IR Inten    --      1.8921               435.3703               227.9190

                     49                     50                     51
                      A                      A                      A
 Frequencies --   1156.8057              1180.6340              1188.1810
 Red. masses --      1.6132                 1.3316                 1.2752
 Frc consts  --      1.2719                 1.0936                 1.0607
 IR Inten    --     48.3818                75.3307                 2.5522

                     52                     53                     54
                      A                      A                      A
 Frequencies --   1192.7193              1197.4855              1244.2144
 Red. masses --      1.5886                 2.0680                 2.9280
 Frc consts  --      1.3315                 1.7472                 2.6707
 IR Inten    --    150.3794                15.3642                58.8226

                     55                     56                     57
                      A                      A                      A
 Frequencies --   1251.9744              1256.9588              1264.8387
 Red. masses --      3.1740                 2.2506                 1.9620
 Frc consts  --      2.9312                 2.0950                 1.8494
 IR Inten    --    100.2703                84.6787                21.6385

                     58                     59                     60
                      A                      A                      A
 Frequencies --   1283.8632              1301.8169              1391.5672
 Red. masses --      3.1347                 1.7039                 5.0531
 Frc consts  --      3.0442                 1.7013                 5.7652
 IR Inten    --     26.2446                30.5011                57.9719

                     61                     62                     63
                      A                      A                      A
 Frequencies --   1406.3766              1416.0875              1417.7554
 Red. masses --      1.9512                 4.0583                 1.2424
 Frc consts  --      2.2739                 4.7949                 1.4714
 IR Inten    --      1.1130                 2.2516                 7.7202

                     64                     65                     66
                      A                      A                      A
 Frequencies --   1439.3259              1472.9261              1498.9350
 Red. masses --      1.2327                 2.8852                 1.1380
 Frc consts  --      1.5046                 3.6880                 1.5064
 IR Inten    --      9.9996                35.5257                 0.3784

                     67                     68                     69
                      A                      A                      A
 Frequencies --   1509.0316              1513.2508              1515.6129
 Red. masses --      1.0517                 2.7582                 1.0527
 Frc consts  --      1.4111                 3.7214                 1.4247
 IR Inten    --      1.7044                18.4295                 0.0252

                     70                     71                     72
                      A                      A                      A
 Frequencies --   1525.0657              1528.3595              1537.1989
 Red. masses --      1.0564                 1.0505                 1.0504
 Frc consts  --      1.4477                 1.4458                 1.4624
 IR Inten    --     13.4659                 0.8304                 7.6903

                     73                     74                     75
                      A                      A                      A
 Frequencies --   1544.7402              1554.7649              1620.2658
 Red. masses --      1.0610                 3.4141                 7.1402
 Frc consts  --      1.4917                 4.8625                11.0442
 IR Inten    --      7.5341                20.4337                 2.7481

                     76                     77                     78
                      A                      A                      A
 Frequencies --   1671.0349              1681.3390              1849.8424
 Red. masses --      6.0658                 6.4167                12.8206
 Frc consts  --      9.9794                10.6874                25.8481
 IR Inten    --     18.2833                 1.8598               187.2019

                     79                     80                     81
                      A                      A                      A
 Frequencies --   3030.9266              3068.1076              3071.9740
 Red. masses --      1.0398                 1.0354                 1.0348
 Frc consts  --      5.6277                 5.7423                 5.7536
 IR Inten    --     55.7470                19.4929                 8.5275

                     82                     83                     84
                      A                      A                      A
 Frequencies --   3102.8668              3136.3040              3145.5411
 Red. masses --      1.0971                 1.1032                 1.1036
 Frc consts  --      6.2232                 6.3934                 6.4334
 IR Inten    --     37.0392                16.8652                18.1013

                     85                     86                     87
                      A                      A                      A
 Frequencies --   3148.5773              3157.6438              3163.2126
 Red. masses --      1.1026                 1.1032                 1.1019
 Frc consts  --      6.4400                 6.4809                 6.4963
 IR Inten    --     31.7436                 3.6107                30.3643

                     88                     89                     90
                      A                      A                      A
 Frequencies --   3183.7094              3190.0716              3195.8552
 Red. masses --      1.0867                 1.0910                 1.0894
 Frc consts  --      6.4900                 6.5415                 6.5558
 IR Inten    --      2.1844                20.3462                10.9229

                     91                     92                     93
                      A                      A                      A
 Frequencies --   3208.0409              3209.8499              3223.3663
 Red. masses --      1.0922                 1.0940                 1.0955
 Frc consts  --      6.6228                 6.6412                 6.7060
 IR Inten    --      8.7064                22.5187                13.4790

 - Thermochemistry -
 -------------------
 Temperature   298.150 Kelvin.  Pressure   1.00000 Atm.
 Atom     1 has atomic number  6 and mass  12.00000

 Molecular mass:   245.10519 amu.
 Principal axes and moments of inertia in atomic units:
                           1         2         3
     Eigenvalues --  1387.348279711.46067**********
           X            0.99998  -0.00221   0.00634
           Y            0.00226   0.99997  -0.00744
           Z           -0.00632   0.00746   0.99995
 This molecule is an asymmetric top.
 Rotational symmetry number  1.
 Warning -- assumption of classical behavior for rotation
           may cause significant error
 Rotational temperatures (Kelvin)      0.06243     0.00892     0.00833
 Rotational constants (GHZ):           1.30086     0.18584     0.17358
 Zero-point vibrational energy     702318.9 (Joules/Mol)
                                  167.85825 (Kcal/Mol)
 Warning -- explicit consideration of  26 degrees of freedom as
           vibrations may cause significant error
 Vibrational temperatures:     25.93    50.58    62.93   101.42   190.09
          (Kelvin)            194.13   265.30   273.52   279.31   295.61
                              345.88   359.69   412.75   445.52   471.65
                              501.17   517.50   598.71   620.17   656.92
                              704.32   711.65   759.32   776.51   793.78
                              882.34   906.94   944.08  1067.49  1082.93
                             1106.46  1134.64  1145.75  1182.28  1256.39
                             1268.64  1320.20  1340.98  1349.29  1372.09
                             1386.32  1391.96  1436.91  1451.97  1489.32
                             1509.83  1606.01  1619.23  1664.39  1698.67
                             1709.53  1716.06  1722.91  1790.15  1801.31
                             1808.48  1819.82  1847.19  1873.02  2002.15
                             2023.46  2037.43  2039.83  2070.87  2119.21
                             2156.63  2171.16  2177.23  2180.63  2194.23
                             2198.97  2211.69  2222.54  2236.96  2331.20
                             2404.25  2419.07  2661.51  4360.83  4414.32
                             4419.89  4464.33  4512.44  4525.73  4530.10
                             4543.15  4551.16  4580.65  4589.80  4598.12
                             4615.66  4618.26  4637.71

 Zero-point correction=                           0.267499 (Hartree/Particle)
 Thermal correction to Energy=                    0.283953
 Thermal correction to Enthalpy=                  0.284898
 Thermal correction to Gibbs Free Energy=         0.222166
 Sum of electronic and zero-point Energies=           -822.744592
 Sum of electronic and thermal Energies=              -822.728138
 Sum of electronic and thermal Enthalpies=            -822.727194
 Sum of electronic and thermal Free Energies=         -822.789925

                     E (Thermal)             CV                S
                      KCal/Mol        Cal/Mol-Kelvin    Cal/Mol-Kelvin
 Total                  178.184             63.061            132.029
 Electronic               0.000              0.000              0.000
 Translational            0.889              2.981             42.390
 Rotational               0.889              2.981             33.304
 Vibrational            176.406             57.100             56.335
 Vibration     1          0.593              1.986              6.841
 Vibration     2          0.594              1.982              5.515
 Vibration     3          0.595              1.980              5.082
 Vibration     4          0.598              1.968              4.140
 Vibration     5          0.612              1.921              2.915
 Vibration     6          0.613              1.918              2.875
 Vibration     7          0.631              1.861              2.283
 Vibration     8          0.633              1.854              2.227
 Vibration     9          0.635              1.848              2.188
 Vibration    10          0.640              1.832              2.084
 Vibration    11          0.657              1.779              1.800
 Vibration    12          0.663              1.763              1.731
 Vibration    13          0.684              1.698              1.492
 Vibration    14          0.699              1.655              1.364
 Vibration    15          0.711              1.620              1.271
 Vibration    16          0.726              1.579              1.174
 Vibration    17          0.734              1.555              1.123
 Vibration    18          0.779              1.435              0.905
 Vibration    19          0.792              1.403              0.855
 Vibration    20          0.815              1.346              0.776
 Vibration    21          0.845              1.273              0.685
 Vibration    22          0.850              1.262              0.672
 Vibration    23          0.883              1.189              0.592
 Vibration    24          0.895              1.162              0.566
 Vibration    25          0.907              1.136              0.541
 Vibration    26          0.973              1.004              0.427

                           ! Non-Optimized Parameters !
 Normal termination of Gaussian 16 at Fri Dec 11 22:24:49 2020.

 ----------------------------------------------------------------------
 # B3LYP/6-311++G(d,p) empiricaldispersion=gd3bj scf=xqc pop=npa geom=c
 heck
 ----------------------------------------------------------------------

 --------------------------------------
 CID_99824955_JID_8859_Energie_neutraal
 --------------------------------------
 Structure from the checkpoint file:  "JID_8859.chk"
 Charge =  0 Multiplicity = 1

 SCF Done:  E(RB3LYP) =  -823.234801516     A.U. after   16 cycles
 Normal termination of Gaussian 16 at Fri Dec 11 22:31:17 2020.

 ----------------------------------------------------------------------
 # B3LYP/6-311++G(d,p) empiricaldispersion=gd3bj scf=xqc pop=npa geom=c
 heck
 ----------------------------------------------------------------------

 ------------------------------------
 CID_99824955_JID_8859_Energie_kation
 ------------------------------------
 Structure from the checkpoint file:  "JID_8859.chk"
 Charge =  1 Multiplicity = 2

 SCF Done:  E(UB3LYP) =  -822.929122043     A.U. after   26 cycles
 Normal termination of Gaussian 16 at Fri Dec 11 22:46:47 2020.
 Gaussian 16:  ES64L-G16RevA.03 25-Dec-2016

 ----------------------------------------------------------------------
 # B3LYP/6-311++G(d,p) empiricaldispersion=gd3bj scf=xqc pop=npa geom=c
 heck
 ----------------------------------------------------------------------

 -----------------------------------
 CID_99824955_JID_8859_Energie_anion
 -----------------------------------
 Structure from the checkpoint file:  "JID_8859.chk"
 Charge = -1 Multiplicity = 2

                         Standard orientation:
 ---------------------------------------------------------------------
 Center     Atomic      Atomic             Coordinates (Angstroms)
 Number     Number       Type             X           Y           Z
 ---------------------------------------------------------------------
      1          6           0        3.345289    1.990999   -0.307211
      2          6           0        3.323288    0.503960    0.075594
      3          6           0        3.596372    0.323266    1.578337
      4          6           0        1.940668   -0.063477   -0.293536
      5          8           0        1.694109   -0.829867   -1.187515
      6          8           0        0.981549    0.459712    0.544412
      7          6           0       -0.340852    0.067630    0.357489
      8          6           0       -1.290200    1.020844    0.107533
      9          6           0       -2.643633    0.615178   -0.001369
     10          6           0       -3.705617    1.519247   -0.256957
     11          6           0       -4.999885    1.060736   -0.355949
     12          6           0       -5.287059   -0.317630   -0.202345
     13          6           0       -4.276227   -1.218285    0.047646
     14          6           0       -2.932975   -0.777883    0.153740
     15          7           0       -1.960906   -1.704828    0.405975
     16          6           0       -0.718082   -1.291843    0.502739
     17          8           0        4.314440   -0.093205   -0.739245
     18          6           0        4.599514   -1.466409   -0.513932
     19          1           0        2.573087    2.545572    0.230979
     20          1           0        3.186100    2.099226   -1.383945
     21          1           0        4.327271    2.404675   -0.059921
     22          1           0        2.895457    0.917337    2.168023
     23          1           0        3.498730   -0.720508    1.891872
     24          1           0        4.616410    0.656986    1.793399
     25          1           0       -1.008545    2.063901   -0.001711
     26          1           0       -3.480265    2.576043   -0.374884
     27          1           0       -5.808830    1.758031   -0.553470
     28          1           0       -6.314005   -0.661728   -0.283570
     29          1           0       -4.468665   -2.279127    0.169331
     30          1           0        0.046376   -2.038356    0.704595
     31          1           0        5.100376   -1.629043    0.450074
     32          1           0        3.698624   -2.086864   -0.569297
     33          1           0        5.279835   -1.763462   -1.315196
 ---------------------------------------------------------------------

 SCF Done:  E(UB3LYP) =  -823.245122766     A.U. after   33 cycles
 SCF Done:  E(UB3LYP) =  -823.245122766     a.u. after    1 cycles

 The electronic state is 2-A.
 Alpha  occ. eigenvalues --  -19.05676 -19.04174 -19.00679 -14.13626 -10.19221
 Alpha  occ. eigenvalues --  -10.15709 -10.12672 -10.08451 -10.08125 -10.08071
 Alpha  occ. eigenvalues --  -10.05416 -10.04636 -10.03804 -10.02765 -10.02615
 Alpha  occ. eigenvalues --  -10.02062 -10.01844 -10.01338  -0.99896  -0.95579
 Alpha  occ. eigenvalues --   -0.91716  -0.78675  -0.71767  -0.69803  -0.65762
 Alpha  occ. eigenvalues --   -0.62337  -0.60646  -0.59608  -0.59521  -0.54934
 Alpha  occ. eigenvalues --   -0.50000  -0.49340  -0.45691  -0.44678  -0.42212
 Alpha  occ. eigenvalues --   -0.39489  -0.38815  -0.38303  -0.37610  -0.36633
 Alpha  occ. eigenvalues --   -0.35217  -0.34128  -0.33841  -0.32072  -0.31599
 Alpha  occ. eigenvalues --   -0.30415  -0.30072  -0.29591  -0.28374  -0.27861
 Alpha  occ. eigenvalues --   -0.27532  -0.27294  -0.26092  -0.25641  -0.23373
 Alpha  occ. eigenvalues --   -0.22140  -0.21506  -0.20325  -0.19487  -0.19006
 Alpha  occ. eigenvalues --   -0.16837  -0.15709  -0.10525  -0.10308  -0.09163
 Alpha  occ. eigenvalues --    0.04650
 Alpha virt. eigenvalues --    0.06077   0.07481   0.08375   0.09018   0.09534
 Alpha virt. eigenvalues --    0.09604   0.10489   0.10877   0.11465   0.11609
 Alpha virt. eigenvalues --    0.11948   0.12731   0.13046   0.13248   0.13606

  Beta  occ. eigenvalues --  -19.05692 -19.04171 -19.00620 -14.13172 -10.19170
  Beta  occ. eigenvalues --  -10.15713 -10.12670 -10.08449 -10.08064 -10.08057
  Beta  occ. eigenvalues --  -10.05483 -10.04502 -10.03887 -10.02711 -10.02550
  Beta  occ. eigenvalues --  -10.01819 -10.01447 -10.01111  -0.99838  -0.95571
  Beta  occ. eigenvalues --   -0.91644  -0.78087  -0.71732  -0.69416  -0.65247
  Beta  occ. eigenvalues --   -0.62321  -0.60410  -0.59573  -0.59145  -0.54704
  Beta  occ. eigenvalues --   -0.49393  -0.49224  -0.45361  -0.44509  -0.42140
  Beta  occ. eigenvalues --   -0.39458  -0.38743  -0.38103  -0.37478  -0.36441
  Beta  occ. eigenvalues --   -0.35174  -0.34019  -0.33671  -0.32039  -0.31537
  Beta  occ. eigenvalues --   -0.30304  -0.30052  -0.29467  -0.28219  -0.27727
  Beta  occ. eigenvalues --   -0.27424  -0.27139  -0.25732  -0.24945  -0.23339
  Beta  occ. eigenvalues --   -0.21946  -0.21318  -0.20094  -0.19132  -0.18099
  Beta  occ. eigenvalues --   -0.16685  -0.14244  -0.09940  -0.09576  -0.07353
  Beta virt. eigenvalues --    0.06019   0.07437   0.08319   0.08975   0.09424
  Beta virt. eigenvalues --    0.09639   0.10444   0.10588   0.10902   0.11423
  Beta virt. eigenvalues --    0.11586   0.11904   0.12830   0.13080   0.13181

 Mulliken charges and spin densities:
               1          2
     1  C   -0.349439  -0.057100
     2  C   -0.332383   0.123659
     3  C   -0.391327  -0.102152
     4  C   -0.097645  -0.020590
     5  O   -0.183252   0.020652
     6  O    0.040961  -0.008067
     7  C   -0.697428   0.046933
     8  C    0.374058   0.329815
     9  C    1.526920  -0.053962
    10  C   -0.023056   0.160760
    11  C   -0.232330   0.066683
    12  C   -0.417176   0.067910
    13  C   -0.289587   0.143059
    14  C   -1.833525  -0.065129
    15  N   -0.022688   0.199628
    16  C    0.277224   0.088674
    17  O   -0.068019   0.001567
    18  C   -0.181217  -0.065047
    19  H    0.162236  -0.007348
    20  H    0.161043   0.021395
    21  H    0.105579   0.045278
    22  H    0.174114   0.003343
    23  H    0.121596   0.031656
    24  H    0.150450   0.014933
    25  H    0.101434  -0.025420
    26  H    0.074079  -0.014051
    27  H    0.104191  -0.003404
    28  H    0.102819  -0.004704
    29  H    0.133028  -0.013982
    30  H    0.146903   0.004444
    31  H    0.071225   0.043498
    32  H    0.162258   0.011479
    33  H    0.128955   0.015589
 Sum of Mulliken charges =  -1.00000   1.00000

 Dipole moment (field-independent basis, Debye):
    X=              8.4659    Y=              2.4716    Z=              1.4806  Tot=              8.9427
 Quadrupole moment (field-independent basis, Debye-Ang):
   XX=           -165.4961   YY=           -119.5536   ZZ=           -121.2385
   XY=             -5.0933   XZ=              6.4992   YZ=             -0.3942

 Summary of Natural Population Analysis:

                                       Natural Population
                Natural  -----------------------------------------------
    Atom  No    Charge         Core      Valence    Rydberg      Total
 -----------------------------------------------------------------------
      C    1   -0.28411      0.99962     2.27851    0.00599     3.28411
      C    2    0.09634      0.99951     1.89030    0.01384     2.90366
      C    3   -0.29894      0.99963     2.29383    0.00548     3.29894
      C    4    0.40531      0.99961     1.56820    0.02689     2.59469
      O    5   -0.28403      0.99986     3.27843    0.00574     4.28403
      O    6   -0.28586      0.99984     3.27628    0.00973     4.28586
      C    7    0.12717      0.99932     1.86158    0.01192     2.87283
      C    8   -0.02652      0.99948     2.01913    0.00792     3.02652
      C    9   -0.05462      0.99949     2.04706    0.00806     3.05462
      C   10   -0.05709      0.99954     2.04859    0.00896     3.05709
      C   11   -0.10583      0.99958     2.09633    0.00993     3.10583
      C   12   -0.10260      0.99958     2.09357    0.00946     3.10260
      C   13   -0.05953      0.99953     2.05024    0.00975     3.05953
      C   14    0.06895      0.99948     1.91907    0.01250     2.93105
      N   15   -0.18006      0.99968     2.66527    0.01510     3.68006
      C   16    0.04115      0.99956     1.94568    0.01360     2.95885
      O   17   -0.30303      0.99987     3.29215    0.01102     4.30303
      C   18   -0.10292      0.99960     2.09457    0.00875     3.10292
      H   19    0.10718      0.00000     0.39185    0.00098     0.39282
      H   20    0.10694      0.00000     0.39182    0.00124     0.39306
      H   21    0.09812      0.00000     0.40026    0.00162     0.40188
      H   22    0.11338      0.00000     0.38563    0.00099     0.38662
      H   23    0.10244      0.00000     0.39635    0.00120     0.39756
      H   24    0.09789      0.00000     0.40086    0.00125     0.40211
      H   25    0.08969      0.00000     0.40868    0.00163     0.41031
      H   26    0.08597      0.00000     0.41231    0.00172     0.41403
      H   27    0.08929      0.00000     0.41008    0.00063     0.41071
      H   28    0.08797      0.00000     0.41094    0.00110     0.41203
      H   29    0.09392      0.00000     0.40434    0.00174     0.40608
      H   30    0.07891      0.00000     0.41868    0.00240     0.42109
      H   31    0.07422      0.00000     0.42411    0.00168     0.42578
      H   32    0.09183      0.00000     0.40637    0.00180     0.40817
      H   33    0.08850      0.00000     0.41045    0.00105     0.41150
 =======================================================================
   * Total *    0.00001     17.99279    46.79150    0.21570    64.99999

 Normal termination of Gaussian 16 at Fri Dec 11 23:06:21 2020.
