 Gaussian 16, Revision A.03,

 -----------------------------------------------------------
 # opt freq B3LYP/6-31G(d) empiricaldispersion=gd3bj scf=xqc
 -----------------------------------------------------------

 ------------------------------
 CID_85834664_JID_2934_neutraal
 ------------------------------
 Symbolic Z-matrix:
 Charge =  0 Multiplicity = 1

 SCF Done:  E(RB3LYP) =  -541.206280182     A.U. after   14 cycles
 SCF Done:  E(RB3LYP) =  -541.208486316     A.U. after   12 cycles
 SCF Done:  E(RB3LYP) =  -541.208712455     A.U. after   12 cycles
 SCF Done:  E(RB3LYP) =  -541.208461527     A.U. after   12 cycles
 SCF Done:  E(RB3LYP) =  -541.208800308     A.U. after   11 cycles
 SCF Done:  E(RB3LYP) =  -541.208811350     A.U. after    9 cycles
 SCF Done:  E(RB3LYP) =  -541.208811862     A.U. after    8 cycles
 SCF Done:  E(RB3LYP) =  -541.208811915     A.U. after    7 cycles
 Optimization completed.
    -- Stationary point found.
 Normal termination of Gaussian 16 at Wed Dec  9 18:13:47 2020.

 --------------------------------------------------------------------
 #N Geom=AllCheck Guess=TCheck SCRF=Check GenChk RB3LYP/6-31G(d) Freq
 --------------------------------------------------------------------

 Structure from the checkpoint file:  "JID_2934.chk"
 ------------------------------
 CID_85834664_JID_2934_neutraal
 ------------------------------
 Charge =  0 Multiplicity = 1

 SCF Done:  E(RB3LYP) =  -541.208811915     A.U. after    1 cycles

  Exact polarizability: 138.810   9.017 105.028   1.727   3.308  83.635
 Approx polarizability: 171.969  16.431 167.471   2.809   8.407 119.313

                      1                      2                      3
                      A                      A                      A
 Frequencies --     43.7995                52.9192                94.5355
 Red. masses --      3.5282                 2.9788                 3.8396
 Frc consts  --      0.0040                 0.0049                 0.0202
 IR Inten    --      1.3913                 0.1563                 1.8587

                      4                      5                      6
                      A                      A                      A
 Frequencies --    113.3677               153.5733               199.2587
 Red. masses --      4.0418                 2.4554                 1.7144
 Frc consts  --      0.0306                 0.0341                 0.0401
 IR Inten    --      0.4352                 0.5170                 0.5492

                      7                      8                      9
                      A                      A                      A
 Frequencies --    227.8051               239.7016               246.8741
 Red. masses --      2.7716                 1.2991                 1.2717
 Frc consts  --      0.0847                 0.0440                 0.0457
 IR Inten    --      0.0055                 1.2887                 0.1042

                     10                     11                     12
                      A                      A                      A
 Frequencies --    323.4338               342.0000               365.7423
 Red. masses --      3.3407                 2.6816                 2.0670
 Frc consts  --      0.2059                 0.1848                 0.1629
 IR Inten    --      0.3741                10.6044                 2.2471

                     13                     14                     15
                      A                      A                      A
 Frequencies --    376.6870               424.9157               438.0160
 Red. masses --      2.3462                 2.3756                 3.6868
 Frc consts  --      0.1961                 0.2527                 0.4168
 IR Inten    --      1.5525                 0.3488                 4.0183

                     16                     17                     18
                      A                      A                      A
 Frequencies --    494.3637               532.5524               627.6434
 Red. masses --      4.2256                 3.9631                 3.6204
 Frc consts  --      0.6085                 0.6622                 0.8403
 IR Inten    --      6.4169                 0.4922                 3.6829

                     19                     20                     21
                      A                      A                      A
 Frequencies --    722.8124               769.5878               779.7634
 Red. masses --      2.8196                 2.1371                 2.7745
 Frc consts  --      0.8679                 0.7458                 0.9940
 IR Inten    --     21.6528                 6.1870                 1.7240

                     22                     23                     24
                      A                      A                      A
 Frequencies --    797.6629               848.1495               861.7258
 Red. masses --      1.8783                 1.9318                 1.6699
 Frc consts  --      0.7041                 0.8188                 0.7306
 IR Inten    --      2.5905                 2.9914                 1.7723

                     25                     26                     27
                      A                      A                      A
 Frequencies --    888.7868               917.9883               936.9348
 Red. masses --      2.6540                 2.0317                 1.9116
 Frc consts  --      1.2352                 1.0087                 0.9887
 IR Inten    --      2.7677                 3.2499                 1.3566

                     28                     29                     30
                      A                      A                      A
 Frequencies --    976.7489               987.0160               998.9175
 Red. masses --      1.9279                 1.7154                 2.1475
 Frc consts  --      1.0837                 0.9846                 1.2625
 IR Inten    --      3.1241                 4.5772                 0.7496

                     31                     32                     33
                      A                      A                      A
 Frequencies --   1032.7902              1057.3139              1090.8530
 Red. masses --      1.9785                 2.3953                 1.6954
 Frc consts  --      1.2434                 1.5777                 1.1886
 IR Inten    --      4.6468                16.8136                54.4488

                     34                     35                     36
                      A                      A                      A
 Frequencies --   1112.3049              1131.7772              1136.6336
 Red. masses --      2.6546                 1.9178                 2.1509
 Frc consts  --      1.9351                 1.4473                 1.6372
 IR Inten    --     34.9931                 0.3944                83.8087

                     37                     38                     39
                      A                      A                      A
 Frequencies --   1141.7091              1204.2030              1211.7856
 Red. masses --      1.3825                 1.1747                 1.7528
 Frc consts  --      1.0618                 1.0037                 1.5165
 IR Inten    --     11.0648                 4.4008                13.4467

                     40                     41                     42
                      A                      A                      A
 Frequencies --   1241.4596              1275.4429              1285.4471
 Red. masses --      1.3972                 1.3433                 4.0535
 Frc consts  --      1.2688                 1.2875                 3.9463
 IR Inten    --     39.7264                61.2975               444.5360

                     43                     44                     45
                      A                      A                      A
 Frequencies --   1336.7130              1343.8637              1358.0947
 Red. masses --      1.2955                 1.1206                 1.4829
 Frc consts  --      1.3639                 1.1923                 1.6114
 IR Inten    --      9.7669                13.5025                 0.1485

                     46                     47                     48
                      A                      A                      A
 Frequencies --   1383.3805              1399.2315              1402.1981
 Red. masses --      1.6788                 1.6096                 1.3480
 Frc consts  --      1.8929                 1.8567                 1.5615
 IR Inten    --      8.8145                 0.4205                 1.5826

                     49                     50                     51
                      A                      A                      A
 Frequencies --   1418.1560              1421.9712              1442.9542
 Red. masses --      1.3160                 1.7868                 1.3299
 Frc consts  --      1.5593                 2.1287                 1.6314
 IR Inten    --      9.3692                 1.5394                11.8845

                     52                     53                     54
                      A                      A                      A
 Frequencies --   1443.1628              1496.6357              1508.0985
 Red. masses --      1.2774                 1.0918                 1.0758
 Frc consts  --      1.5675                 1.4408                 1.4416
 IR Inten    --      6.5094                 5.5817                 3.8647

                     55                     56                     57
                      A                      A                      A
 Frequencies --   1515.3419              1518.3746              1521.0531
 Red. masses --      1.0584                 1.0749                 1.0759
 Frc consts  --      1.4319                 1.4601                 1.4666
 IR Inten    --     11.1273                 5.7627                 3.1771

                     58                     59                     60
                      A                      A                      A
 Frequencies --   1531.6938              1538.7881              1539.2065
 Red. masses --      1.0671                 1.0556                 1.0550
 Frc consts  --      1.4751                 1.4727                 1.4726
 IR Inten    --      5.1301                 5.5736                 2.1841

                     61                     62                     63
                      A                      A                      A
 Frequencies --   1718.0078              1792.7453              3009.7384
 Red. masses --      7.1764                11.0504                 1.0681
 Frc consts  --     12.4798                20.9250                 5.7006
 IR Inten    --     82.6051               156.2404                21.7066

                     64                     65                     66
                      A                      A                      A
 Frequencies --   3032.3607              3037.0832              3044.9579
 Red. masses --      1.0720                 1.0701                 1.0577
 Frc consts  --      5.8079                 5.8158                 5.7781
 IR Inten    --     17.4732                 4.8114                60.3113

                     67                     68                     69
                      A                      A                      A
 Frequencies --   3048.6673              3050.4800              3060.8093
 Red. masses --      1.0751                 1.0711                 1.0364
 Frc consts  --      5.8873                 5.8723                 5.7207
 IR Inten    --     32.0802                34.8361                18.8753

                     70                     71                     72
                      A                      A                      A
 Frequencies --   3080.3802              3091.7005              3092.0839
 Red. masses --      1.0988                 1.0757                 1.0763
 Frc consts  --      6.1428                 6.0579                 6.0628
 IR Inten    --     39.9401                56.3139                 2.1285

                     73                     74                     75
                      A                      A                      A
 Frequencies --   3110.9676              3119.9903              3125.8321
 Red. masses --      1.1025                 1.1015                 1.1022
 Frc consts  --      6.2865                 6.3173                 6.3449
 IR Inten    --     31.0676                41.8103                25.8250

                     76                     77                     78
                      A                      A                      A
 Frequencies --   3139.3524              3158.9462              3191.2728
 Red. masses --      1.1045                 1.1065                 1.0895
 Frc consts  --      6.4136                 6.5054                 6.5373
 IR Inten    --      9.6156                28.1316                 3.3834

 - Thermochemistry -
 -------------------
 Temperature   298.150 Kelvin.  Pressure   1.00000 Atm.
 Atom     1 has atomic number  6 and mass  12.00000

 Molecular mass:   168.11503 amu.
 Principal axes and moments of inertia in atomic units:
                           1         2         3
     Eigenvalues --   900.040943798.210064070.06170
           X            0.99998   0.00546  -0.00239
           Y           -0.00548   0.99996  -0.00729
           Z            0.00235   0.00730   0.99997
 This molecule is an asymmetric top.
 Rotational symmetry number  1.
 Warning -- assumption of classical behavior for rotation
           may cause significant error
 Rotational temperatures (Kelvin)      0.09623     0.02280     0.02128
 Rotational constants (GHZ):           2.00518     0.47516     0.44342
 Zero-point vibrational energy     650345.6 (Joules/Mol)
                                  155.43633 (Kcal/Mol)
 Warning -- explicit consideration of  17 degrees of freedom as
           vibrations may cause significant error
 Vibrational temperatures:     63.02    76.14   136.02   163.11   220.96
          (Kelvin)            286.69   327.76   344.88   355.20   465.35
                              492.06   526.22   541.97   611.36   630.21
                              711.28   766.22   903.04  1039.97  1107.27
                             1121.91  1147.66  1220.30  1239.83  1278.77
                             1320.78  1348.04  1405.32  1420.10  1437.22
                             1485.95  1521.24  1569.49  1600.36  1628.37
                             1635.36  1642.66  1732.58  1743.49  1786.18
                             1835.08  1849.47  1923.23  1933.52  1954.00
                             1990.38  2013.18  2017.45  2040.41  2045.90
                             2076.09  2076.39  2153.32  2169.82  2180.24
                             2184.60  2188.46  2203.77  2213.97  2214.57
                             2471.83  2579.36  4330.34  4362.89  4369.69
                             4381.02  4386.35  4388.96  4403.82  4431.98
                             4448.27  4448.82  4475.99  4488.97  4497.38
                             4516.83  4545.02  4591.53

 Zero-point correction=                           0.247704 (Hartree/Particle)
 Thermal correction to Energy=                    0.260066
 Thermal correction to Enthalpy=                  0.261011
 Thermal correction to Gibbs Free Energy=         0.208776
 Sum of electronic and zero-point Energies=           -540.961108
 Sum of electronic and thermal Energies=              -540.948745
 Sum of electronic and thermal Enthalpies=            -540.947801
 Sum of electronic and thermal Free Energies=         -541.000036

                     E (Thermal)             CV                S
                      KCal/Mol        Cal/Mol-Kelvin    Cal/Mol-Kelvin
 Total                  163.194             46.536            109.937
 Electronic               0.000              0.000              0.000
 Translational            0.889              2.981             41.266
 Rotational               0.889              2.981             31.010
 Vibrational            161.417             40.574             37.661
 Vibration     1          0.595              1.980              5.079
 Vibration     2          0.596              1.976              4.705
 Vibration     3          0.603              1.953              3.564
 Vibration     4          0.607              1.938              3.210
 Vibration     5          0.619              1.899              2.627
 Vibration     6          0.637              1.841              2.140
 Vibration     7          0.651              1.799              1.896
 Vibration     8          0.657              1.780              1.805
 Vibration     9          0.661              1.768              1.753
 Vibration    10          0.708              1.629              1.293
 Vibration    11          0.721              1.592              1.203
 Vibration    12          0.739              1.543              1.098
 Vibration    13          0.747              1.520              1.052
 Vibration    14          0.787              1.416              0.875
 Vibration    15          0.798              1.387              0.833
 Vibration    16          0.850              1.263              0.672
 Vibration    17          0.888              1.178              0.582

 Optimization completed.
    -- Stationary point found.
 Normal termination of Gaussian 16 at Wed Dec  9 18:20:37 2020.

 ----------------------------------------------------------------------
 # B3LYP/6-311++G(d,p) empiricaldispersion=gd3bj scf=xqc pop=npa geom=c
 heck
 ----------------------------------------------------------------------

 --------------------------------------
 CID_85834664_JID_2934_Energie_neutraal
 --------------------------------------
 Structure from the checkpoint file:  "JID_2934.chk"
 Charge =  0 Multiplicity = 1

 SCF Done:  E(RB3LYP) =  -541.361244028     A.U. after   14 cycles
 Normal termination of Gaussian 16 at Wed Dec  9 18:23:04 2020.

 ----------------------------------------------------------------------
 # B3LYP/6-311++G(d,p) empiricaldispersion=gd3bj scf=xqc pop=npa geom=c
 heck
 ----------------------------------------------------------------------

 ------------------------------------
 CID_85834664_JID_2934_Energie_kation
 ------------------------------------
 Structure from the checkpoint file:  "JID_2934.chk"
 Charge =  1 Multiplicity = 2

 SCF Done:  E(UB3LYP) =  -541.030622028     A.U. after   25 cycles
 Normal termination of Gaussian 16 at Wed Dec  9 18:28:23 2020.
 Gaussian 16:  ES64L-G16RevA.03 25-Dec-2016

 ----------------------------------------------------------------------
 # B3LYP/6-311++G(d,p) empiricaldispersion=gd3bj scf=xqc pop=npa geom=c
 heck
 ----------------------------------------------------------------------

 -----------------------------------
 CID_85834664_JID_2934_Energie_anion
 -----------------------------------
 Structure from the checkpoint file:  "JID_2934.chk"
 Charge = -1 Multiplicity = 2

                         Standard orientation:
 ---------------------------------------------------------------------
 Center     Atomic      Atomic             Coordinates (Angstroms)
 Number     Number       Type             X           Y           Z
 ---------------------------------------------------------------------
      1          6           0       -3.895512   -0.498591    1.066752
      2          6           0       -3.403407   -0.464702   -0.371603
      3          8           0       -1.965737   -0.583474   -0.434645
      4          6           0       -1.261594    0.559621   -0.239103
      5          8           0       -1.787201    1.639284   -0.038496
      6          6           0        0.203927    0.308318   -0.299675
      7          6           0        1.019068    1.351115   -0.071809
      8          6           0        2.517604    1.258700   -0.064799
      9          6           0        3.027227   -0.191210    0.037403
     10          6           0        2.217284   -1.074931   -0.926534
     11          6           0        0.719708   -1.082322   -0.588709
     12          6           0        2.962339   -0.703641    1.482404
     13          1           0       -3.552380   -1.407513    1.571645
     14          1           0       -4.991141   -0.483827    1.087965
     15          1           0       -3.527569    0.372930    1.614242
     16          1           0       -3.771005   -1.320761   -0.942612
     17          1           0       -3.702423    0.461233   -0.868724
     18          1           0        0.563484    2.320480    0.116180
     19          1           0        2.915669    1.864403    0.761046
     20          1           0        2.901247    1.730990   -0.982817
     21          1           0        4.077863   -0.208436   -0.280518
     22          1           0        2.350724   -0.695225   -1.948405
     23          1           0        2.604447   -2.100946   -0.916621
     24          1           0        0.149686   -1.522610   -1.413558
     25          1           0        0.521602   -1.730637    0.276123
     26          1           0        3.270936   -1.753880    1.542388
     27          1           0        3.624071   -0.120597    2.133057
     28          1           0        1.948418   -0.626226    1.889770
 ---------------------------------------------------------------------

 SCF Done:  E(UB3LYP) =  -541.350861471     A.U. after   33 cycles
 SCF Done:  E(UB3LYP) =  -541.350861472     a.u. after    1 cycles

 The electronic state is 2-A.
 Alpha  occ. eigenvalues --  -19.03843 -18.96859 -10.15627 -10.11620 -10.06037
 Alpha  occ. eigenvalues --  -10.05920 -10.05432 -10.05136 -10.05112 -10.04765
 Alpha  occ. eigenvalues --  -10.04664 -10.04184  -0.97507  -0.88396  -0.72750
 Alpha  occ. eigenvalues --   -0.66999  -0.64582  -0.62755  -0.57913  -0.54554
 Alpha  occ. eigenvalues --   -0.50808  -0.47726  -0.44014  -0.40776  -0.37952
 Alpha  occ. eigenvalues --   -0.36289  -0.35821  -0.33928  -0.33145  -0.32905
 Alpha  occ. eigenvalues --   -0.30789  -0.29927  -0.28869  -0.28053  -0.27428
 Alpha  occ. eigenvalues --   -0.26783  -0.26583  -0.25263  -0.24805  -0.22705
 Alpha  occ. eigenvalues --   -0.21262  -0.20241  -0.19387  -0.18314  -0.14729
 Alpha  occ. eigenvalues --   -0.13006   0.04706
 Alpha virt. eigenvalues --    0.06608   0.07349   0.08640   0.08743   0.09356
 Alpha virt. eigenvalues --    0.09673   0.10138   0.11191   0.11430   0.11608
 Alpha virt. eigenvalues --    0.12602   0.13267   0.13711   0.13907   0.14605

  Beta  occ. eigenvalues --  -19.03813 -18.96747 -10.15466 -10.11613 -10.06020
  Beta  occ. eigenvalues --  -10.05889 -10.05442 -10.05125 -10.05103 -10.04744
  Beta  occ. eigenvalues --  -10.04652 -10.03943  -0.97361  -0.88218  -0.72623
  Beta  occ. eigenvalues --   -0.66890  -0.64477  -0.62579  -0.57803  -0.54445
  Beta  occ. eigenvalues --   -0.50729  -0.47485  -0.43901  -0.40675  -0.37808
  Beta  occ. eigenvalues --   -0.36164  -0.35661  -0.33709  -0.33053  -0.32773
  Beta  occ. eigenvalues --   -0.30716  -0.29770  -0.28797  -0.27846  -0.27352
  Beta  occ. eigenvalues --   -0.26711  -0.26385  -0.25146  -0.24669  -0.22644
  Beta  occ. eigenvalues --   -0.21199  -0.20161  -0.19323  -0.17959  -0.14619
  Beta  occ. eigenvalues --   -0.12155
  Beta virt. eigenvalues --    0.07023   0.07477   0.08899   0.09031   0.09279
  Beta virt. eigenvalues --    0.09865   0.09955   0.10433   0.11337   0.11564
  Beta virt. eigenvalues --    0.11947   0.12752   0.13289   0.13748   0.14130

 Mulliken charges and spin densities:
               1          2
     1  C    0.462519  -0.817806
     2  C   -0.295524   0.146397
     3  O   -0.023313   0.022374
     4  C   -0.302374   0.018676
     5  O   -0.323165   0.041876
     6  C    0.790013  -0.288821
     7  C   -1.016368   1.000413
     8  C    0.625292  -1.508090
     9  C   -0.662749   1.282541
    10  C    0.636152  -1.433039
    11  C   -0.421784   0.311534
    12  C    0.556207  -1.294662
    13  H   -0.003172   0.135819
    14  H   -0.308781   0.436523
    15  H   -0.010011   0.185065
    16  H   -0.175272   0.320938
    17  H    0.161582   0.000825
    18  H    0.141716   0.050731
    19  H   -0.001668   0.136127
    20  H   -0.083278   0.242112
    21  H   -0.635812   0.841236
    22  H    0.010034   0.126078
    23  H   -0.238371   0.395664
    24  H    0.170710   0.010746
    25  H    0.097679   0.083326
    26  H   -0.086350   0.215611
    27  H   -0.086369   0.209261
    28  H    0.022459   0.128546
 Sum of Mulliken charges =  -1.00000   1.00000

 Dipole moment (field-independent basis, Debye):
    X=             -1.2933    Y=             -0.2004    Z=             -0.4021  Tot=              1.3692
 Quadrupole moment (field-independent basis, Debye-Ang):
   XX=           -151.9331   YY=           -103.8225   ZZ=            -96.9017
   XY=              3.0470   XZ=              6.3716   YZ=              0.9756

 Summary of Natural Population Analysis:

                                       Natural Population
                Natural  -----------------------------------------------
    Atom  No    Charge         Core      Valence    Rydberg      Total
 -----------------------------------------------------------------------
      C    1   -0.29829      0.99966     2.29433    0.00429     3.29829
      C    2   -0.01688      0.99958     2.00492    0.01237     3.01688
      O    3   -0.28532      0.99987     3.27699    0.00846     4.28532
      C    4    0.41797      0.99961     1.55818    0.02424     2.58203
      O    5   -0.31735      0.99987     3.31246    0.00501     4.31735
      C    6   -0.08128      0.99942     2.07237    0.00949     3.08128
      C    7   -0.00709      0.99949     1.99920    0.00841     3.00709
      C    8   -0.20920      0.99960     2.19970    0.00989     3.20920
      C    9   -0.11022      0.99961     2.09963    0.01098     3.11022
      C   10   -0.18661      0.99962     2.17688    0.01011     3.18661
      C   11   -0.20037      0.99960     2.19322    0.00755     3.20037
      C   12   -0.28757      0.99965     2.28105    0.00687     3.28757
      H   13    0.09781      0.00000     0.40070    0.00149     0.40219
      H   14    0.09813      0.00000     0.40021    0.00166     0.40187
      H   15    0.10711      0.00000     0.39150    0.00138     0.39289
      H   16    0.08556      0.00000     0.41320    0.00125     0.41444
      H   17    0.09347      0.00000     0.40530    0.00123     0.40653
      H   18    0.10184      0.00000     0.39707    0.00109     0.39816
      H   19    0.10025      0.00000     0.39872    0.00103     0.39975
      H   20    0.10884      0.00000     0.38966    0.00150     0.39116
      H   21    0.09611      0.00000     0.40118    0.00272     0.40389
      H   22    0.09656      0.00000     0.40223    0.00121     0.40344
      H   23    0.09661      0.00000     0.40241    0.00098     0.40339
      H   24    0.10544      0.00000     0.39316    0.00140     0.39456
      H   25    0.10034      0.00000     0.39818    0.00148     0.39966
      H   26    0.09689      0.00000     0.40219    0.00092     0.40311
      H   27    0.09657      0.00000     0.40257    0.00086     0.40343
      H   28    0.10068      0.00000     0.39831    0.00101     0.39932
 =======================================================================
   * Total *    0.00000     11.99559    33.86551    0.13890    46.00000

 Normal termination of Gaussian 16 at Wed Dec  9 18:35:33 2020.
