 Gaussian 16, Revision A.03,

 -----------------------------------------------------------
 # opt freq B3LYP/6-31G(d) empiricaldispersion=gd3bj scf=xqc
 -----------------------------------------------------------

 -------------------------------
 CID_148217628_JID_3599_neutraal
 -------------------------------
 Symbolic Z-matrix:
 Charge =  0 Multiplicity = 1

 SCF Done:  E(RB3LYP) =  -541.954234255     A.U. after   14 cycles
 SCF Done:  E(RB3LYP) =  -541.957876645     A.U. after   12 cycles
 SCF Done:  E(RB3LYP) =  -541.958640943     A.U. after   12 cycles
 SCF Done:  E(RB3LYP) =  -541.959401148     A.U. after   14 cycles
 SCF Done:  E(RB3LYP) =  -541.959853766     A.U. after   12 cycles
 SCF Done:  E(RB3LYP) =  -541.959820460     A.U. after   12 cycles
 SCF Done:  E(RB3LYP) =  -541.960194019     A.U. after   12 cycles
 SCF Done:  E(RB3LYP) =  -541.960211480     A.U. after   10 cycles
 SCF Done:  E(RB3LYP) =  -541.960219589     A.U. after   10 cycles
 SCF Done:  E(RB3LYP) =  -541.960221039     A.U. after    8 cycles
 SCF Done:  E(RB3LYP) =  -541.960222924     A.U. after    8 cycles
 SCF Done:  E(RB3LYP) =  -541.960226585     A.U. after    9 cycles
 SCF Done:  E(RB3LYP) =  -541.960227285     A.U. after    8 cycles
 SCF Done:  E(RB3LYP) =  -541.960227983     A.U. after    7 cycles
 SCF Done:  E(RB3LYP) =  -541.960228134     A.U. after    7 cycles
 Optimization completed.
    -- Stationary point found.
 Normal termination of Gaussian 16 at Sun Dec 13 12:24:41 2020.

 --------------------------------------------------------------------
 #N Geom=AllCheck Guess=TCheck SCRF=Check GenChk RB3LYP/6-31G(d) Freq
 --------------------------------------------------------------------

 Structure from the checkpoint file:  "JID_3599.chk"
 -------------------------------
 CID_148217628_JID_3599_neutraal
 -------------------------------
 Charge =  0 Multiplicity = 1

 SCF Done:  E(RB3LYP) =  -541.960228134     A.U. after    1 cycles

  Exact polarizability: 138.981  -9.299 123.931  -0.190  -1.796 115.649
 Approx polarizability: 182.010 -18.225 177.755  -0.851  -0.509 174.503

                      1                      2                      3
                      A                      A                      A
 Frequencies --     78.1910                81.5539               103.9037
 Red. masses --      2.9410                 2.6738                 1.7040
 Frc consts  --      0.0106                 0.0105                 0.0108
 IR Inten    --      3.0379                 2.8527                 2.1630

                      4                      5                      6
                      A                      A                      A
 Frequencies --    119.3364               128.2462               177.0925
 Red. masses --      2.0909                 1.6777                 2.6745
 Frc consts  --      0.0175                 0.0163                 0.0494
 IR Inten    --      4.3850                16.9526                 2.3974

                      7                      8                      9
                      A                      A                      A
 Frequencies --    237.3357               244.0391               246.7883
 Red. masses --      2.3426                 1.4067                 1.5667
 Frc consts  --      0.0777                 0.0494                 0.0562
 IR Inten    --      1.7305                 2.4850                26.0050

                     10                     11                     12
                      A                      A                      A
 Frequencies --    254.2936               264.0903               303.2179
 Red. masses --      3.4020                 1.1382                 1.3608
 Frc consts  --      0.1296                 0.0468                 0.0737
 IR Inten    --      3.9085                 1.2742                 1.2511

                     13                     14                     15
                      A                      A                      A
 Frequencies --    311.5524               322.7904               347.0663
 Red. masses --      2.2295                 2.6547                 2.6745
 Frc consts  --      0.1275                 0.1630                 0.1898
 IR Inten    --      2.4453                 1.0164                 1.2575

                     16                     17                     18
                      A                      A                      A
 Frequencies --    367.8349               418.0221               422.0581
 Red. masses --      2.1977                 2.1347                 1.8155
 Frc consts  --      0.1752                 0.2198                 0.1905
 IR Inten    --      1.5680                 1.2220                 0.5552

                     19                     20                     21
                      A                      A                      A
 Frequencies --    436.7370               457.2607               474.8760
 Red. masses --      2.4386                 2.1111                 2.4898
 Frc consts  --      0.2741                 0.2601                 0.3308
 IR Inten    --      7.3656                 3.9460                 2.1859

                     22                     23                     24
                      A                      A                      A
 Frequencies --    521.4750               566.6909               648.9820
 Red. masses --      2.7010                 2.3047                 2.9256
 Frc consts  --      0.4327                 0.4361                 0.7260
 IR Inten    --      1.3815                 1.6799                 6.2552

                     25                     26                     27
                      A                      A                      A
 Frequencies --    721.9932               770.5677               807.4842
 Red. masses --      1.5537                 2.7323                 2.9891
 Frc consts  --      0.4772                 0.9559                 1.1483
 IR Inten    --      1.1605                 0.2457                 1.3644

                     28                     29                     30
                      A                      A                      A
 Frequencies --    819.9511               875.3737               899.2882
 Red. masses --      2.6653                 1.5110                 1.6898
 Frc consts  --      1.0558                 0.6822                 0.8052
 IR Inten    --     20.3276               115.6021                 7.6700

                     31                     32                     33
                      A                      A                      A
 Frequencies --    911.6124               920.2981               924.7906
 Red. masses --      1.9310                 2.0676                 1.7436
 Frc consts  --      0.9455                 1.0317                 0.8786
 IR Inten    --     21.5052                13.5863                22.2223

                     34                     35                     36
                      A                      A                      A
 Frequencies --    952.0559               959.3381               973.7885
 Red. masses --      1.5407                 1.9949                 1.9569
 Frc consts  --      0.8228                 1.0817                 1.0933
 IR Inten    --      2.0836                 4.3231                 8.4923

                     37                     38                     39
                      A                      A                      A
 Frequencies --    999.5988              1015.7386              1029.5879
 Red. masses --      2.0579                 1.9101                 1.5189
 Frc consts  --      1.2115                 1.1611                 0.9486
 IR Inten    --      4.0707                 1.5964                 1.1807

                     40                     41                     42
                      A                      A                      A
 Frequencies --   1042.9239              1060.0681              1067.4506
 Red. masses --      1.8325                 1.3582                 1.9176
 Frc consts  --      1.1743                 0.8993                 1.2874
 IR Inten    --      6.4082                15.8729                 6.2453

                     43                     44                     45
                      A                      A                      A
 Frequencies --   1098.9572              1112.2394              1156.6859
 Red. masses --      1.7512                 1.9005                 1.4350
 Frc consts  --      1.2461                 1.3852                 1.1312
 IR Inten    --      0.6151                 8.4002                 0.2015

                     46                     47                     48
                      A                      A                      A
 Frequencies --   1170.0902              1189.9313              1216.7035
 Red. masses --      1.6766                 1.5362                 1.3721
 Frc consts  --      1.3524                 1.2815                 1.1968
 IR Inten    --      3.4676                 2.6920                 6.7339

                     49                     50                     51
                      A                      A                      A
 Frequencies --   1228.4446              1255.2716              1267.7023
 Red. masses --      2.2113                 2.2311                 1.9945
 Frc consts  --      1.9661                 2.0713                 1.8885
 IR Inten    --      2.9744                23.1191                 4.5913

                     52                     53                     54
                      A                      A                      A
 Frequencies --   1294.1127              1328.6949              1340.0338
 Red. masses --      2.1580                 1.4866                 1.5674
 Frc consts  --      2.1293                 1.5463                 1.6582
 IR Inten    --      3.7001                 1.0981                 8.6065

                     55                     56                     57
                      A                      A                      A
 Frequencies --   1358.0094              1359.1367              1390.3399
 Red. masses --      1.3979                 1.4290                 1.3270
 Frc consts  --      1.5189                 1.5552                 1.5114
 IR Inten    --      5.5434                 1.6179                 7.3725

                     58                     59                     60
                      A                      A                      A
 Frequencies --   1404.2957              1412.0286              1416.6503
 Red. masses --      1.5217                 1.3066                 1.4408
 Frc consts  --      1.7681                 1.5349                 1.7037
 IR Inten    --      5.4117                 4.0864                 4.1136

                     61                     62                     63
                      A                      A                      A
 Frequencies --   1428.4068              1448.3697              1448.9688
 Red. masses --      1.2611                 1.2456                 1.2884
 Frc consts  --      1.5160                 1.5395                 1.5938
 IR Inten    --      4.2427                 6.6639                 9.9824

                     64                     65                     66
                      A                      A                      A
 Frequencies --   1453.6295              1501.2710              1503.6747
 Red. masses --      1.2297                 1.0833                 1.0840
 Frc consts  --      1.5309                 1.4385                 1.4441
 IR Inten    --      4.8640                 2.5598                 1.9977

                     67                     68                     69
                      A                      A                      A
 Frequencies --   1507.2581              1513.3552              1517.9915
 Red. masses --      1.0762                 1.0588                 1.0725
 Frc consts  --      1.4405                 1.4287                 1.4560
 IR Inten    --      1.6265                 1.7483                 0.8104

                     70                     71                     72
                      A                      A                      A
 Frequencies --   1520.5936              1524.8156              1531.1736
 Red. masses --      1.0774                 1.1461                 1.0592
 Frc consts  --      1.4678                 1.5700                 1.4631
 IR Inten    --      2.6850                14.2376                 5.3881

                     73                     74                     75
                      A                      A                      A
 Frequencies --   1533.5192              1540.1700              1548.3926
 Red. masses --      1.0680                 1.0618                 1.0551
 Frc consts  --      1.4798                 1.4840                 1.4904
 IR Inten    --      7.0913                 2.6518                 9.7107

                     76                     77                     78
                      A                      A                      A
 Frequencies --   1696.5726              1756.5849              2961.6954
 Red. masses --      1.0912                 6.1818                 1.0679
 Frc consts  --      1.8506                11.2384                 5.5189
 IR Inten    --     26.7583                33.5149                43.4338

                     79                     80                     81
                      A                      A                      A
 Frequencies --   3009.6392              3012.3581              3020.7252
 Red. masses --      1.0646                 1.0655                 1.0641
 Frc consts  --      5.6818                 5.6967                 5.7207
 IR Inten    --     11.3792                51.9987                43.8549

                     82                     83                     84
                      A                      A                      A
 Frequencies --   3026.9438              3035.7375              3047.6897
 Red. masses --      1.0775                 1.0369                 1.0437
 Frc consts  --      5.8167                 5.6302                 5.7117
 IR Inten    --     58.1501                35.7099                22.5267

                     85                     86                     87
                      A                      A                      A
 Frequencies --   3049.2362              3050.8317              3051.4081
 Red. masses --      1.0847                 1.0730                 1.0785
 Frc consts  --      5.9423                 5.8842                 5.9168
 IR Inten    --     19.8909                56.0413                28.2054

                     88                     89                     90
                      A                      A                      A
 Frequencies --   3058.6130              3073.1117              3098.0409
 Red. masses --      1.0647                 1.0966                 1.1023
 Frc consts  --      5.8683                 6.1017                 6.2332
 IR Inten    --     30.8798                15.0284                 1.1102

                     91                     92                     93
                      A                      A                      A
 Frequencies --   3103.3722              3105.0052              3105.8778
 Red. masses --      1.1013                 1.1013                 1.1011
 Frc consts  --      6.2493                 6.2556                 6.2583
 IR Inten    --      4.3550                59.3286                54.1629

                     94                     95                     96
                      A                      A                      A
 Frequencies --   3109.2984              3153.9051              3157.5418
 Red. masses --      1.1019                 1.1035                 1.0943
 Frc consts  --      6.2766                 6.4670                 6.4281
 IR Inten    --     44.1001                37.6726                42.6295

                     97                     98                     99
                      A                      A                      A
 Frequencies --   3179.9639              3477.6068              3590.2905
 Red. masses --      1.0892                 1.0541                 1.0858
 Frc consts  --      6.4896                 7.5110                 8.2466
 IR Inten    --     36.9991                 5.5008                 1.1790

 - Thermochemistry -
 -------------------
 Temperature   298.150 Kelvin.  Pressure   1.00000 Atm.
 Atom     1 has atomic number  6 and mass  12.00000

 Molecular mass:   182.17830 amu.
 Principal axes and moments of inertia in atomic units:
                           1         2         3
     Eigenvalues --  1743.515902961.782913536.86527
           X            0.99993   0.01083  -0.00430
           Y           -0.01092   0.99967  -0.02309
           Z            0.00405   0.02313   0.99972
 This molecule is an asymmetric top.
 Rotational symmetry number  1.
 Warning -- assumption of classical behavior for rotation
           may cause significant error
 Rotational temperatures (Kelvin)      0.04968     0.02924     0.02449
 Rotational constants (GHZ):           1.03512     0.60934     0.51027
 Zero-point vibrational energy     847783.4 (Joules/Mol)
                                  202.62509 (Kcal/Mol)
 Warning -- explicit consideration of  23 degrees of freedom as
           vibrations may cause significant error
 Vibrational temperatures:    112.50   117.34   149.49   171.70   184.52
          (Kelvin)            254.80   341.47   351.12   355.07   365.87
                              379.97   436.26   448.25   464.42   499.35
                              529.23   601.44   607.25   628.37   657.90
                              683.24   750.29   815.34   933.74  1038.79
                             1108.68  1161.79  1179.73  1259.47  1293.88
                             1311.61  1324.10  1330.57  1369.80  1380.27
                             1401.06  1438.20  1461.42  1481.35  1500.53
                             1525.20  1535.82  1581.15  1600.26  1664.21
                             1683.50  1712.05  1750.56  1767.46  1806.06
                             1823.94  1861.94  1911.70  1928.01  1953.87
                             1955.49  2000.39  2020.47  2031.59  2038.24
                             2055.16  2083.88  2084.74  2091.45  2159.99
                             2163.45  2168.61  2177.38  2184.05  2187.80
                             2193.87  2203.02  2206.39  2215.96  2227.79
                             2440.99  2527.33  4261.22  4330.20  4334.11
                             4346.15  4355.10  4367.75  4384.95  4387.17
                             4389.47  4390.30  4400.66  4421.52  4457.39
                             4465.06  4467.41  4468.67  4473.59  4537.77
                             4543.00  4575.26  5003.50  5165.63

 Zero-point correction=                           0.322904 (Hartree/Particle)
 Thermal correction to Energy=                    0.337471
 Thermal correction to Enthalpy=                  0.338415
 Thermal correction to Gibbs Free Energy=         0.283211
 Sum of electronic and zero-point Energies=           -541.637325
 Sum of electronic and thermal Energies=              -541.622757
 Sum of electronic and thermal Enthalpies=            -541.621813
 Sum of electronic and thermal Free Energies=         -541.677017

                     E (Thermal)             CV                S
                      KCal/Mol        Cal/Mol-Kelvin    Cal/Mol-Kelvin
 Total                  211.766             57.299            116.188
 Electronic               0.000              0.000              0.000
 Translational            0.889              2.981             41.506
 Rotational               0.889              2.981             31.280
 Vibrational            209.989             51.337             43.402
 Vibration     1          0.599              1.964              3.936
 Vibration     2          0.600              1.962              3.853
 Vibration     3          0.605              1.946              3.380
 Vibration     4          0.609              1.933              3.111
 Vibration     5          0.611              1.925              2.972
 Vibration     6          0.628              1.871              2.359
 Vibration     7          0.656              1.784              1.823
 Vibration     8          0.659              1.773              1.773
 Vibration     9          0.661              1.768              1.753
 Vibration    10          0.665              1.756              1.701
 Vibration    11          0.671              1.739              1.635
 Vibration    12          0.695              1.668              1.399
 Vibration    13          0.700              1.652              1.354
 Vibration    14          0.708              1.630              1.296
 Vibration    15          0.725              1.581              1.179
 Vibration    16          0.740              1.538              1.089
 Vibration    17          0.781              1.431              0.899
 Vibration    18          0.784              1.422              0.885
 Vibration    19          0.797              1.390              0.837
 Vibration    20          0.815              1.345              0.774
 Vibration    21          0.832              1.306              0.724
 Vibration    22          0.876              1.202              0.607
 Vibration    23          0.923              1.103              0.511

 Optimization completed.
    -- Stationary point found.
 Normal termination of Gaussian 16 at Sun Dec 13 12:35:04 2020.

 ----------------------------------------------------------------------
 # B3LYP/6-311++G(d,p) empiricaldispersion=gd3bj scf=xqc pop=npa geom=c
 heck
 ----------------------------------------------------------------------

 ---------------------------------------
 CID_148217628_JID_3599_Energie_neutraal
 ---------------------------------------
 Structure from the checkpoint file:  "JID_3599.chk"
 Charge =  0 Multiplicity = 1

 SCF Done:  E(RB3LYP) =  -542.116395090     A.U. after   14 cycles
 Normal termination of Gaussian 16 at Sun Dec 13 12:39:18 2020.

 ----------------------------------------------------------------------
 # B3LYP/6-311++G(d,p) empiricaldispersion=gd3bj scf=xqc pop=npa geom=c
 heck
 ----------------------------------------------------------------------

 -------------------------------------
 CID_148217628_JID_3599_Energie_kation
 -------------------------------------
 Structure from the checkpoint file:  "JID_3599.chk"
 Charge =  1 Multiplicity = 2

 SCF Done:  E(UB3LYP) =  -541.807880258     A.U. after   25 cycles
 Normal termination of Gaussian 16 at Sun Dec 13 12:49:13 2020.
 Gaussian 16:  ES64L-G16RevA.03 25-Dec-2016

 ----------------------------------------------------------------------
 # B3LYP/6-311++G(d,p) empiricaldispersion=gd3bj scf=xqc pop=npa geom=c
 heck
 ----------------------------------------------------------------------

 ------------------------------------
 CID_148217628_JID_3599_Energie_anion
 ------------------------------------
 Structure from the checkpoint file:  "JID_3599.chk"
 Charge = -1 Multiplicity = 2

                         Standard orientation:
 ---------------------------------------------------------------------
 Center     Atomic      Atomic             Coordinates (Angstroms)
 Number     Number       Type             X           Y           Z
 ---------------------------------------------------------------------
      1          6           0        2.219533    0.844516    1.255177
      2          6           0        1.250494    1.133697    0.091889
      3          6           0        1.611281    0.328145   -1.176458
      4          6           0        1.212757   -1.165343   -1.188383
      5          6           0       -0.265117   -1.330314   -0.801918
      6          6           0       -0.732175   -0.589160    0.473704
      7          6           0       -0.233539    0.874193    0.451756
      8          6           0       -0.342848   -1.327248    1.768356
      9          6           0       -2.286787   -0.570451    0.479794
     10          7           0       -2.854751    0.086594   -0.684743
     11          6           0       -3.728867    0.983082   -0.495125
     12          7           0        2.071780   -2.097198   -0.438620
     13          6           0        1.390844    2.634513   -0.231123
     14          1           0        2.289262   -0.211037    1.516444
     15          1           0        1.914950    1.390627    2.156113
     16          1           0        3.231448    1.175451    0.991354
     17          1           0        1.097959    0.801380   -2.026247
     18          1           0        2.687682    0.422908   -1.380266
     19          1           0        1.297551   -1.493370   -2.233371
     20          1           0       -0.487406   -2.400554   -0.711369
     21          1           0       -0.868832   -0.946199   -1.630671
     22          1           0       -0.464893    1.353242    1.414524
     23          1           0       -0.832417    1.400099   -0.301440
     24          1           0       -0.771640   -0.821771    2.642563
     25          1           0       -0.720859   -2.356172    1.753701
     26          1           0        0.733263   -1.377363    1.932658
     27          1           0       -2.635768   -1.612166    0.462615
     28          1           0       -2.642375   -0.116407    1.422275
     29          1           0       -4.079152    1.293959    0.501901
     30          1           0       -4.176033    1.488219   -1.353747
     31          1           0        3.047055   -1.930046   -0.684024
     32          1           0        2.003309   -1.934501    0.560586
     33          1           0        1.139772    3.249247    0.642368
     34          1           0        2.418726    2.877481   -0.526826
     35          1           0        0.725735    2.927415   -1.051632
 ---------------------------------------------------------------------

 SCF Done:  E(UB3LYP) =  -542.100999133     A.U. after   33 cycles
 SCF Done:  E(UB3LYP) =  -542.100999133     a.u. after    1 cycles

 The electronic state is 2-A.
 Alpha  occ. eigenvalues --  -14.20474 -14.18463 -10.10208 -10.09188 -10.09110
 Alpha  occ. eigenvalues --  -10.08092 -10.07507 -10.05906 -10.05427 -10.05315
 Alpha  occ. eigenvalues --  -10.05183 -10.04852 -10.04737  -0.82175  -0.78425
 Alpha  occ. eigenvalues --   -0.72870  -0.69319  -0.63393  -0.59421  -0.58292
 Alpha  occ. eigenvalues --   -0.57532  -0.56963  -0.49343  -0.48454  -0.45119
 Alpha  occ. eigenvalues --   -0.40890  -0.39724  -0.37373  -0.36968  -0.35694
 Alpha  occ. eigenvalues --   -0.34984  -0.34310  -0.33103  -0.32342  -0.31043
 Alpha  occ. eigenvalues --   -0.29888  -0.29555  -0.28256  -0.27770  -0.26333
 Alpha  occ. eigenvalues --   -0.25470  -0.24638  -0.23677  -0.23208  -0.22776
 Alpha  occ. eigenvalues --   -0.21516  -0.20811  -0.19277  -0.18386  -0.15418
 Alpha  occ. eigenvalues --   -0.13459   0.04737
 Alpha virt. eigenvalues --    0.06539   0.07141   0.07722   0.08273   0.08991
 Alpha virt. eigenvalues --    0.09186   0.09817   0.10455   0.10543   0.11409
 Alpha virt. eigenvalues --    0.11781   0.12415   0.12704   0.13111   0.13532

  Beta  occ. eigenvalues --  -14.20334 -14.18439 -10.10147 -10.09187 -10.09104
  Beta  occ. eigenvalues --  -10.08081 -10.07505 -10.05888 -10.05408 -10.05312
  Beta  occ. eigenvalues --  -10.05167 -10.04818 -10.04707  -0.81959  -0.78385
  Beta  occ. eigenvalues --   -0.72838  -0.69290  -0.63358  -0.59353  -0.58244
  Beta  occ. eigenvalues --   -0.57484  -0.56919  -0.49249  -0.48309  -0.45043
  Beta  occ. eigenvalues --   -0.40838  -0.39687  -0.37302  -0.36917  -0.35640
  Beta  occ. eigenvalues --   -0.34922  -0.34270  -0.33059  -0.32310  -0.30966
  Beta  occ. eigenvalues --   -0.29842  -0.29508  -0.28201  -0.27737  -0.26301
  Beta  occ. eigenvalues --   -0.25418  -0.24612  -0.23650  -0.23176  -0.22743
  Beta  occ. eigenvalues --   -0.21231  -0.20745  -0.19213  -0.18259  -0.15250
  Beta  occ. eigenvalues --   -0.13429
  Beta virt. eigenvalues --    0.06880   0.07437   0.07903   0.08193   0.08804
  Beta virt. eigenvalues --    0.09392   0.09637   0.10200   0.10762   0.10979
  Beta virt. eigenvalues --    0.11858   0.11998   0.12670   0.12872   0.13423

 Mulliken charges and spin densities:
               1          2
     1  C    1.319000  -1.870079
     2  C   -2.071583   3.019111
     3  C   -0.489908  -0.401912
     4  C    1.147685  -0.830924
     5  C   -0.786890  -0.207170
     6  C    0.317653   1.151750
     7  C    0.681898  -2.053889
     8  C   -0.310221  -0.374152
     9  C    0.345579  -0.950333
    10  N   -0.072402   0.110556
    11  C    0.096707  -0.184882
    12  N   -0.413579   0.086402
    13  C    0.185776  -0.778519
    14  H    0.000174   0.059490
    15  H   -0.119017   0.285125
    16  H   -0.467455   0.624937
    17  H    0.109653   0.031212
    18  H   -0.160126   0.353467
    19  H    0.062324   0.153675
    20  H    0.108001   0.071200
    21  H    0.178588  -0.005672
    22  H   -0.151296   0.335662
    23  H    0.369562  -0.212815
    24  H   -0.127980   0.284786
    25  H    0.036490   0.109551
    26  H   -0.094885   0.183145
    27  H    0.255404  -0.070692
    28  H   -0.071908   0.152610
    29  H   -0.118235   0.176032
    30  H   -0.195895   0.349588
    31  H   -0.092601   0.313269
    32  H    0.208353  -0.014104
    33  H   -0.291552   0.432840
    34  H   -0.148960   0.301156
    35  H   -0.238357   0.369580
 Sum of Mulliken charges =  -1.00000   1.00000

 Dipole moment (field-independent basis, Debye):
    X=             -3.2009    Y=             -3.5647    Z=             -0.5193  Tot=              4.8190
 Quadrupole moment (field-independent basis, Debye-Ang):
   XX=           -142.1237   YY=           -133.2542   ZZ=           -120.5032
   XY=              4.9364   XZ=             -2.6088   YZ=             -3.1783

 Summary of Natural Population Analysis:

                                       Natural Population
                Natural  -----------------------------------------------
    Atom  No    Charge         Core      Valence    Rydberg      Total
 -----------------------------------------------------------------------
      C    1   -0.28105      0.99961     2.27394    0.00750     3.28105
      C    2   -0.04872      0.99957     2.03587    0.01328     3.04872
      C    3   -0.19273      0.99957     2.18268    0.01047     3.19273
      C    4   -0.01155      0.99959     1.99859    0.01337     3.01155
      C    5   -0.19485      0.99957     2.18639    0.00890     3.19485
      C    6   -0.04162      0.99955     2.03022    0.01185     3.04162
      C    7   -0.19318      0.99956     2.18082    0.01281     3.19318
      C    8   -0.28231      0.99962     2.27570    0.00699     3.28231
      C    9   -0.09645      0.99955     2.08394    0.01296     3.09645
      N   10   -0.20525      0.99969     2.69401    0.01156     3.70525
      C   11   -0.01133      0.99964     1.99928    0.01242     3.01133
      N   12   -0.42206      0.99977     2.91267    0.00963     3.92206
      C   13   -0.27952      0.99963     2.27247    0.00742     3.27952
      H   14    0.09256      0.00000     0.40576    0.00168     0.40744
      H   15    0.09977      0.00000     0.39897    0.00126     0.40023
      H   16    0.10069      0.00000     0.39783    0.00148     0.39931
      H   17    0.09972      0.00000     0.39881    0.00147     0.40028
      H   18    0.10004      0.00000     0.39841    0.00155     0.39996
      H   19    0.08754      0.00000     0.41092    0.00154     0.41246
      H   20    0.10115      0.00000     0.39779    0.00106     0.39885
      H   21    0.11254      0.00000     0.38584    0.00162     0.38746
      H   22    0.10124      0.00000     0.39684    0.00192     0.39876
      H   23    0.10677      0.00000     0.39105    0.00219     0.39323
      H   24    0.10026      0.00000     0.39880    0.00094     0.39974
      H   25    0.09712      0.00000     0.40204    0.00084     0.40288
      H   26    0.09727      0.00000     0.40165    0.00109     0.40273
      H   27    0.09644      0.00000     0.40241    0.00115     0.40356
      H   28    0.08160      0.00000     0.41608    0.00233     0.41840
      H   29    0.06419      0.00000     0.43379    0.00201     0.43581
      H   30    0.07898      0.00000     0.41983    0.00119     0.42102
      H   31    0.17363      0.00000     0.32443    0.00194     0.32637
      H   32    0.17073      0.00000     0.32708    0.00218     0.32927
      H   33    0.10014      0.00000     0.39866    0.00120     0.39986
      H   34    0.09920      0.00000     0.39962    0.00119     0.40080
      H   35    0.09908      0.00000     0.39980    0.00112     0.40092
 =======================================================================
   * Total *   -0.00000     12.99492    37.83299    0.17209    51.00000

 Normal termination of Gaussian 16 at Sun Dec 13 13:02:37 2020.
