 Gaussian 16, Revision A.03,

 -----------------------------------------------------------
 # opt freq B3LYP/6-31G(d) empiricaldispersion=gd3bj scf=xqc
 -----------------------------------------------------------

 -------------------------------
 CID_65224919_JID_10520_neutraal
 -------------------------------
 Symbolic Z-matrix:
 Charge =  0 Multiplicity = 1

 SCF Done:  E(RB3LYP) =  -936.133081494     A.U. after   15 cycles
 SCF Done:  E(RB3LYP) =  -936.138099122     A.U. after   13 cycles
 SCF Done:  E(RB3LYP) =  -936.134640722     A.U. after   14 cycles
 SCF Done:  E(RB3LYP) =  -936.139104006     A.U. after   13 cycles
 SCF Done:  E(RB3LYP) =  -936.138455832     A.U. after   15 cycles
 SCF Done:  E(RB3LYP) =  -936.135605246     A.U. after   14 cycles
 SCF Done:  E(RB3LYP) =  -936.136590580     A.U. after   13 cycles
 SCF Done:  E(RB3LYP) =  -936.140302799     A.U. after   11 cycles
 SCF Done:  E(RB3LYP) =  -936.142383764     A.U. after   13 cycles
 SCF Done:  E(RB3LYP) =  -936.142508663     A.U. after   12 cycles
 SCF Done:  E(RB3LYP) =  -936.150017180     A.U. after    8 cycles
 SCF Done:  E(RB3LYP) =  -936.150017286     A.U. after    7 cycles
 SCF Done:  E(RB3LYP) =  -936.150017302     A.U. after    6 cycles
 SCF Done:  E(RB3LYP) =  -936.150017311     A.U. after    6 cycles
 Optimization completed.
    -- Stationary point found.
 Normal termination of Gaussian 16 at Sat Dec 12 16:22:09 2020.

 --------------------------------------------------------------------
 #N Geom=AllCheck Guess=TCheck SCRF=Check GenChk RB3LYP/6-31G(d) Freq
 --------------------------------------------------------------------

 Structure from the checkpoint file:  "JID_10520.chk"
 -------------------------------
 CID_65224919_JID_10520_neutraal
 -------------------------------
 Charge =  0 Multiplicity = 1

 SCF Done:  E(RB3LYP) =  -936.150017311     A.U. after    1 cycles

  Exact polarizability: 219.223  -3.794 159.787   5.753 -14.481 137.436
 Approx polarizability: 327.749  -3.186 238.512  14.375 -35.992 207.263

                      1                      2                      3
                      A                      A                      A
 Frequencies --     19.0972                29.0059                49.8845
 Red. masses --      5.9093                 4.4406                 7.4166
 Frc consts  --      0.0013                 0.0022                 0.0109
 IR Inten    --      1.1428                 0.5846                 6.5846

                      4                      5                      6
                      A                      A                      A
 Frequencies --     60.1169                70.3956                76.8663
 Red. masses --      5.0039                 5.5758                 5.1979
 Frc consts  --      0.0107                 0.0163                 0.0181
 IR Inten    --      0.7251                 0.8513                 2.1690

                      7                      8                      9
                      A                      A                      A
 Frequencies --     79.7604                95.0383               124.6821
 Red. masses --      4.1631                 2.9958                 3.1048
 Frc consts  --      0.0156                 0.0159                 0.0284
 IR Inten    --      0.5874                 0.1013                 1.1698

                     10                     11                     12
                      A                      A                      A
 Frequencies --    173.9601               191.6810               211.3826
 Red. masses --      3.7671                 2.9995                 3.0884
 Frc consts  --      0.0672                 0.0649                 0.0813
 IR Inten    --      0.7641                 0.6189                10.4001

                     13                     14                     15
                      A                      A                      A
 Frequencies --    218.1053               241.6154               248.7138
 Red. masses --      1.1851                 2.8354                 2.4748
 Frc consts  --      0.0332                 0.0975                 0.0902
 IR Inten    --      0.8230                 1.2400                 3.4995

                     16                     17                     18
                      A                      A                      A
 Frequencies --    256.5828               283.6499               303.8144
 Red. masses --      1.4131                 1.8048                 3.4869
 Frc consts  --      0.0548                 0.0856                 0.1896
 IR Inten    --      9.6470                12.6143                27.7973

                     19                     20                     21
                      A                      A                      A
 Frequencies --    325.5567               330.2444               350.5735
 Red. masses --      2.7708                 3.0964                 2.2039
 Frc consts  --      0.1730                 0.1990                 0.1596
 IR Inten    --      4.9352                 7.1447                 9.6708

                     22                     23                     24
                      A                      A                      A
 Frequencies --    359.1982               373.9554               384.5214
 Red. masses --      1.2659                 3.7238                 3.8126
 Frc consts  --      0.0962                 0.3068                 0.3321
 IR Inten    --    244.4423                 3.8467                13.1531

                     25                     26                     27
                      A                      A                      A
 Frequencies --    419.8237               459.7424               473.3042
 Red. masses --      2.4669                 4.8604                 3.2702
 Frc consts  --      0.2562                 0.6053                 0.4316
 IR Inten    --      0.0784                 2.5767                 7.9722

                     28                     29                     30
                      A                      A                      A
 Frequencies --    502.3066               522.0503               523.1259
 Red. masses --      2.1290                 2.2616                 2.6855
 Frc consts  --      0.3165                 0.3632                 0.4330
 IR Inten    --      0.5421                18.1098                 4.1429

                     31                     32                     33
                      A                      A                      A
 Frequencies --    545.8675               565.1891               594.7227
 Red. masses --      3.6783                 2.4597                 2.6132
 Frc consts  --      0.6458                 0.4629                 0.5446
 IR Inten    --     13.0967                 6.3900                45.7072

                     34                     35                     36
                      A                      A                      A
 Frequencies --    615.8535               628.6800               673.4471
 Red. masses --      4.1753                 2.7553                 4.6759
 Frc consts  --      0.9330                 0.6416                 1.2495
 IR Inten    --      8.7032                44.7640                 5.3694

                     37                     38                     39
                      A                      A                      A
 Frequencies --    681.8248               706.5381               718.0334
 Red. masses --      2.1019                 3.3588                 2.7833
 Frc consts  --      0.5757                 0.9879                 0.8455
 IR Inten    --     10.0928                24.7129                11.4266

                     40                     41                     42
                      A                      A                      A
 Frequencies --    781.1947               805.5108               821.2731
 Red. masses --      2.0236                 2.3111                 3.3634
 Frc consts  --      0.7276                 0.8835                 1.3366
 IR Inten    --     24.1053                15.9542                 6.4155

                     43                     44                     45
                      A                      A                      A
 Frequencies --    851.9360               869.9339               886.5093
 Red. masses --      2.0429                 3.7008                 1.4263
 Frc consts  --      0.8736                 1.6501                 0.6604
 IR Inten    --     52.9458                 6.1848                 1.2786

                     46                     47                     48
                      A                      A                      A
 Frequencies --    897.3143               923.1960               947.6588
 Red. masses --      1.5042                 2.2048                 1.1922
 Frc consts  --      0.7136                 1.1071                 0.6308
 IR Inten    --     78.3207                10.0731                12.1904

                     49                     50                     51
                      A                      A                      A
 Frequencies --    964.7465               974.0266               977.7667
 Red. masses --      1.2520                 1.6317                 1.3667
 Frc consts  --      0.6865                 0.9121                 0.7698
 IR Inten    --      8.8042                10.2810                 9.0717

                     52                     53                     54
                      A                      A                      A
 Frequencies --    990.6452               999.9870              1019.3489
 Red. masses --      1.6898                 3.1016                 5.7819
 Frc consts  --      0.9770                 1.8273                 3.5397
 IR Inten    --      2.2708                 3.1347                 1.5611

                     55                     56                     57
                      A                      A                      A
 Frequencies --   1041.2879              1057.2394              1099.8517
 Red. masses --      2.1116                 1.7859                 2.9116
 Frc consts  --      1.3489                 1.1761                 2.0751
 IR Inten    --      1.7507                 1.3186                95.4980

                     58                     59                     60
                      A                      A                      A
 Frequencies --   1108.0675              1111.5239              1118.1548
 Red. masses --      2.7586                 1.9113                 1.3977
 Frc consts  --      1.9956                 1.3913                 1.0296
 IR Inten    --      2.9982                 1.4414                 3.7516

                     61                     62                     63
                      A                      A                      A
 Frequencies --   1133.5312              1162.1446              1205.0896
 Red. masses --      1.6547                 2.3648                 1.7462
 Frc consts  --      1.2527                 1.8818                 1.4942
 IR Inten    --      3.4558                 6.9094                 7.3265

                     64                     65                     66
                      A                      A                      A
 Frequencies --   1207.1907              1219.6093              1245.3239
 Red. masses --      1.2989                 1.8292                 1.6608
 Frc consts  --      1.1152                 1.6030                 1.5175
 IR Inten    --     75.7897               117.3099                26.1761

                     67                     68                     69
                      A                      A                      A
 Frequencies --   1275.0868              1292.5594              1306.6417
 Red. masses --      1.9560                 1.5149                 1.4282
 Frc consts  --      1.8737                 1.4912                 1.4367
 IR Inten    --     16.0532               104.4239                46.6040

                     70                     71                     72
                      A                      A                      A
 Frequencies --   1323.0595              1342.1036              1364.4058
 Red. masses --      1.3797                 1.6803                 1.5991
 Frc consts  --      1.4229                 1.7833                 1.7540
 IR Inten    --      7.7040                60.2407                65.0555

                     73                     74                     75
                      A                      A                      A
 Frequencies --   1373.4211              1376.8750              1381.4113
 Red. masses --      1.6205                 1.7380                 1.8617
 Frc consts  --      1.8010                 1.9413                 2.0932
 IR Inten    --     40.5515                66.1783                57.7004

                     76                     77                     78
                      A                      A                      A
 Frequencies --   1388.3256              1395.2469              1408.4002
 Red. masses --      2.5796                 1.8290                 1.4372
 Frc consts  --      2.9294                 2.0978                 1.6796
 IR Inten    --     44.9862                67.4777                 5.0561

                     79                     80                     81
                      A                      A                      A
 Frequencies --   1431.8512              1436.8025              1453.9138
 Red. masses --      1.2421                 1.3483                 1.2280
 Frc consts  --      1.5004                 1.6400                 1.5295
 IR Inten    --      3.0123                12.3311                15.3421

                     82                     83                     84
                      A                      A                      A
 Frequencies --   1471.1688              1509.2549              1512.1265
 Red. masses --      2.1030                 1.3977                 1.7261
 Frc consts  --      2.6818                 1.8759                 2.3254
 IR Inten    --     37.0425                 9.1343                 3.6021

                     85                     86                     87
                      A                      A                      A
 Frequencies --   1517.8817              1522.9862              1536.0439
 Red. masses --      1.0522                 1.0602                 1.0570
 Frc consts  --      1.4283                 1.4489                 1.4694
 IR Inten    --      1.2743                 2.6404                 1.9952

                     88                     89                     90
                      A                      A                      A
 Frequencies --   1538.1347              1549.8541              1552.2167
 Red. masses --      1.0640                 2.2665                 1.1047
 Frc consts  --      1.4832                 3.2077                 1.5681
 IR Inten    --      4.5049               111.2015                14.2862

                     91                     92                     93
                      A                      A                      A
 Frequencies --   1628.1220              1644.7259              1671.3916
 Red. masses --      1.4398                 4.1718                 5.4524
 Frc consts  --      2.2487                 6.6491                 8.9742
 IR Inten    --     87.0729                54.2205               186.3595

                     94                     95                     96
                      A                      A                      A
 Frequencies --   1695.5057              1756.6175              1818.7333
 Red. masses --      1.0891                 7.4117                 9.3860
 Frc consts  --      1.8446                13.4747                18.2922
 IR Inten    --     31.4018               357.5078               300.9954

                     97                     98                     99
                      A                      A                      A
 Frequencies --   3000.7441              3035.6735              3041.2243
 Red. masses --      1.0728                 1.0796                 1.0382
 Frc consts  --      5.6918                 5.8618                 5.6574
 IR Inten    --     68.5196                12.6222                31.9656

                    100                    101                    102
                      A                      A                      A
 Frequencies --   3047.7504              3083.2164              3089.8755
 Red. masses --      1.0420                 1.0579                 1.0870
 Frc consts  --      5.7024                 5.9252                 6.1145
 IR Inten    --     34.9061                26.7543                 2.1269

                    103                    104                    105
                      A                      A                      A
 Frequencies --   3103.6205              3110.4753              3117.8331
 Red. masses --      1.1011                 1.1011                 1.0911
 Frc consts  --      6.2488                 6.2766                 6.2494
 IR Inten    --      2.8424                44.9857                19.0023

                    106                    107                    108
                      A                      A                      A
 Frequencies --   3118.3627              3133.9925              3149.9544
 Red. masses --      1.0956                 1.1084                 1.0972
 Frc consts  --      6.2769                 6.4140                 6.4144
 IR Inten    --     55.1491                 8.1909                19.8932

                    109                    110                    111
                      A                      A                      A
 Frequencies --   3180.0524              3194.2322              3209.9044
 Red. masses --      1.0946                 1.0871                 1.0942
 Frc consts  --      6.5220                 6.5349                 6.6423
 IR Inten    --     79.6732                 9.1973                14.8917

                    112                    113                    114
                      A                      A                      A
 Frequencies --   3233.7341              3472.5960              3557.2659
 Red. masses --      1.0927                 1.0501                 1.0923
 Frc consts  --      6.7324                 7.4610                 8.1440
 IR Inten    --      3.2208                 0.8873                 0.0507

                    115                    116                    117
                      A                      A                      A
 Frequencies --   3563.9281              3593.1159              3718.8835
 Red. masses --      1.0746                 1.0445                 1.1050
 Frc consts  --      8.0417                 7.9448                 9.0043
 IR Inten    --     27.7009                31.3266                54.9098

 - Thermochemistry -
 -------------------
 Temperature   298.150 Kelvin.  Pressure   1.00000 Atm.
 Atom     1 has atomic number  6 and mass  12.00000

 Molecular mass:   279.15829 amu.
 Principal axes and moments of inertia in atomic units:
                           1         2         3
     Eigenvalues --  3398.494868743.679949698.20507
           X            0.99977  -0.01973  -0.00853
           Y            0.01966   0.99977  -0.00814
           Z            0.00869   0.00797   0.99993
 This molecule is an asymmetric top.
 Rotational symmetry number  1.
 Warning -- assumption of classical behavior for rotation
           may cause significant error
 Rotational temperatures (Kelvin)      0.02549     0.00991     0.00893
 Rotational constants (GHZ):           0.53104     0.20641     0.18609
 Zero-point vibrational energy     915982.3 (Joules/Mol)
                                  218.92502 (Kcal/Mol)
 Warning -- explicit consideration of  34 degrees of freedom as
           vibrations may cause significant error
 Vibrational temperatures:     27.48    41.73    71.77    86.49   101.28
          (Kelvin)            110.59   114.76   136.74   179.39   250.29
                              275.79   304.13   313.80   347.63   357.84
                              369.17   408.11   437.12   468.40   475.15
                              504.40   516.81   538.04   553.24   604.03
                              661.47   680.98   722.71   751.11   752.66
                              785.38   813.18   855.67   886.08   904.53
                              968.94   980.99  1016.55  1033.09  1123.97
                             1158.95  1181.63  1225.75  1251.64  1275.49
                             1291.04  1328.27  1363.47  1388.06  1401.41
                             1406.79  1425.32  1438.76  1466.62  1498.18
                             1521.13  1582.44  1594.26  1599.24  1608.78
                             1630.90  1672.07  1733.86  1736.88  1754.75
                             1791.74  1834.57  1859.70  1879.97  1903.59
                             1930.99  1963.08  1976.05  1981.02  1987.54
                             1997.49  2007.45  2026.37  2060.11  2067.24
                             2091.86  2116.68  2171.48  2175.61  2183.89
                             2191.24  2210.02  2213.03  2229.89  2233.29
                             2342.50  2366.39  2404.76  2439.45  2527.38
                             2616.75  4317.40  4367.66  4375.64  4385.03
                             4436.06  4445.64  4465.42  4475.28  4485.87
                             4486.63  4509.12  4532.08  4575.39  4595.79
                             4618.34  4652.62  4996.29  5118.11  5127.70
                             5169.69  5350.64

 Zero-point correction=                           0.348879 (Hartree/Particle)
 Thermal correction to Energy=                    0.369599
 Thermal correction to Enthalpy=                  0.370543
 Thermal correction to Gibbs Free Energy=         0.298352
 Sum of electronic and zero-point Energies=           -935.801138
 Sum of electronic and thermal Energies=              -935.780418
 Sum of electronic and thermal Enthalpies=            -935.779474
 Sum of electronic and thermal Free Energies=         -935.851665

                     E (Thermal)             CV                S
                      KCal/Mol        Cal/Mol-Kelvin    Cal/Mol-Kelvin
 Total                  231.927             78.386            151.939
 Electronic               0.000              0.000              0.000
 Translational            0.889              2.981             42.778
 Rotational               0.889              2.981             34.021
 Vibrational            230.149             72.424             75.140
 Vibration     1          0.593              1.986              6.726
 Vibration     2          0.593              1.984              5.896
 Vibration     3          0.595              1.978              4.822
 Vibration     4          0.597              1.973              4.453
 Vibration     5          0.598              1.968              4.142
 Vibration     6          0.599              1.965              3.969
 Vibration     7          0.600              1.963              3.897
 Vibration     8          0.603              1.953              3.554
 Vibration     9          0.610              1.928              3.026
 Vibration    10          0.627              1.875              2.392
 Vibration    11          0.634              1.851              2.212
 Vibration    12          0.643              1.823              2.032
 Vibration    13          0.646              1.813              1.975
 Vibration    14          0.658              1.777              1.791
 Vibration    15          0.662              1.765              1.740
 Vibration    16          0.666              1.752              1.685
 Vibration    17          0.682              1.704              1.512
 Vibration    18          0.695              1.666              1.396
 Vibration    19          0.710              1.624              1.282
 Vibration    20          0.713              1.615              1.259
 Vibration    21          0.727              1.574              1.164
 Vibration    22          0.734              1.556              1.126
 Vibration    23          0.745              1.526              1.064
 Vibration    24          0.753              1.503              1.021
 Vibration    25          0.783              1.427              0.893
 Vibration    26          0.818              1.339              0.767
 Vibration    27          0.830              1.309              0.728
 Vibration    28          0.858              1.245              0.652
 Vibration    29          0.877              1.201              0.605
 Vibration    30          0.878              1.199              0.603
 Vibration    31          0.901              1.149              0.553
 Vibration    32          0.921              1.107              0.514
 Vibration    33          0.952              1.043              0.459
 Vibration    34          0.975              0.998              0.423

                           ! Non-Optimized Parameters !
 Normal termination of Gaussian 16 at Sat Dec 12 16:44:48 2020.

 ----------------------------------------------------------------------
 # B3LYP/6-311++G(d,p) empiricaldispersion=gd3bj scf=xqc pop=npa geom=c
 heck
 ----------------------------------------------------------------------

 ---------------------------------------
 CID_65224919_JID_10520_Energie_neutraal
 ---------------------------------------
 Structure from the checkpoint file:  "JID_10520.chk"
 Charge =  0 Multiplicity = 1

 SCF Done:  E(RB3LYP) =  -936.433584889     A.U. after   15 cycles
 Normal termination of Gaussian 16 at Sat Dec 12 16:55:16 2020.

 ----------------------------------------------------------------------
 # B3LYP/6-311++G(d,p) empiricaldispersion=gd3bj scf=xqc pop=npa geom=c
 heck
 ----------------------------------------------------------------------

 -------------------------------------
 CID_65224919_JID_10520_Energie_kation
 -------------------------------------
 Structure from the checkpoint file:  "JID_10520.chk"
 Charge =  1 Multiplicity = 2

 SCF Done:  E(UB3LYP) =  -936.133462216     A.U. after   33 cycles
 SCF Done:  E(UB3LYP) =  -936.133462216     a.u. after    1 cycles
 Normal termination of Gaussian 16 at Sat Dec 12 17:27:52 2020.
 Gaussian 16:  ES64L-G16RevA.03 25-Dec-2016

 ----------------------------------------------------------------------
 # B3LYP/6-311++G(d,p) empiricaldispersion=gd3bj scf=xqc pop=npa geom=c
 heck
 ----------------------------------------------------------------------

 ------------------------------------
 CID_65224919_JID_10520_Energie_anion
 ------------------------------------
 Structure from the checkpoint file:  "JID_10520.chk"
 Charge = -1 Multiplicity = 2

                         Standard orientation:
 ---------------------------------------------------------------------
 Center     Atomic      Atomic             Coordinates (Angstroms)
 Number     Number       Type             X           Y           Z
 ---------------------------------------------------------------------
      1          6           0       -1.888758    2.467706    1.594564
      2          6           0       -1.810629    0.992911    1.168366
      3          6           0       -1.967228    0.094464    2.403431
      4          6           0       -2.889289    0.666957    0.110168
      5          6           0       -2.956132    1.640685   -1.086714
      6          7           0       -1.695748    1.709300   -1.834818
      7          6           0       -3.028339   -0.774331   -0.418876
      8          8           0       -4.120963   -1.116996   -0.859137
      9          7           0       -2.026063   -1.722532   -0.361701
     10          6           0       -0.621938   -1.655063   -0.179816
     11          6           0        0.149998   -0.712097   -0.854752
     12          6           0        1.531142   -0.676094   -0.644656
     13          6           0        2.156907   -1.607269    0.189806
     14          6           0        1.369996   -2.575044    0.820594
     15          6           0       -0.009666   -2.603420    0.652840
     16          8           0        2.190431    0.331716   -1.313745
     17          6           0        3.609378    0.354911   -1.239170
     18          6           0        4.154046    0.851553    0.105467
     19          8           0        5.282934    0.564733    0.472384
     20          7           0        3.304625    1.669570    0.784751
     21          1           0       -2.890198    2.719805    1.965620
     22          1           0       -1.656091    3.157018    0.775211
     23          1           0       -1.177255    2.666659    2.403932
     24          1           0       -0.816766    0.820720    0.746711
     25          1           0       -2.941418    0.264170    2.879736
     26          1           0       -1.896219   -0.965990    2.150926
     27          1           0       -1.190080    0.314904    3.143735
     28          1           0       -3.856344    0.793914    0.616082
     29          1           0       -3.730567    1.266565   -1.761512
     30          1           0       -3.297850    2.620659   -0.719548
     31          1           0       -1.846986    2.184894   -2.721914
     32          1           0       -1.014428    2.269514   -1.324784
     33          1           0       -2.392922   -2.630671   -0.626336
     34          1           0       -0.322967    0.003059   -1.522412
     35          1           0        3.225746   -1.588216    0.365018
     36          1           0        1.848231   -3.303029    1.469163
     37          1           0       -0.619141   -3.338089    1.170114
     38          1           0        4.046865   -0.625948   -1.448367
     39          1           0        3.930868    1.049610   -2.020752
     40          1           0        2.338808    1.739952    0.499804
     41          1           0        3.562876    1.955307    1.718413
 ---------------------------------------------------------------------

 SCF Done:  E(UB3LYP) =  -936.430146343     A.U. after   33 cycles
 SCF Done:  E(UB3LYP) =  -936.430146343     a.u. after    1 cycles

 The electronic state is 2-A.
 Alpha  occ. eigenvalues --  -19.07806 -19.00965 -18.99520 -14.25485 -14.24583
 Alpha  occ. eigenvalues --  -14.20253 -10.19351 -10.18317 -10.15391 -10.15390
 Alpha  occ. eigenvalues --  -10.13297 -10.10208 -10.09740 -10.09083 -10.08983
 Alpha  occ. eigenvalues --  -10.08905 -10.08323 -10.07791 -10.06529 -10.06311
 Alpha  occ. eigenvalues --   -0.99481  -0.95661  -0.95017  -0.84524  -0.82213
 Alpha  occ. eigenvalues --   -0.79517  -0.76531  -0.71950  -0.68565  -0.66327
 Alpha  occ. eigenvalues --   -0.63991  -0.63379  -0.59294  -0.55776  -0.53626
 Alpha  occ. eigenvalues --   -0.53024  -0.50788  -0.49514  -0.47638  -0.46428
 Alpha  occ. eigenvalues --   -0.45855  -0.41959  -0.41194  -0.40724  -0.40591
 Alpha  occ. eigenvalues --   -0.39443  -0.37834  -0.36560  -0.36223  -0.35170
 Alpha  occ. eigenvalues --   -0.35001  -0.34367  -0.33637  -0.33023  -0.31867
 Alpha  occ. eigenvalues --   -0.31246  -0.30900  -0.29830  -0.29414  -0.29004
 Alpha  occ. eigenvalues --   -0.28660  -0.28259  -0.27050  -0.25865  -0.25507
 Alpha  occ. eigenvalues --   -0.24794  -0.23456  -0.23197  -0.20372  -0.19287
 Alpha  occ. eigenvalues --   -0.18113  -0.16760  -0.15585  -0.14977  -0.14410
 Alpha  occ. eigenvalues --    0.03664
 Alpha virt. eigenvalues --    0.05628   0.06208   0.06746   0.06926   0.07139
 Alpha virt. eigenvalues --    0.07958   0.08206   0.08638   0.09279   0.09557
 Alpha virt. eigenvalues --    0.09817   0.10598   0.10916   0.11231   0.11442

  Beta  occ. eigenvalues --  -19.07802 -19.00952 -18.99484 -14.25496 -14.24527
  Beta  occ. eigenvalues --  -14.20216 -10.19342 -10.18275 -10.15393 -10.15377
  Beta  occ. eigenvalues --  -10.13253 -10.10191 -10.09723 -10.09085 -10.08948
  Beta  occ. eigenvalues --  -10.08905 -10.08318 -10.07766 -10.06516 -10.06266
  Beta  occ. eigenvalues --   -0.99474  -0.95637  -0.94951  -0.84485  -0.82136
  Beta  occ. eigenvalues --   -0.79457  -0.76489  -0.71920  -0.68526  -0.66255
  Beta  occ. eigenvalues --   -0.63941  -0.63332  -0.59233  -0.55695  -0.53570
  Beta  occ. eigenvalues --   -0.52976  -0.50722  -0.49446  -0.47598  -0.46387
  Beta  occ. eigenvalues --   -0.45815  -0.41923  -0.41156  -0.40688  -0.40552
  Beta  occ. eigenvalues --   -0.39394  -0.37799  -0.36501  -0.36167  -0.35135
  Beta  occ. eigenvalues --   -0.34958  -0.34336  -0.33579  -0.32962  -0.31823
  Beta  occ. eigenvalues --   -0.31183  -0.30838  -0.29802  -0.29385  -0.28962
  Beta  occ. eigenvalues --   -0.28618  -0.28211  -0.27010  -0.25836  -0.25424
  Beta  occ. eigenvalues --   -0.24754  -0.23424  -0.23174  -0.20233  -0.19230
  Beta  occ. eigenvalues --   -0.18066  -0.16726  -0.15527  -0.14870  -0.14314
  Beta virt. eigenvalues --    0.05825   0.06260   0.06584   0.07132   0.07185
  Beta virt. eigenvalues --    0.07672   0.08052   0.08517   0.08696   0.09522
  Beta virt. eigenvalues --    0.09852   0.09959   0.10872   0.11065   0.11354

 Mulliken charges and spin densities:
               1          2
     1  C    0.946009  -1.437375
     2  C   -1.244606   1.287702
     3  C   -0.491832  -0.172164
     4  C    1.002210  -0.337643
     5  C    0.650921  -1.242765
     6  N   -0.685624   0.154723
     7  C   -0.831247   0.500476
     8  O   -0.302746   0.013350
     9  N   -0.286105  -0.038574
    10  C    0.275676  -0.061894
    11  C   -0.497394   0.262165
    12  C   -0.691641   0.421312
    13  C    0.563624  -0.654131
    14  C   -0.066616  -0.287941
    15  C   -0.290102   0.223299
    16  O   -0.082086  -0.006819
    17  C    0.345336  -0.660803
    18  C   -0.127567   0.086077
    19  O   -0.320528   0.017595
    20  N   -0.130328  -0.146553
    21  H    0.038642   0.114995
    22  H   -0.539043   0.687758
    23  H   -0.284438   0.433032
    24  H    0.862339  -0.759611
    25  H   -0.017464   0.154828
    26  H    0.221140  -0.093676
    27  H   -0.044041   0.193132
    28  H    0.215408   0.024201
    29  H    0.217459  -0.021922
    30  H   -0.121392   0.282073
    31  H   -0.009672   0.279304
    32  H    0.001449   0.253053
    33  H    0.207301   0.118466
    34  H    0.441566  -0.031499
    35  H    0.227429  -0.035978
    36  H    0.015494   0.154809
    37  H   -0.014791   0.171939
    38  H    0.172671   0.036430
    39  H   -0.170061   0.383031
    40  H   -0.002452   0.285933
    41  H   -0.152897   0.449666
 Sum of Mulliken charges =  -1.00000   1.00000

 Dipole moment (field-independent basis, Debye):
    X=             -0.7817    Y=             -5.9004    Z=             -0.6622  Tot=              5.9887
 Quadrupole moment (field-independent basis, Debye-Ang):
   XX=           -208.8227   YY=           -169.6911   ZZ=           -155.5172
   XY=             -8.3693   XZ=            -10.3960   YZ=             -5.5337

 Summary of Natural Population Analysis:

                                       Natural Population
                Natural  -----------------------------------------------
    Atom  No    Charge         Core      Valence    Rydberg      Total
 -----------------------------------------------------------------------
      C    1   -0.28356      0.99965     2.27714    0.00677     3.28356
      C    2   -0.12496      0.99959     2.11519    0.01018     3.12496
      C    3   -0.28268      0.99965     2.27738    0.00565     3.28268
      C    4   -0.15006      0.99952     2.13766    0.01287     3.15006
      C    5   -0.08533      0.99960     2.07332    0.01241     3.08533
      N    6   -0.42968      0.99977     2.91862    0.01129     3.92968
      C    7    0.36441      0.99963     1.61323    0.02272     2.63559
      O    8   -0.32535      0.99988     3.31995    0.00552     4.32535
      N    9   -0.31909      0.99964     2.80974    0.00972     3.81909
      C   10    0.08743      0.99946     1.90177    0.01134     2.91257
      C   11   -0.13526      0.99946     2.12626    0.00955     3.13526
      C   12    0.15969      0.99937     1.82739    0.01355     2.84031
      C   13   -0.14410      0.99951     2.13714    0.00745     3.14410
      C   14   -0.08592      0.99958     2.07705    0.00930     3.08592
      C   15   -0.12365      0.99951     2.11542    0.00872     3.12365
      O   16   -0.27740      0.99986     3.26746    0.01008     4.27740
      C   17   -0.05428      0.99953     2.04210    0.01265     3.05428
      C   18    0.32175      0.99971     1.65502    0.02352     2.67825
      O   19   -0.32057      0.99988     3.31460    0.00609     4.32057
      N   20   -0.39510      0.99970     2.88713    0.00827     3.89510
      H   21    0.09503      0.00000     0.40392    0.00105     0.40497
      H   22    0.10125      0.00000     0.39696    0.00179     0.39875
      H   23    0.10368      0.00000     0.39501    0.00131     0.39632
      H   24    0.10198      0.00000     0.39388    0.00414     0.39802
      H   25    0.09439      0.00000     0.40483    0.00078     0.40561
      H   26    0.10160      0.00000     0.39722    0.00119     0.39840
      H   27    0.10102      0.00000     0.39816    0.00082     0.39898
      H   28    0.11346      0.00000     0.38525    0.00129     0.38654
      H   29    0.10017      0.00000     0.39859    0.00124     0.39983
      H   30    0.08530      0.00000     0.41335    0.00135     0.41470
      H   31    0.17970      0.00000     0.31873    0.00157     0.32030
      H   32    0.17876      0.00000     0.31808    0.00316     0.32124
      H   33    0.19643      0.00000     0.30101    0.00256     0.30357
      H   34    0.13324      0.00000     0.36436    0.00241     0.36676
      H   35    0.10843      0.00000     0.39005    0.00152     0.39157
      H   36    0.10037      0.00000     0.39888    0.00075     0.39963
      H   37    0.10243      0.00000     0.39657    0.00100     0.39757
      H   38    0.09649      0.00000     0.40233    0.00118     0.40351
      H   39    0.10768      0.00000     0.39130    0.00103     0.39232
      H   40    0.20263      0.00000     0.29303    0.00434     0.29737
      H   41    0.19968      0.00000     0.29739    0.00293     0.30032
 =======================================================================
   * Total *   -0.00000     19.99250    54.75244    0.25506    75.00000

 Normal termination of Gaussian 16 at Sat Dec 12 17:59:49 2020.
