 Gaussian 16, Revision A.03,

 -----------------------------------------------------------
 # opt freq B3LYP/6-31G(d) empiricaldispersion=gd3bj scf=xqc
 -----------------------------------------------------------

 ------------------------------
 CID_77557299_JID_3232_neutraal
 ------------------------------
 Symbolic Z-matrix:
 Charge =  0 Multiplicity = 1

 SCF Done:  E(RB3LYP) =  -612.559965270     A.U. after   14 cycles
 SCF Done:  E(RB3LYP) =  -612.566120028     A.U. after   13 cycles
 SCF Done:  E(RB3LYP) =  -612.566273259     A.U. after   12 cycles
 SCF Done:  E(RB3LYP) =  -612.567014116     A.U. after   12 cycles
 SCF Done:  E(RB3LYP) =  -612.567623285     A.U. after   11 cycles
 SCF Done:  E(RB3LYP) =  -612.568101866     A.U. after   12 cycles
 SCF Done:  E(RB3LYP) =  -612.568294345     A.U. after   12 cycles
 SCF Done:  E(RB3LYP) =  -612.568743742     A.U. after   11 cycles
 SCF Done:  E(RB3LYP) =  -612.568943727     A.U. after   11 cycles
 SCF Done:  E(RB3LYP) =  -612.569145678     A.U. after   11 cycles
 SCF Done:  E(RB3LYP) =  -612.570303304     A.U. after    7 cycles
 SCF Done:  E(RB3LYP) =  -612.570303322     A.U. after    6 cycles
 SCF Done:  E(RB3LYP) =  -612.570303345     A.U. after    7 cycles
 SCF Done:  E(RB3LYP) =  -612.570303372     A.U. after    7 cycles
 SCF Done:  E(RB3LYP) =  -612.570303405     A.U. after    7 cycles
 SCF Done:  E(RB3LYP) =  -612.570303423     A.U. after    6 cycles
 Optimization completed.
    -- Stationary point found.
 Normal termination of Gaussian 16 at Wed Dec  9 22:46:59 2020.

 --------------------------------------------------------------------
 #N Geom=AllCheck Guess=TCheck SCRF=Check GenChk RB3LYP/6-31G(d) Freq
 --------------------------------------------------------------------

 Structure from the checkpoint file:  "JID_3232.chk"
 ------------------------------
 CID_77557299_JID_3232_neutraal
 ------------------------------
 Charge =  0 Multiplicity = 1

 SCF Done:  E(RB3LYP) =  -612.570303423     A.U. after    1 cycles

  Exact polarizability: 124.692   3.333 101.022  -6.809  -3.014  95.132
 Approx polarizability: 158.540   8.213 154.396 -13.062  -9.052 143.134

                      1                      2                      3
                      A                      A                      A
 Frequencies --     37.2042                56.6963                77.3496
 Red. masses --      3.7940                 1.8308                 2.8343
 Frc consts  --      0.0031                 0.0035                 0.0100
 IR Inten    --      0.9773                 1.4370                 0.9718

                      4                      5                      6
                      A                      A                      A
 Frequencies --    109.5778               140.0624               150.3955
 Red. masses --      2.6288                 1.8087                 1.5643
 Frc consts  --      0.0186                 0.0209                 0.0208
 IR Inten    --      0.4653                 1.0820                 1.0256

                      7                      8                      9
                      A                      A                      A
 Frequencies --    199.0754               232.0468               243.6835
 Red. masses --      4.1014                 2.1904                 2.9224
 Frc consts  --      0.0958                 0.0695                 0.1022
 IR Inten    --      1.5956                 0.9652                12.9222

                     10                     11                     12
                      A                      A                      A
 Frequencies --    287.7179               340.1094               394.5298
 Red. masses --      2.5313                 3.6019                 2.8562
 Frc consts  --      0.1235                 0.2455                 0.2619
 IR Inten    --      4.1542                 1.3288                 8.0617

                     13                     14                     15
                      A                      A                      A
 Frequencies --    405.2184               447.8606               470.8320
 Red. masses --      1.8991                 2.4563                 3.3767
 Frc consts  --      0.1837                 0.2903                 0.4410
 IR Inten    --      0.4411                14.0949                 3.3737

                     16                     17                     18
                      A                      A                      A
 Frequencies --    557.6502               583.3163               667.9850
 Red. masses --      3.7970                 4.0022                 5.4941
 Frc consts  --      0.6957                 0.8023                 1.4444
 IR Inten    --      7.5103                18.7182                 4.5626

                     19                     20                     21
                      A                      A                      A
 Frequencies --    698.4250               726.8376               744.3869
 Red. masses --      4.2465                 4.4868                 2.4636
 Frc consts  --      1.2205                 1.3966                 0.8043
 IR Inten    --     35.9917                 5.7453                44.6554

                     22                     23                     24
                      A                      A                      A
 Frequencies --    779.3470               810.7306               857.0698
 Red. masses --      2.9517                 3.3494                 2.4927
 Frc consts  --      1.0563                 1.2971                 1.0788
 IR Inten    --      4.2788                 1.9191                33.6335

                     25                     26                     27
                      A                      A                      A
 Frequencies --    882.5052               930.3805               945.7060
 Red. masses --      3.6025                 2.2222                 2.8758
 Frc consts  --      1.6531                 1.1333                 1.5154
 IR Inten    --      3.2378                 4.9797                10.4504

                     28                     29                     30
                      A                      A                      A
 Frequencies --    959.6154               982.3945               993.9339
 Red. masses --      3.4938                 2.4332                 2.6261
 Frc consts  --      1.8956                 1.3836                 1.5285
 IR Inten    --     25.7986                 8.8823                12.9610

                     31                     32                     33
                      A                      A                      A
 Frequencies --   1030.7931              1065.4175              1083.3485
 Red. masses --      1.9858                 1.9583                 2.0778
 Frc consts  --      1.2432                 1.3097                 1.4368
 IR Inten    --      4.0460                40.1607                17.1763

                     34                     35                     36
                      A                      A                      A
 Frequencies --   1092.0883              1105.0891              1139.4987
 Red. masses --      1.3802                 3.6424                 1.7828
 Frc consts  --      0.9699                 2.6208                 1.3639
 IR Inten    --      4.3342                33.0304                56.6987

                     37                     38                     39
                      A                      A                      A
 Frequencies --   1141.4733              1157.1294              1184.6448
 Red. masses --      1.4268                 2.4518                 1.7670
 Frc consts  --      1.0953                 1.9342                 1.4611
 IR Inten    --     28.4632               108.3885                 8.6872

                     40                     41                     42
                      A                      A                      A
 Frequencies --   1187.2334              1207.4863              1216.1861
 Red. masses --      1.6112                 1.5182                 1.2923
 Frc consts  --      1.3381                 1.3042                 1.1262
 IR Inten    --      6.4236                 6.6419                 3.2760

                     43                     44                     45
                      A                      A                      A
 Frequencies --   1241.7326              1272.2905              1293.6977
 Red. masses --      1.2020                 1.3034                 5.2008
 Frc consts  --      1.0920                 1.2430                 5.1285
 IR Inten    --      6.0267                 1.7242                44.7224

                     46                     47                     48
                      A                      A                      A
 Frequencies --   1302.0203              1313.7845              1331.1304
 Red. masses --      1.2381                 1.3474                 1.4054
 Frc consts  --      1.2366                 1.3703                 1.4672
 IR Inten    --      2.5623                 0.3527                 3.7193

                     49                     50                     51
                      A                      A                      A
 Frequencies --   1344.0272              1355.7973              1366.6539
 Red. masses --      1.2527                 1.4432                 1.2490
 Frc consts  --      1.3333                 1.5630                 1.3745
 IR Inten    --     17.5153                 0.3487                 2.1779

                     52                     53                     54
                      A                      A                      A
 Frequencies --   1414.9269              1424.8012              1444.6128
 Red. masses --      1.4233                 1.7577                 1.6158
 Frc consts  --      1.6788                 2.1023                 1.9867
 IR Inten    --     20.4530                45.5390                50.7338

                     55                     56                     57
                      A                      A                      A
 Frequencies --   1454.9567              1493.2723              1498.8562
 Red. masses --      1.3280                 1.2573                 1.1761
 Frc consts  --      1.6563                 1.6518                 1.5568
 IR Inten    --     23.3879                15.9197                 9.7713

                     58                     59                     60
                      A                      A                      A
 Frequencies --   1512.7306              1516.5240              1524.0049
 Red. masses --      1.0580                 1.0829                 1.0894
 Frc consts  --      1.4265                 1.4673                 1.4908
 IR Inten    --      3.1462                 8.9347                 2.8240

                     61                     62                     63
                      A                      A                      A
 Frequencies --   1529.2464              1534.7468              1542.4834
 Red. masses --      1.0630                 1.0506                 1.1003
 Frc consts  --      1.4646                 1.4580                 1.5425
 IR Inten    --     13.7178                11.8749                 2.6618

                     64                     65                     66
                      A                      A                      A
 Frequencies --   1565.4123              1773.2923              2967.8977
 Red. masses --      1.1909                10.3457                 1.0726
 Frc consts  --      1.7194                19.1678                 5.5667
 IR Inten    --     24.9058               260.0524                75.6723

                     67                     68                     69
                      A                      A                      A
 Frequencies --   2989.0226              3020.3718              3030.6134
 Red. masses --      1.0736                 1.0419                 1.0411
 Frc consts  --      5.6513                 5.6000                 5.6338
 IR Inten    --    120.4505                36.8413                93.5382

                     70                     71                     72
                      A                      A                      A
 Frequencies --   3059.4282              3061.2019              3072.7713
 Red. masses --      1.0743                 1.1032                 1.0764
 Frc consts  --      5.9244                 6.0912                 5.9881
 IR Inten    --      7.2011                53.0723                41.6820

                     73                     74                     75
                      A                      A                      A
 Frequencies --   3074.9933              3089.2002              3102.7323
 Red. masses --      1.1039                 1.0857                 1.0890
 Frc consts  --      6.1501                 6.1044                 6.1768
 IR Inten    --     30.5512                23.8878                51.8150

                     76                     77                     78
                      A                      A                      A
 Frequencies --   3108.4575              3118.2805              3191.7837
 Red. masses --      1.0914                 1.1015                 1.0924
 Frc consts  --      6.2135                 6.3102                 6.5568
 IR Inten    --     23.9935                39.5592                12.8046

                     79                     80                     81
                      A                      A                      A
 Frequencies --   3196.0658              3196.1836              3510.5617
 Red. masses --      1.0926                 1.0950                 1.0754
 Frc consts  --      6.5759                 6.5909                 7.8086
 IR Inten    --      1.1167                 3.3671                 0.2727

 - Thermochemistry -
 -------------------
 Temperature   298.150 Kelvin.  Pressure   1.00000 Atm.
 Atom     1 has atomic number  6 and mass  12.00000

 Molecular mass:   184.12118 amu.
 Principal axes and moments of inertia in atomic units:
                           1         2         3
     Eigenvalues --  1313.792682978.806463126.97217
           X            0.99989   0.00191  -0.01469
           Y           -0.00214   0.99988  -0.01562
           Z            0.01466   0.01565   0.99977
 This molecule is an asymmetric top.
 Rotational symmetry number  1.
 Warning -- assumption of classical behavior for rotation
           may cause significant error
 Rotational temperatures (Kelvin)      0.06593     0.02908     0.02770
 Rotational constants (GHZ):           1.37369     0.60586     0.57715
 Zero-point vibrational energy     670887.3 (Joules/Mol)
                                  160.34591 (Kcal/Mol)
 Warning -- explicit consideration of  17 degrees of freedom as
           vibrations may cause significant error
 Vibrational temperatures:     53.53    81.57   111.29   157.66   201.52
          (Kelvin)            216.39   286.43   333.86   350.61   413.96
                              489.34   567.64   583.02   644.37   677.42
                              802.33   839.26   961.08  1004.88  1045.76
                             1071.01  1121.31  1166.46  1233.13  1269.73
                             1338.61  1360.66  1380.67  1413.45  1430.05
                             1483.08  1532.90  1558.70  1571.27  1589.98
                             1639.48  1642.33  1664.85  1704.44  1708.16
                             1737.30  1749.82  1786.58  1830.54  1861.34
                             1873.32  1890.24  1915.20  1933.76  1950.69
                             1966.31  2035.76  2049.97  2078.48  2093.36
                             2148.49  2156.52  2176.48  2181.94  2192.70
                             2200.24  2208.16  2219.29  2252.28  2551.37
                             4270.14  4300.54  4345.64  4360.38  4401.83
                             4404.39  4421.03  4424.23  4444.67  4464.14
                             4472.38  4486.51  4592.26  4598.43  4598.60
                             5050.92

 Zero-point correction=                           0.255527 (Hartree/Particle)
 Thermal correction to Energy=                    0.268070
 Thermal correction to Enthalpy=                  0.269014
 Thermal correction to Gibbs Free Energy=         0.215996
 Sum of electronic and zero-point Energies=           -612.314776
 Sum of electronic and thermal Energies=              -612.302234
 Sum of electronic and thermal Enthalpies=            -612.301290
 Sum of electronic and thermal Free Energies=         -612.354307

                     E (Thermal)             CV                S
                      KCal/Mol        Cal/Mol-Kelvin    Cal/Mol-Kelvin
 Total                  168.216             47.283            111.584
 Electronic               0.000              0.000              0.000
 Translational            0.889              2.981             41.538
 Rotational               0.889              2.981             30.882
 Vibrational            166.439             41.322             39.165
 Vibration     1          0.594              1.982              5.403
 Vibration     2          0.596              1.975              4.569
 Vibration     3          0.599              1.964              3.957
 Vibration     4          0.606              1.942              3.276
 Vibration     5          0.615              1.913              2.803
 Vibration     6          0.618              1.902              2.667
 Vibration     7          0.637              1.841              2.142
 Vibration     8          0.653              1.792              1.863
 Vibration     9          0.659              1.773              1.776
 Vibration    10          0.685              1.697              1.487
 Vibration    11          0.720              1.595              1.212
 Vibration    12          0.761              1.482              0.983
 Vibration    13          0.770              1.459              0.944
 Vibration    14          0.807              1.366              0.802
 Vibration    15          0.828              1.315              0.735
 Vibration    16          0.913              1.123              0.529
 Vibration    17          0.940              1.067              0.479

 Optimization completed.
    -- Stationary point found.
 Normal termination of Gaussian 16 at Wed Dec  9 22:56:06 2020.

 ----------------------------------------------------------------------
 # B3LYP/6-311++G(d,p) empiricaldispersion=gd3bj scf=xqc pop=npa geom=c
 heck
 ----------------------------------------------------------------------

 --------------------------------------
 CID_77557299_JID_3232_Energie_neutraal
 --------------------------------------
 Structure from the checkpoint file:  "JID_3232.chk"
 Charge =  0 Multiplicity = 1

 SCF Done:  E(RB3LYP) =  -612.746917088     A.U. after   15 cycles
 Normal termination of Gaussian 16 at Wed Dec  9 23:00:17 2020.

 ----------------------------------------------------------------------
 # B3LYP/6-311++G(d,p) empiricaldispersion=gd3bj scf=xqc pop=npa geom=c
 heck
 ----------------------------------------------------------------------

 ------------------------------------
 CID_77557299_JID_3232_Energie_kation
 ------------------------------------
 Structure from the checkpoint file:  "JID_3232.chk"
 Charge =  1 Multiplicity = 2

 SCF Done:  E(UB3LYP) =  -612.447465373     A.U. after   28 cycles
 Normal termination of Gaussian 16 at Wed Dec  9 23:11:13 2020.
 Gaussian 16:  ES64L-G16RevA.03 25-Dec-2016

 ----------------------------------------------------------------------
 # B3LYP/6-311++G(d,p) empiricaldispersion=gd3bj scf=xqc pop=npa geom=c
 heck
 ----------------------------------------------------------------------

 -----------------------------------
 CID_77557299_JID_3232_Energie_anion
 -----------------------------------
 Structure from the checkpoint file:  "JID_3232.chk"
 Charge = -1 Multiplicity = 2

                         Standard orientation:
 ---------------------------------------------------------------------
 Center     Atomic      Atomic             Coordinates (Angstroms)
 Number     Number       Type             X           Y           Z
 ---------------------------------------------------------------------
      1          6           0        3.157951   -1.153753   -0.505810
      2          7           0        2.290993   -0.049373   -0.128261
      3          6           0        2.786087    1.265129   -0.489021
      4          6           0        1.134066   -0.324316    0.568913
      5          8           0        0.857311   -1.461267    0.923692
      6          6           0        0.211459    0.876667    0.871157
      7          6           0       -0.390598    1.515547   -0.423191
      8          6           0       -1.854700    1.022323   -0.500572
      9          6           0       -2.098674   -0.014637   -1.601465
     10          8           0       -1.604216   -1.230529   -1.063733
     11          6           0       -2.086680   -1.272844    0.280026
     12          6           0       -2.050513    0.183209    0.808852
     13          7           0       -0.920921    0.465918    1.702412
     14          1           0        3.343717   -1.135889   -1.587582
     15          1           0        2.665435   -2.084896   -0.231368
     16          1           0        4.124508   -1.085081    0.011989
     17          1           0        2.822958    1.387229   -1.580906
     18          1           0        2.162820    2.058289   -0.081301
     19          1           0        3.805078    1.401053   -0.101507
     20          1           0        0.800109    1.608362    1.434913
     21          1           0       -0.355659    2.607581   -0.348987
     22          1           0        0.168698    1.232776   -1.319305
     23          1           0       -2.552487    1.861955   -0.566858
     24          1           0       -1.563533    0.186746   -2.534058
     25          1           0       -3.177420   -0.093116   -1.826257
     26          1           0       -1.435418   -1.928271    0.853745
     27          1           0       -3.123186   -1.648495    0.287909
     28          1           0       -2.978624    0.418195    1.336896
     29          1           0       -1.172636    1.248171    2.300624
 ---------------------------------------------------------------------

 SCF Done:  E(UB3LYP) =  -612.739587819     A.U. after   30 cycles

 The electronic state is 2-A.
 Alpha  occ. eigenvalues --  -19.01481 -18.97357 -14.23680 -14.18884 -10.15766
 Alpha  occ. eigenvalues --  -10.10941 -10.10056 -10.09813 -10.09641 -10.09550
 Alpha  occ. eigenvalues --  -10.09112 -10.06801 -10.06284  -0.93620  -0.92821
 Alpha  occ. eigenvalues --   -0.82945  -0.81264  -0.67212  -0.65205  -0.62229
 Alpha  occ. eigenvalues --   -0.60896  -0.58735  -0.52407  -0.47665  -0.46587
 Alpha  occ. eigenvalues --   -0.43912  -0.42231  -0.39383  -0.37627  -0.37465
 Alpha  occ. eigenvalues --   -0.36542  -0.36046  -0.34332  -0.32473  -0.31485
 Alpha  occ. eigenvalues --   -0.30304  -0.30164  -0.29225  -0.28344  -0.27742
 Alpha  occ. eigenvalues --   -0.25917  -0.25651  -0.23497  -0.22910  -0.22558
 Alpha  occ. eigenvalues --   -0.21514  -0.15735  -0.14458  -0.13774  -0.12358
 Alpha  occ. eigenvalues --    0.04106
 Alpha virt. eigenvalues --    0.06438   0.07689   0.08166   0.08971   0.09296
 Alpha virt. eigenvalues --    0.09857   0.10581   0.11269   0.12347   0.12434
 Alpha virt. eigenvalues --    0.12613   0.12738   0.13381   0.13833   0.14869

  Beta  occ. eigenvalues --  -19.01474 -18.97349 -14.23678 -14.18864 -10.15760
  Beta  occ. eigenvalues --  -10.10931 -10.10012 -10.09796 -10.09637 -10.09532
  Beta  occ. eigenvalues --  -10.09100 -10.06785 -10.06253  -0.93606  -0.92807
  Beta  occ. eigenvalues --   -0.82930  -0.81212  -0.67164  -0.65162  -0.62186
  Beta  occ. eigenvalues --   -0.60852  -0.58691  -0.52359  -0.47620  -0.46544
  Beta  occ. eigenvalues --   -0.43847  -0.42157  -0.39341  -0.37595  -0.37422
  Beta  occ. eigenvalues --   -0.36512  -0.36013  -0.34306  -0.32414  -0.31456
  Beta  occ. eigenvalues --   -0.30269  -0.30130  -0.29193  -0.28310  -0.27705
  Beta  occ. eigenvalues --   -0.25892  -0.25617  -0.23451  -0.22860  -0.22513
  Beta  occ. eigenvalues --   -0.21491  -0.15697  -0.14440  -0.13740  -0.12329
  Beta virt. eigenvalues --    0.06634   0.07244   0.08479   0.08720   0.09459
  Beta virt. eigenvalues --    0.09774   0.10523   0.11098   0.11474   0.12544
  Beta virt. eigenvalues --    0.12800   0.12982   0.13157   0.13584   0.13892

 Mulliken charges and spin densities:
               1          2
     1  C    0.020371  -0.272828
     2  N   -0.075374   0.153069
     3  C    0.888215  -1.302293
     4  C   -1.177590   0.824432
     5  O   -0.300805  -0.002152
     6  C    1.066880  -0.968719
     7  C    0.666354  -1.560813
     8  C    0.611022   0.079328
     9  C   -0.220303  -0.345004
    10  O   -0.024714  -0.018995
    11  C    0.067725  -0.462781
    12  C   -0.610758   0.118532
    13  N   -0.029389   0.053996
    14  H   -0.007971   0.134525
    15  H    0.122009   0.059809
    16  H    0.025226   0.114754
    17  H   -0.302247   0.476192
    18  H   -0.171962   0.346397
    19  H   -0.435026   0.573911
    20  H   -0.324532   0.557779
    21  H   -0.517059   0.699853
    22  H    0.398348  -0.234088
    23  H   -0.546729   0.798239
    24  H   -0.116870   0.269089
    25  H    0.074638   0.041048
    26  H    0.262330  -0.026841
    27  H    0.022124   0.079025
    28  H   -0.365646   0.558828
    29  H    0.001734   0.255708
 Sum of Mulliken charges =  -1.00000   1.00000

 Dipole moment (field-independent basis, Debye):
    X=             -0.2290    Y=             -4.6138    Z=             -1.6749  Tot=              4.9138
 Quadrupole moment (field-independent basis, Debye-Ang):
   XX=           -126.5025   YY=           -129.2895   ZZ=           -113.0842
   XY=             -0.7481   XZ=              2.5712   YZ=             -1.0807

 Summary of Natural Population Analysis:

                                       Natural Population
                Natural  -----------------------------------------------
    Atom  No    Charge         Core      Valence    Rydberg      Total
 -----------------------------------------------------------------------
      C    1   -0.17897      0.99964     2.17153    0.00780     3.17897
      N    2   -0.25872      0.99966     2.74928    0.00979     3.75872
      C    3   -0.17504      0.99963     2.16730    0.00811     3.17504
      C    4    0.35024      0.99962     1.62551    0.02463     2.64976
      O    5   -0.32168      0.99987     3.31665    0.00516     4.32168
      C    6   -0.05465      0.99956     2.03962    0.01547     3.05465
      C    7   -0.19874      0.99960     2.18839    0.01074     3.19874
      C    8   -0.13084      0.99959     2.11881    0.01244     3.13084
      C    9   -0.00884      0.99957     1.99585    0.01342     3.00884
      O   10   -0.29827      0.99990     3.29006    0.00831     4.29827
      C   11   -0.02238      0.99957     2.00979    0.01302     3.02238
      C   12   -0.02131      0.99959     2.00721    0.01451     3.02131
      N   13   -0.32834      0.99973     2.81571    0.01290     3.82834
      H   14    0.09089      0.00000     0.40821    0.00090     0.40911
      H   15    0.11602      0.00000     0.38295    0.00103     0.38398
      H   16    0.08886      0.00000     0.41023    0.00092     0.41114
      H   17    0.09372      0.00000     0.40472    0.00156     0.40628
      H   18    0.10753      0.00000     0.39056    0.00191     0.39247
      H   19    0.09337      0.00000     0.40529    0.00134     0.40663
      H   20    0.10936      0.00000     0.38828    0.00236     0.39064
      H   21    0.10890      0.00000     0.38695    0.00415     0.39110
      H   22    0.10076      0.00000     0.39691    0.00233     0.39924
      H   23    0.10749      0.00000     0.38993    0.00258     0.39251
      H   24    0.09003      0.00000     0.40877    0.00120     0.40997
      H   25    0.07475      0.00000     0.42388    0.00137     0.42525
      H   26    0.11280      0.00000     0.38587    0.00133     0.38720
      H   27    0.07287      0.00000     0.42586    0.00126     0.42713
      H   28    0.10006      0.00000     0.39838    0.00155     0.39994
      H   29    0.18013      0.00000     0.31675    0.00312     0.31987
 =======================================================================
   * Total *   -0.00000     12.99553    36.81926    0.18521    50.00000

 Normal termination of Gaussian 16 at Wed Dec  9 23:22:57 2020.
