 Gaussian 16, Revision A.03,

 -----------------------------------------------------------
 # opt freq B3LYP/6-31G(d) empiricaldispersion=gd3bj scf=xqc
 -----------------------------------------------------------

 -----------------------------
 CID_71407358_JID_463_neutraal
 -----------------------------
 Symbolic Z-matrix:
 Charge =  0 Multiplicity = 1

 SCF Done:  E(RB3LYP) =  -498.433941311     A.U. after   15 cycles
 SCF Done:  E(RB3LYP) =  -498.439810419     A.U. after   13 cycles
 SCF Done:  E(RB3LYP) =  -498.440702535     A.U. after   13 cycles
 SCF Done:  E(RB3LYP) =  -498.441203342     A.U. after   13 cycles
 SCF Done:  E(RB3LYP) =  -498.441295515     A.U. after   11 cycles
 SCF Done:  E(RB3LYP) =  -498.441313564     A.U. after   11 cycles
 SCF Done:  E(RB3LYP) =  -498.441376066     A.U. after   11 cycles
 SCF Done:  E(RB3LYP) =  -498.441379614     A.U. after    9 cycles
 SCF Done:  E(RB3LYP) =  -498.441380208     A.U. after    9 cycles
 Optimization completed.
    -- Stationary point found.

 1\1\GINC-NODE214\FOpt\RB3LYP\6-31G(d)\C7H10O3\VSC10255\08-Dec-2020\0\\
 # opt freq B3LYP/6-31G(d) empiricaldispersion=gd3bj scf=xqc\\CID_71407
 358_JID_463_neutraal\\0,1\C,1.0240733728,-0.0256917313,-0.0028080589\C
 ,0.5539205837,-0.6940085422,1.2916544185\C,0.8276703702,0.0527130821,2
 .596391236\C,0.2428072422,1.4706386156,2.6911464273\C,1.0811687529,2.4
 933799905,1.9170288426\O,0.5012595427,3.3953623953,1.3167559309\C,2.51
 01152076,2.3105885413,2.0247374671\C,2.9841135661,1.1397543286,2.51345
 59664\O,2.2657896359,0.0740334107,2.8778784578\O,-1.0858678522,1.48693

 Normal termination of Gaussian 16 at Tue Dec  8 10:57:15 2020.

 --------------------------------------------------------------------
 #N Geom=AllCheck Guess=TCheck SCRF=Check GenChk RB3LYP/6-31G(d) Freq
 --------------------------------------------------------------------

 Structure from the checkpoint file:  "JID_463.chk"
 -----------------------------
 CID_71407358_JID_463_neutraal
 -----------------------------
 Charge =  0 Multiplicity = 1

 SCF Done:  E(RB3LYP) =  -498.441380208     A.U. after    1 cycles

  Exact polarizability:  85.072  -4.148  81.819   8.783   2.078  65.014
 Approx polarizability: 145.637 -19.945 119.802  28.910  -1.146  97.525

                      1                      2                      3
                      A                      A                      A
 Frequencies --     86.8763               108.3270               150.4413
 Red. masses --      2.8046                 5.8371                 4.4820
 Frc consts  --      0.0125                 0.0404                 0.0598
 IR Inten    --      1.4406                 0.6108                 2.4488

                      4                      5                      6
                      A                      A                      A
 Frequencies --    212.7354               257.1603               308.2230
 Red. masses --      3.2148                 1.4673                 3.5749
 Frc consts  --      0.0857                 0.0572                 0.2001
 IR Inten    --      2.1990                 0.6395                14.6289

                      7                      8                      9
                      A                      A                      A
 Frequencies --    324.2037               344.3962               437.0338
 Red. masses --      1.8814                 3.7320                 6.1743
 Frc consts  --      0.1165                 0.2608                 0.6948
 IR Inten    --      1.4088                11.5360                 4.0469

                     10                     11                     12
                      A                      A                      A
 Frequencies --    444.9459               503.8379               534.7524
 Red. masses --      4.8175                 3.0631                 1.3123
 Frc consts  --      0.5619                 0.4581                 0.2211
 IR Inten    --      4.6841                33.8601                50.2224

                     13                     14                     15
                      A                      A                      A
 Frequencies --    563.8863               628.6140               715.5521
 Red. masses --      4.0237                 3.9485                 4.3627
 Frc consts  --      0.7538                 0.9193                 1.3161
 IR Inten    --     24.8458                 7.2434                 3.3974

                     16                     17                     18
                      A                      A                      A
 Frequencies --    751.8888               794.0250               821.9281
 Red. masses --      1.9444                 1.3737                 1.7772
 Frc consts  --      0.6476                 0.5103                 0.7074
 IR Inten    --      1.6428                28.3985                 7.8067

                     19                     20                     21
                      A                      A                      A
 Frequencies --    860.9085               912.6560               923.1981
 Red. masses --      4.8755                 2.8272                 4.0931
 Frc consts  --      2.1290                 1.3874                 2.0554
 IR Inten    --     34.9859                24.4852                10.4583

                     22                     23                     24
                      A                      A                      A
 Frequencies --    987.6084              1015.1461              1062.8838
 Red. masses --      1.3686                 1.9043                 2.3128
 Frc consts  --      0.7865                 1.1562                 1.5394
 IR Inten    --      1.0553                 6.0078                45.0402

                     25                     26                     27
                      A                      A                      A
 Frequencies --   1106.0517              1114.6264              1162.5517
 Red. masses --      1.8868                 1.9568                 4.0429
 Frc consts  --      1.3600                 1.4324                 3.2193
 IR Inten    --      3.7037                34.6008                59.9723

                     28                     29                     30
                      A                      A                      A
 Frequencies --   1172.7009              1238.9680              1271.7085
 Red. masses --      1.9538                 1.6666                 1.2405
 Frc consts  --      1.5831                 1.5073                 1.1820
 IR Inten    --     57.7334                45.8725                16.0641

                     31                     32                     33
                      A                      A                      A
 Frequencies --   1311.0425              1328.1808              1356.9924
 Red. masses --      1.4917                 1.1791                 1.3922
 Frc consts  --      1.5107                 1.2255                 1.5104
 IR Inten    --    100.9575                 6.8318                56.4630

                     34                     35                     36
                      A                      A                      A
 Frequencies --   1390.0695              1403.5590              1420.1924
 Red. masses --      1.6024                 1.3685                 1.4188
 Frc consts  --      1.8243                 1.5884                 1.6860
 IR Inten    --     18.4193                 0.4835                 0.9618

                     37                     38                     39
                      A                      A                      A
 Frequencies --   1450.1404              1458.7740              1470.6765
 Red. masses --      1.3594                 2.0382                 1.4667
 Frc consts  --      1.6843                 2.5555                 1.8690
 IR Inten    --      3.3778                46.7936                75.4716

                     40                     41                     42
                      A                      A                      A
 Frequencies --   1502.3016              1533.8217              1541.6149
 Red. masses --      1.0898                 1.0506                 1.0467
 Frc consts  --      1.4491                 1.4563                 1.4657
 IR Inten    --      6.5796                 6.1378                16.8537

                     43                     44                     45
                      A                      A                      A
 Frequencies --   1661.1831              1763.0157              2954.2993
 Red. masses --      5.1489                11.0363                 1.0810
 Frc consts  --      8.3714                20.2110                 5.5586
 IR Inten    --    166.2337               234.7376                41.9338

                     46                     47                     48
                      A                      A                      A
 Frequencies --   3059.1077              3064.8669              3103.8477
 Red. masses --      1.0649                 1.0364                 1.0933
 Frc consts  --      5.8717                 5.7360                 6.2057
 IR Inten    --     16.6330                19.5192                19.2097

                     49                     50                     51
                      A                      A                      A
 Frequencies --   3107.1644              3127.7106              3145.8462
 Red. masses --      1.0932                 1.1004                 1.1029
 Frc consts  --      6.2184                 6.3421                 6.4308
 IR Inten    --     16.2729                32.8267                22.1611

                     52                     53                     54
                      A                      A                      A
 Frequencies --   3202.7383              3241.9677              3569.0984
 Red. masses --      1.0909                 1.0951                 1.0644
 Frc consts  --      6.5932                 6.7816                 7.9883
 IR Inten    --     11.9678                 2.4414                61.6160

 - Thermochemistry -
 -------------------
 Temperature   298.150 Kelvin.  Pressure   1.00000 Atm.
 Atom     1 has atomic number  6 and mass  12.00000

 Molecular mass:   142.06299 amu.
 Principal axes and moments of inertia in atomic units:
                           1         2         3
     Eigenvalues --  1110.270131242.885361608.68967
           X            0.98557   0.16337  -0.04428
           Y           -0.16409   0.98636  -0.01309
           Z            0.04154   0.02016   0.99893
 This molecule is an asymmetric top.
 Rotational symmetry number  1.
 Warning -- assumption of classical behavior for rotation
           may cause significant error
 Rotational temperatures (Kelvin)      0.07801     0.06969     0.05384
 Rotational constants (GHZ):           1.62550     1.45206     1.12187
 Zero-point vibrational energy     436553.5 (Joules/Mol)
                                  104.33879 (Kcal/Mol)
 Warning -- explicit consideration of  13 degrees of freedom as
           vibrations may cause significant error
 Vibrational temperatures:    125.00   155.86   216.45   306.08   370.00
          (Kelvin)            443.46   466.46   495.51   628.79   640.18
                              724.91   769.39   811.31   904.44  1029.52
                             1081.80  1142.42  1182.57  1238.66  1313.11
                             1328.28  1420.95  1460.57  1529.25  1591.36
                             1603.70  1672.65  1687.26  1782.60  1829.70
                             1886.30  1910.96  1952.41  2000.00  2019.41
                             2043.34  2086.43  2098.85  2115.98  2161.48
                             2206.83  2218.04  2390.07  2536.59  4250.58
                             4401.37  4409.66  4465.74  4470.52  4500.08
                             4526.17  4608.03  4664.47  5135.14

 Zero-point correction=                           0.166274 (Hartree/Particle)
 Thermal correction to Energy=                    0.175522
 Thermal correction to Enthalpy=                  0.176466
 Thermal correction to Gibbs Free Energy=         0.132230
 Sum of electronic and zero-point Energies=           -498.275106
 Sum of electronic and thermal Energies=              -498.265859
 Sum of electronic and thermal Enthalpies=            -498.264914
 Sum of electronic and thermal Free Energies=         -498.309150

                     E (Thermal)             CV                S
                      KCal/Mol        Cal/Mol-Kelvin    Cal/Mol-Kelvin
 Total                  110.141             35.437             93.101
 Electronic               0.000              0.000              0.000
 Translational            0.889              2.981             40.765
 Rotational               0.889              2.981             29.186
 Vibrational            108.364             29.475             23.151
 Vibration     1          0.601              1.958              3.729
 Vibration     2          0.606              1.943              3.299
 Vibration     3          0.618              1.902              2.667
 Vibration     4          0.644              1.822              2.020
 Vibration     5          0.667              1.751              1.681
 Vibration     6          0.698              1.658              1.372
 Vibration     7          0.709              1.627              1.289
 Vibration     8          0.723              1.587              1.192
 Vibration     9          0.797              1.389              0.836
 Vibration    10          0.804              1.372              0.811
 Vibration    11          0.859              1.241              0.649
 Vibration    12          0.890              1.173              0.577
 Vibration    13          0.920              1.109              0.516

 Optimization completed.
    -- Stationary point found.

 1\1\GINC-NODE214\Freq\RB3LYP\6-31G(d)\C7H10O3\VSC10255\08-Dec-2020\0\\
 #N Geom=AllCheck Guess=TCheck SCRF=Check GenChk RB3LYP/6-31G(d) Freq\\
 CID_71407358_JID_463_neutraal\\0,1\C,1.0240733728,-0.0256917313,-0.002
 8080589\C,0.5539205837,-0.6940085422,1.2916544185\C,0.8276703702,0.052
 7130821,2.596391236\C,0.2428072422,1.4706386156,2.6911464273\C,1.08116
 87529,2.4933799905,1.9170288426\O,0.5012595427,3.3953623953,1.31675593
 09\C,2.5101152076,2.3105885413,2.0247374671\C,2.9841135661,1.139754328
 6,2.5134559664\O,2.2657896359,0.0740334107,2.8778784578\O,-1.085867852

 Normal termination of Gaussian 16 at Tue Dec  8 11:07:08 2020.

 ----------------------------------------------------------------------
 # B3LYP/6-311++G(d,p) empiricaldispersion=gd3bj scf=xqc pop=npa geom=c
 heck
 ----------------------------------------------------------------------

 -------------------------------------
 CID_71407358_JID_463_Energie_neutraal
 -------------------------------------
 Structure from the checkpoint file:  "JID_463.chk"
 Charge =  0 Multiplicity = 1

 SCF Done:  E(RB3LYP) =  -498.594700328     A.U. after   15 cycles
 Normal termination of Gaussian 16 at Tue Dec  8 11:09:59 2020.

 ----------------------------------------------------------------------
 # B3LYP/6-311++G(d,p) empiricaldispersion=gd3bj scf=xqc pop=npa geom=c
 heck
 ----------------------------------------------------------------------

 -----------------------------------
 CID_71407358_JID_463_Energie_kation
 -----------------------------------
 Structure from the checkpoint file:  "JID_463.chk"
 Charge =  1 Multiplicity = 2

 SCF Done:  E(UB3LYP) =  -498.258716652     A.U. after   23 cycles
 Normal termination of Gaussian 16 at Tue Dec  8 11:15:49 2020.
 Gaussian 16:  ES64L-G16RevA.03 25-Dec-2016

 ----------------------------------
 CID_71407358_JID_463_Energie_anion
 ----------------------------------
 Structure from the checkpoint file:  "JID_463.chk"
 Charge = -1 Multiplicity = 2

                         Standard orientation:
 ---------------------------------------------------------------------
 Center     Atomic      Atomic             Coordinates (Angstroms)
 Number     Number       Type             X           Y           Z
 ---------------------------------------------------------------------
      1          6           0       -1.229043   -0.811818    1.669155
      2          6           0       -1.659181   -1.061627    0.221433
      3          6           0       -0.927374   -0.274594   -0.864803
      4          6           0        0.598361   -0.453123   -0.907413
      5          6           0        1.305505    0.365698    0.177754
      6          8           0        2.287496   -0.119936    0.734573
      7          6           0        0.754838    1.683050    0.397418
      8          6           0       -0.464721    1.975139   -0.114181
      9          8           0       -1.272673    1.147324   -0.782379
     10          8           0        0.939301   -1.809366   -0.796497
     11          1           0       -0.181261   -1.082271    1.828286
     12          1           0       -1.835196   -1.423337    2.345928
     13          1           0       -1.359744    0.234678    1.960119
     14          1           0       -1.517062   -2.119341   -0.023727
     15          1           0       -2.728767   -0.847113    0.107145
     16          1           0       -1.340526   -0.572386   -1.831583
     17          1           0        0.954971   -0.036931   -1.867771
     18          1           0        1.297455    2.415356    0.982745
     19          1           0       -0.921869    2.955865   -0.008325
     20          1           0        1.728708   -1.805051   -0.214572
 ---------------------------------------------------------------------

 SCF Done:  E(UB3LYP) =  -498.597769090     A.U. after   30 cycles

 The electronic state is 2-A.
 Alpha  occ. eigenvalues --  -19.00812 -18.97820 -18.92081 -10.09263 -10.07392
 Alpha  occ. eigenvalues --  -10.06482 -10.05459 -10.04060 -10.03118  -9.99904
 Alpha  occ. eigenvalues --   -0.92668  -0.89380  -0.84871  -0.66511  -0.62345
 Alpha  occ. eigenvalues --   -0.59801  -0.51717  -0.48072  -0.44375  -0.38390
 Alpha  occ. eigenvalues --   -0.37137  -0.35028  -0.34434  -0.31685  -0.30072
 Alpha  occ. eigenvalues --   -0.27994  -0.27492  -0.25803  -0.25418  -0.23430
 Alpha  occ. eigenvalues --   -0.22874  -0.22074  -0.20614  -0.19144  -0.17690
 Alpha  occ. eigenvalues --   -0.13934  -0.09158  -0.08402   0.05671
 Alpha virt. eigenvalues --    0.08793   0.10059   0.10131   0.11453   0.12401
 Alpha virt. eigenvalues --    0.12864   0.13182   0.13640   0.15025   0.16412
 Alpha virt. eigenvalues --    0.17948   0.18633   0.19196   0.20029   0.20477

  Beta  occ. eigenvalues --  -19.00658 -18.97816 -18.91601 -10.09239 -10.07428
  Beta  occ. eigenvalues --  -10.05974 -10.05045 -10.04042 -10.03115 -10.00002
  Beta  occ. eigenvalues --   -0.92302  -0.89221  -0.84100  -0.66387  -0.61794
  Beta  occ. eigenvalues --   -0.59634  -0.51601  -0.47696  -0.43768  -0.38187
  Beta  occ. eigenvalues --   -0.36872  -0.34739  -0.34046  -0.31554  -0.29906
  Beta  occ. eigenvalues --   -0.27868  -0.27272  -0.25256  -0.24911  -0.22877
  Beta  occ. eigenvalues --   -0.22397  -0.21355  -0.20457  -0.18117  -0.17053
  Beta  occ. eigenvalues --   -0.13635  -0.08480  -0.07428
  Beta virt. eigenvalues --    0.08713   0.10031   0.10223   0.11364   0.12482
  Beta virt. eigenvalues --    0.12770   0.12926   0.13420   0.14042   0.15092
  Beta virt. eigenvalues --    0.16417   0.17919   0.18614   0.19611   0.20129

 Mulliken charges and spin densities:
               1          2
     1  C   -0.557831   0.150354
     2  C    0.225623  -0.775929
     3  C    0.000505   0.391667
     4  C   -0.038188  -0.482471
     5  C    0.091693  -0.021614
     6  O   -0.477339   0.173839
     7  C    0.022704   0.145946
     8  C   -0.357577   0.207190
     9  O   -0.048607  -0.008989
    10  O   -0.248788  -0.000552
    11  H    0.206240  -0.022491
    12  H    0.047866   0.064547
    13  H    0.161182  -0.008170
    14  H    0.063334   0.080366
    15  H    0.031689   0.110781
    16  H   -0.473782   0.696493
    17  H   -0.041183   0.231821
    18  H    0.095899   0.034676
    19  H    0.051913   0.033810
    20  H    0.244647  -0.001274
 Sum of Mulliken charges =  -1.00000   1.00000

 Dipole moment (field-independent basis, Debye):
    X=             -2.4539    Y=              0.0102    Z=              1.6382  Tot=              2.9504
 Quadrupole moment (field-independent basis, Debye-Ang):
   XX=            -86.4540   YY=            -79.1800   ZZ=            -78.8575
   XY=             -0.3015   XZ=             -5.6065   YZ=             -0.6502

 Summary of Natural Population Analysis:

                                       Natural Population
                Natural  -----------------------------------------------
    Atom  No    Charge         Core      Valence    Rydberg      Total
 -----------------------------------------------------------------------
      C    1   -0.29258      0.99966     2.28698    0.00594     3.29258
      C    2   -0.20233      0.99961     2.19237    0.01035     3.20233
      C    3    0.06885      0.99951     1.91486    0.01678     2.93115
      C    4    0.01508      0.99951     1.96810    0.01732     2.98492
      C    5    0.29808      0.99960     1.68148    0.02084     2.70192
      O    6   -0.28739      0.99988     3.28076    0.00676     4.28739
      C    7   -0.24696      0.99951     2.23600    0.01144     3.24696
      C    8    0.20983      0.99949     1.77479    0.01589     2.79017
      O    9   -0.26919      0.99987     3.25862    0.01070     4.26919
      O   10   -0.38318      0.99989     3.37642    0.00687     4.38318
      H   11    0.10781      0.00000     0.39112    0.00107     0.39219
      H   12    0.08943      0.00000     0.40981    0.00076     0.41057
      H   13    0.10146      0.00000     0.39765    0.00089     0.39854
      H   14    0.10492      0.00000     0.39393    0.00116     0.39508
      H   15    0.09337      0.00000     0.40554    0.00109     0.40663
      H   16    0.09197      0.00000     0.40561    0.00242     0.40803
      H   17    0.08853      0.00000     0.40927    0.00220     0.41147
      H   18    0.10046      0.00000     0.39807    0.00147     0.39954
      H   19    0.07272      0.00000     0.42636    0.00092     0.42728
      H   20    0.23913      0.00000     0.25732    0.00356     0.26087
 =======================================================================
   * Total *   -0.00000      9.99654    27.86504    0.13842    38.00000

 Normal termination of Gaussian 16 at Tue Dec  8 11:24:17 2020.
