 Gaussian 16, Revision A.03,

 -----------------------------------------------------------
 # opt freq B3LYP/6-31G(d) empiricaldispersion=gd3bj scf=xqc
 -----------------------------------------------------------

 -------------------------------
 CID_117547480_JID_2861_neutraal
 -------------------------------
 Symbolic Z-matrix:
 Charge =  0 Multiplicity = 1

 SCF Done:  E(RB3LYP) =  -578.276940594     A.U. after   14 cycles
 SCF Done:  E(RB3LYP) =  -578.281032408     A.U. after   11 cycles
 SCF Done:  E(RB3LYP) =  -578.279433455     A.U. after   13 cycles
 SCF Done:  E(RB3LYP) =  -578.281766531     A.U. after   12 cycles
 SCF Done:  E(RB3LYP) =  -578.282037702     A.U. after   11 cycles
 SCF Done:  E(RB3LYP) =  -578.282049070     A.U. after   10 cycles
 SCF Done:  E(RB3LYP) =  -578.282080356     A.U. after    9 cycles
 SCF Done:  E(RB3LYP) =  -578.282054212     A.U. after   10 cycles
 SCF Done:  E(RB3LYP) =  -578.282038389     A.U. after   10 cycles
 SCF Done:  E(RB3LYP) =  -578.282078954     A.U. after   10 cycles
 SCF Done:  E(RB3LYP) =  -578.282081764     A.U. after    9 cycles
 SCF Done:  E(RB3LYP) =  -578.282085192     A.U. after    8 cycles
 SCF Done:  E(RB3LYP) =  -578.282085462     A.U. after    7 cycles
 SCF Done:  E(RB3LYP) =  -578.282085570     A.U. after    7 cycles
 SCF Done:  E(RB3LYP) =  -578.282085665     A.U. after    7 cycles
 Optimization completed.
    -- Stationary point found.

 1\1\GINC-NODE318\FOpt\RB3LYP\6-31G(d)\C9H16O3\VSC10255\09-Dec-2020\0\\
 # opt freq B3LYP/6-31G(d) empiricaldispersion=gd3bj scf=xqc\\CID_11754
 7480_JID_2861_neutraal\\0,1\C,0.8421678539,0.016321967,-0.1229277018\C
 ,0.225233673,1.397165074,0.119832206\C,1.1642509419,2.6219991585,0.169
 8726022\C,0.3805573249,3.7923891727,0.832709345\O,0.9977554856,3.53323
 07989,2.1094961386\C,1.9677552663,2.651724958,1.4962556563\C,1.9512251
 99,2.9270784358,-1.150149031\C,3.1694386896,1.9929108499,-1.3160292394
 \C,1.0306825155,2.8186189518,-2.3785556347\C,2.5293472058,4.3423831846

 Normal termination of Gaussian 16 at Wed Dec  9 18:08:49 2020.

 --------------------------------------------------------------------
 #N Geom=AllCheck Guess=TCheck SCRF=Check GenChk RB3LYP/6-31G(d) Freq
 --------------------------------------------------------------------

 Structure from the checkpoint file:  "JID_2861.chk"
 -------------------------------
 CID_117547480_JID_2861_neutraal
 -------------------------------
 Charge =  0 Multiplicity = 1

 SCF Done:  E(RB3LYP) =  -578.282085665     A.U. after    1 cycles

  Exact polarizability: 105.575   3.103  91.999  -1.679  -0.034  94.929
 Approx polarizability: 139.816   3.355 130.722  -1.183   4.763 149.351

                      1                      2                      3
                      A                      A                      A
 Frequencies --     58.4856                66.8385               103.8594
 Red. masses --      3.9713                 8.1951                 5.0882
 Frc consts  --      0.0080                 0.0216                 0.0323
 IR Inten    --      0.1033                 1.5209                 4.0909

                      4                      5                      6
                      A                      A                      A
 Frequencies --    141.5141               190.8772               200.5904
 Red. masses --      2.7299                 1.3423                 3.2939
 Frc consts  --      0.0322                 0.0288                 0.0781
 IR Inten    --      0.0827                 0.3526                 1.9857

                      7                      8                      9
                      A                      A                      A
 Frequencies --    231.1636               235.3663               273.0951
 Red. masses --      2.3618                 1.4918                 1.8825
 Frc consts  --      0.0744                 0.0487                 0.0827
 IR Inten    --      0.1439                 0.2419                 1.6380

                     10                     11                     12
                      A                      A                      A
 Frequencies --    293.6470               305.4968               326.1543
 Red. masses --      1.3309                 1.7461                 2.3928
 Frc consts  --      0.0676                 0.0960                 0.1500
 IR Inten    --      0.5131                 0.2497                 0.3396

                     13                     14                     15
                      A                      A                      A
 Frequencies --    351.8576               360.2366               391.2211
 Red. masses --      2.3269                 2.7999                 2.5539
 Frc consts  --      0.1697                 0.2141                 0.2303
 IR Inten    --      1.1360                 2.2105                 2.3182

                     16                     17                     18
                      A                      A                      A
 Frequencies --    425.0672               484.6361               501.6458
 Red. masses --      2.3881                 3.0213                 3.5193
 Frc consts  --      0.2542                 0.4181                 0.5218
 IR Inten    --      1.0925                 5.6917                 6.7180

                     19                     20                     21
                      A                      A                      A
 Frequencies --    547.8560               632.4776               667.7989
 Red. masses --      3.9503                 1.8856                 1.7526
 Frc consts  --      0.6986                 0.4444                 0.4605
 IR Inten    --      2.1022                43.3528                69.3019

                     22                     23                     24
                      A                      A                      A
 Frequencies --    763.5623               789.7321               818.6893
 Red. masses --      2.4710                 1.8898                 2.7273
 Frc consts  --      0.8488                 0.6944                 1.0770
 IR Inten    --     13.9590                17.9313                24.5705

                     25                     26                     27
                      A                      A                      A
 Frequencies --    831.0760               892.1239               932.6731
 Red. masses --      2.1817                 2.1018                 2.5834
 Frc consts  --      0.8878                 0.9856                 1.3241
 IR Inten    --      8.5174                10.8411                 8.8612

                     28                     29                     30
                      A                      A                      A
 Frequencies --    963.4382               978.1489               989.9910
 Red. masses --      1.5434                 2.0789                 1.9636
 Frc consts  --      0.8440                 1.1719                 1.1338
 IR Inten    --      1.8098                 1.7121                 4.1652

                     31                     32                     33
                      A                      A                      A
 Frequencies --   1004.1793              1039.1051              1042.0281
 Red. masses --      1.4889                 4.3406                 2.5800
 Frc consts  --      0.8846                 2.7614                 1.6505
 IR Inten    --      2.1767                42.0652                 8.9651

                     34                     35                     36
                      A                      A                      A
 Frequencies --   1058.5891              1061.5102              1136.5597
 Red. masses --      1.9063                 1.7542                 2.5252
 Frc consts  --      1.2586                 1.1646                 1.9219
 IR Inten    --      4.5700                12.8573                63.4801

                     37                     38                     39
                      A                      A                      A
 Frequencies --   1157.8242              1169.0712              1179.0369
 Red. masses --      2.1542                 1.5425                 1.4019
 Frc consts  --      1.7014                 1.2421                 1.1482
 IR Inten    --    109.2112                60.5790                 1.7504

                     40                     41                     42
                      A                      A                      A
 Frequencies --   1190.7361              1205.9800              1244.4315
 Red. masses --      1.9307                 1.8070                 3.2619
 Frc consts  --      1.6129                 1.5484                 2.9762
 IR Inten    --     11.2365                10.2407                30.4481

                     43                     44                     45
                      A                      A                      A
 Frequencies --   1255.5437              1284.4341              1324.6850
 Red. masses --      2.2135                 2.3178                 1.2629
 Frc consts  --      2.0558                 2.2530                 1.3057
 IR Inten    --     14.6111                 2.0069                 2.1895

                     46                     47                     48
                      A                      A                      A
 Frequencies --   1349.9583              1370.5570              1401.2301
 Red. masses --      1.3032                 2.2461                 1.4654
 Frc consts  --      1.3992                 2.4858                 1.6952
 IR Inten    --      3.1585                24.9668                 1.9359

                     49                     50                     51
                      A                      A                      A
 Frequencies --   1405.7386              1432.6148              1444.1292
 Red. masses --      1.3976                 1.2113                 1.2539
 Frc consts  --      1.6271                 1.4648                 1.5408
 IR Inten    --      0.2290                 8.0561                 3.7496

                     52                     53                     54
                      A                      A                      A
 Frequencies --   1457.4521              1512.3063              1516.9765
 Red. masses --      1.2200                 1.0542                 1.0474
 Frc consts  --      1.5269                 1.4206                 1.4201
 IR Inten    --      8.3010                 0.7257                 1.5162

                     55                     56                     57
                      A                      A                      A
 Frequencies --   1523.7496              1532.3538              1535.4541
 Red. masses --      1.0579                 1.0538                 1.0512
 Frc consts  --      1.4472                 1.4579                 1.4602
 IR Inten    --     15.6217                 1.8369                 4.0751

                     58                     59                     60
                      A                      A                      A
 Frequencies --   1542.8971              1547.4575              1550.4773
 Red. masses --      1.0568                 1.0779                 1.0552
 Frc consts  --      1.4823                 1.5208                 1.4945
 IR Inten    --      3.8233                 0.5446                 8.8973

                     61                     62                     63
                      A                      A                      A
 Frequencies --   1573.3411              1826.9942              3041.9047
 Red. masses --      1.1076                 9.6231                 1.0583
 Frc consts  --      1.6153                18.9252                 5.7695
 IR Inten    --      3.5497               211.0712                22.3488

                     64                     65                     66
                      A                      A                      A
 Frequencies --   3046.2046              3053.9176              3056.6505
 Red. masses --      1.0580                 1.0446                 1.0531
 Frc consts  --      5.7842                 5.7401                 5.7969
 IR Inten    --     77.0366                17.3366                19.8401

                     67                     68                     69
                      A                      A                      A
 Frequencies --   3068.8614              3076.1017              3078.5902
 Red. masses --      1.0384                 1.0450                 1.0980
 Frc consts  --      5.7621                 5.8259                 6.1311
 IR Inten    --     11.3221                19.5015                21.4291

                     70                     71                     72
                      A                      A                      A
 Frequencies --   3090.0780              3110.9140              3115.5938
 Red. masses --      1.1093                 1.1073                 1.1020
 Frc consts  --      6.2407                 6.3140                 6.3024
 IR Inten    --     41.3550                31.8348                32.2515

                     73                     74                     75
                      A                      A                      A
 Frequencies --   3129.4112              3137.4263              3144.4514
 Red. masses --      1.1020                 1.1021                 1.0990
 Frc consts  --      6.3583                 6.3916                 6.4021
 IR Inten    --     54.6194                18.5892                13.7531

                     76                     77                     78
                      A                      A                      A
 Frequencies --   3145.8915              3188.2976              3674.7362
 Red. masses --      1.0982                 1.0995                 1.0639
 Frc consts  --      6.4038                 6.5849                 8.4647
 IR Inten    --     20.1421                16.0188                53.2295

 - Thermochemistry -
 -------------------
 Temperature   298.150 Kelvin.  Pressure   1.00000 Atm.
 Atom     1 has atomic number  6 and mass  12.00000

 Molecular mass:   172.10994 amu.
 Principal axes and moments of inertia in atomic units:
                           1         2         3
     Eigenvalues --  1504.784062101.623452622.65550
           X            0.99904   0.04206  -0.01199
           Y           -0.04226   0.99897  -0.01670
           Z            0.01128   0.01719   0.99979
 This molecule is an asymmetric top.
 Rotational symmetry number  1.
 Warning -- assumption of classical behavior for rotation
           may cause significant error
 Rotational temperatures (Kelvin)      0.05756     0.04121     0.03303
 Rotational constants (GHZ):           1.19934     0.85874     0.68814
 Zero-point vibrational energy     644702.0 (Joules/Mol)
                                  154.08747 (Kcal/Mol)
 Warning -- explicit consideration of  19 degrees of freedom as
           vibrations may cause significant error
 Vibrational temperatures:     84.15    96.17   149.43   203.61   274.63
          (Kelvin)            288.60   332.59   338.64   392.92   422.49
                              439.54   469.26   506.24   518.30   562.88
                              611.58   697.28   721.76   788.24   909.99
                              960.81  1098.60  1136.25  1177.91  1195.73
                             1283.57  1341.91  1386.17  1407.34  1424.38
                             1444.79  1495.04  1499.25  1523.07  1527.28
                             1635.26  1665.85  1682.03  1696.37  1713.20
                             1735.14  1790.46  1806.45  1848.01  1905.93
                             1942.29  1971.93  2016.06  2022.54  2061.21
                             2077.78  2096.95  2175.87  2182.59  2192.34
                             2204.72  2209.18  2219.88  2226.45  2230.79
                             2263.69  2628.64  4376.62  4382.81  4393.91
                             4397.84  4415.41  4425.82  4429.40  4445.93
                             4475.91  4482.64  4502.52  4514.06  4524.16
                             4526.24  4587.25  5287.13

 Zero-point correction=                           0.245554 (Hartree/Particle)
 Thermal correction to Energy=                    0.258410
 Thermal correction to Enthalpy=                  0.259354
 Thermal correction to Gibbs Free Energy=         0.207227
 Sum of electronic and zero-point Energies=           -578.036532
 Sum of electronic and thermal Energies=              -578.023676
 Sum of electronic and thermal Enthalpies=            -578.022732
 Sum of electronic and thermal Free Energies=         -578.074858

                     E (Thermal)             CV                S
                      KCal/Mol        Cal/Mol-Kelvin    Cal/Mol-Kelvin
 Total                  162.154             49.068            109.709
 Electronic               0.000              0.000              0.000
 Translational            0.889              2.981             41.336
 Rotational               0.889              2.981             30.496
 Vibrational            160.377             43.106             37.877
 Vibration     1          0.596              1.974              4.508
 Vibration     2          0.598              1.970              4.244
 Vibration     3          0.605              1.946              3.381
 Vibration     4          0.615              1.912              2.783
 Vibration     5          0.634              1.852              2.219
 Vibration     6          0.638              1.839              2.128
 Vibration     7          0.653              1.793              1.870
 Vibration     8          0.655              1.787              1.838
 Vibration     9          0.676              1.723              1.577
 Vibration    10          0.688              1.686              1.453
 Vibration    11          0.696              1.663              1.387
 Vibration    12          0.710              1.623              1.279
 Vibration    13          0.728              1.571              1.158
 Vibration    14          0.735              1.554              1.121
 Vibration    15          0.759              1.489              0.995
 Vibration    16          0.787              1.416              0.875
 Vibration    17          0.841              1.284              0.698
 Vibration    18          0.857              1.246              0.654
 Vibration    19          0.903              1.144              0.549

 Optimization completed.
    -- Stationary point found.

 1\1\GINC-NODE318\Freq\RB3LYP\6-31G(d)\C9H16O3\VSC10255\09-Dec-2020\0\\
 #N Geom=AllCheck Guess=TCheck SCRF=Check GenChk RB3LYP/6-31G(d) Freq\\
 CID_117547480_JID_2861_neutraal\\0,1\C,0.8421678539,0.016321967,-0.122
 9277018\C,0.225233673,1.397165074,0.119832206\C,1.1642509419,2.6219991
 585,0.1698726022\C,0.3805573249,3.7923891727,0.832709345\O,0.997755485
 6,3.5332307989,2.1094961386\C,1.9677552663,2.651724958,1.4962556563\C,
 1.951225199,2.9270784358,-1.150149031\C,3.1694386896,1.9929108499,-1.3
 160292394\C,1.0306825155,2.8186189518,-2.3785556347\C,2.5293472058,4.3

 Normal termination of Gaussian 16 at Wed Dec  9 18:16:33 2020.

 ----------------------------------------------------------------------
 # B3LYP/6-311++G(d,p) empiricaldispersion=gd3bj scf=xqc pop=npa geom=c
 heck
 ----------------------------------------------------------------------

 ---------------------------------------
 CID_117547480_JID_2861_Energie_neutraal
 ---------------------------------------
 Structure from the checkpoint file:  "JID_2861.chk"
 Charge =  0 Multiplicity = 1

 SCF Done:  E(RB3LYP) =  -578.458033980     A.U. after   14 cycles
 Normal termination of Gaussian 16 at Wed Dec  9 18:19:18 2020.

 ----------------------------------------------------------------------
 # B3LYP/6-311++G(d,p) empiricaldispersion=gd3bj scf=xqc pop=npa geom=c
 heck
 ----------------------------------------------------------------------

 -------------------------------------
 CID_117547480_JID_2861_Energie_kation
 -------------------------------------
 Structure from the checkpoint file:  "JID_2861.chk"
 Charge =  1 Multiplicity = 2

 SCF Done:  E(UB3LYP) =  -578.124012713     A.U. after   23 cycles
 Normal termination of Gaussian 16 at Wed Dec  9 18:26:17 2020.
 Gaussian 16:  ES64L-G16RevA.03 25-Dec-2016

 ------------------------------------
 CID_117547480_JID_2861_Energie_anion
 ------------------------------------
 Structure from the checkpoint file:  "JID_2861.chk"
 Charge = -1 Multiplicity = 2

                         Standard orientation:
 ---------------------------------------------------------------------
 Center     Atomic      Atomic             Coordinates (Angstroms)
 Number     Number       Type             X           Y           Z
 ---------------------------------------------------------------------
      1          6           0       -2.803055   -1.177424    0.221535
      2          6           0       -2.023123   -0.197847   -0.660736
      3          6           0       -0.655494    0.313498   -0.158148
      4          6           0       -0.285126    1.573533   -0.993898
      5          8           0       -0.757597    2.450606    0.048117
      6          6           0       -0.835017    1.348684    0.982884
      7          6           0        0.447660   -0.781891    0.036872
      8          6           0        0.249026   -1.562312    1.354339
      9          6           0        0.475346   -1.754957   -1.154984
     10          6           0        1.797504   -0.069162    0.179245
     11          8           0        2.204579    0.454928    1.194275
     12          8           0        2.530780   -0.056221   -0.963220
     13          1           0       -2.388616   -2.189187    0.194126
     14          1           0       -3.840412   -1.244316   -0.124137
     15          1           0       -2.825212   -0.851020    1.267416
     16          1           0       -1.900513   -0.623164   -1.664289
     17          1           0       -2.636499    0.702254   -0.792916
     18          1           0        0.782854    1.716268   -1.194202
     19          1           0       -0.839835    1.706731   -1.931050
     20          1           0       -1.794514    1.328712    1.513758
     21          1           0       -0.012445    1.378780    1.704165
     22          1           0        0.224259   -0.888366    2.212981
     23          1           0       -0.671994   -2.143882    1.334620
     24          1           0        1.081656   -2.257539    1.506812
     25          1           0        0.565473   -1.226888   -2.108187
     26          1           0        1.323288   -2.441524   -1.073760
     27          1           0       -0.439344   -2.353358   -1.176000
     28          1           0        3.343429    0.439258   -0.745366
 ---------------------------------------------------------------------

 SCF Done:  E(UB3LYP) =  -578.444771003     A.U. after   33 cycles
 SCF Done:  E(UB3LYP) =  -578.444771003     a.u. after    1 cycles

 The electronic state is 2-A.
 Alpha  occ. eigenvalues --  -19.06678 -19.01931 -19.01376 -10.20213 -10.11575
 Alpha  occ. eigenvalues --  -10.11397 -10.10440 -10.09667 -10.07166 -10.06298
 Alpha  occ. eigenvalues --  -10.06042 -10.05945  -1.00934  -0.94524  -0.91877
 Alpha  occ. eigenvalues --   -0.73838  -0.67563  -0.61910  -0.60170  -0.58563
 Alpha  occ. eigenvalues --   -0.55663  -0.51849  -0.48586  -0.43810  -0.41279
 Alpha  occ. eigenvalues --   -0.39684  -0.38954  -0.36387  -0.36074  -0.34648
 Alpha  occ. eigenvalues --   -0.32899  -0.32799  -0.30756  -0.30449  -0.30407
 Alpha  occ. eigenvalues --   -0.29261  -0.28773  -0.27535  -0.26777  -0.25522
 Alpha  occ. eigenvalues --   -0.24970  -0.23118  -0.22354  -0.21029  -0.19918
 Alpha  occ. eigenvalues --   -0.17905  -0.15412   0.04533
 Alpha virt. eigenvalues --    0.06445   0.07821   0.08129   0.08963   0.09371
 Alpha virt. eigenvalues --    0.10073   0.10410   0.10927   0.11166   0.12059
 Alpha virt. eigenvalues --    0.13407   0.13448   0.13853   0.14206   0.14876

  Beta  occ. eigenvalues --  -19.06621 -19.01929 -19.01342 -10.20191 -10.11562
  Beta  occ. eigenvalues --  -10.11385 -10.10433 -10.09667 -10.07145 -10.06273
  Beta  occ. eigenvalues --  -10.05999 -10.05905  -1.00849  -0.94515  -0.91797
  Beta  occ. eigenvalues --   -0.73808  -0.67522  -0.61873  -0.60129  -0.58515
  Beta  occ. eigenvalues --   -0.55552  -0.51766  -0.48506  -0.43756  -0.41239
  Beta  occ. eigenvalues --   -0.39647  -0.38897  -0.36345  -0.36036  -0.34593
  Beta  occ. eigenvalues --   -0.32863  -0.32740  -0.30719  -0.30417  -0.30367
  Beta  occ. eigenvalues --   -0.29220  -0.28737  -0.27483  -0.26722  -0.25481
  Beta  occ. eigenvalues --   -0.24935  -0.23086  -0.22246  -0.21001  -0.19894
  Beta  occ. eigenvalues --   -0.17842  -0.15399
  Beta virt. eigenvalues --    0.06960   0.07867   0.08383   0.08875   0.09497
  Beta virt. eigenvalues --    0.09733   0.10668   0.10686   0.11218   0.11529
  Beta virt. eigenvalues --    0.12629   0.13736   0.13751   0.14249   0.14535

 Mulliken charges and spin densities:
               1          2
     1  C    1.586776  -2.202341
     2  C   -1.057748   0.769721
     3  C   -0.376231   0.455613
     4  C   -0.110407  -0.213344
     5  O   -0.142104   0.007536
     6  C    0.258433  -0.572598
     7  C   -0.624787   1.019833
     8  C    0.288687  -0.858207
     9  C    1.171472  -1.758193
    10  C    0.320872  -0.519226
    11  O   -0.238276   0.030474
    12  O   -0.163239   0.083697
    13  H   -0.242218   0.395637
    14  H   -0.518614   0.667959
    15  H   -0.106140   0.245247
    16  H   -0.183649   0.361835
    17  H    0.054041   0.127599
    18  H    0.041125   0.149348
    19  H   -0.146608   0.323985
    20  H    0.015639   0.146366
    21  H    0.229302  -0.024788
    22  H    0.029221   0.141488
    23  H    0.177862  -0.043700
    24  H   -0.170772   0.348783
    25  H   -0.179675   0.379689
    26  H   -0.140579   0.322904
    27  H   -0.276761   0.422220
    28  H   -0.495622   0.792463
 Sum of Mulliken charges =  -1.00000   1.00000

 Dipole moment (field-independent basis, Debye):
    X=             -0.4978    Y=              1.5840    Z=              2.2407  Tot=              2.7888
 Quadrupole moment (field-independent basis, Debye-Ang):
   XX=           -138.4164   YY=           -117.3949   ZZ=           -108.6410
   XY=             -7.0183   XZ=              1.0293   YZ=             -3.4631

 Summary of Natural Population Analysis:

                                       Natural Population
                Natural  -----------------------------------------------
    Atom  No    Charge         Core      Valence    Rydberg      Total
 -----------------------------------------------------------------------
      C    1   -0.28754      0.99966     2.28208    0.00580     3.28754
      C    2   -0.19173      0.99959     2.18097    0.01116     3.19173
      C    3   -0.04821      0.99952     2.03279    0.01590     3.04821
      C    4    0.00092      0.99957     1.98672    0.01279     2.99908
      O    5   -0.30699      0.99991     3.29937    0.00771     4.30699
      C    6   -0.00496      0.99956     1.99448    0.01093     3.00496
      C    7   -0.08150      0.99948     2.06592    0.01609     3.08150
      C    8   -0.28303      0.99963     2.27584    0.00756     3.28303
      C    9   -0.28646      0.99963     2.27843    0.00840     3.28646
      C   10    0.42121      0.99963     1.55147    0.02769     2.57879
      O   11   -0.31065      0.99987     3.30470    0.00609     4.31065
      O   12   -0.34435      0.99987     3.33654    0.00793     4.34435
      H   13    0.09734      0.00000     0.40125    0.00141     0.40266
      H   14    0.10289      0.00000     0.39583    0.00129     0.39711
      H   15    0.09634      0.00000     0.40247    0.00119     0.40366
      H   16    0.10280      0.00000     0.39587    0.00132     0.39720
      H   17    0.10083      0.00000     0.39727    0.00191     0.39917
      H   18    0.08764      0.00000     0.41030    0.00207     0.41236
      H   19    0.08408      0.00000     0.41444    0.00148     0.41592
      H   20    0.08365      0.00000     0.41497    0.00139     0.41635
      H   21    0.09483      0.00000     0.40367    0.00149     0.40517
      H   22    0.10649      0.00000     0.39255    0.00097     0.39351
      H   23    0.10328      0.00000     0.39554    0.00118     0.39672
      H   24    0.10312      0.00000     0.39600    0.00088     0.39688
      H   25    0.10745      0.00000     0.39074    0.00181     0.39255
      H   26    0.10622      0.00000     0.39244    0.00134     0.39378
      H   27    0.10261      0.00000     0.39597    0.00142     0.39739
      H   28    0.24376      0.00000     0.24153    0.01471     0.25624
 =======================================================================
   * Total *   -0.00000     11.99592    34.83018    0.17390    47.00000

 Normal termination of Gaussian 16 at Wed Dec  9 18:34:24 2020.
