 Gaussian 16, Revision A.03,

 -----------------------------------------------------------
 # opt freq B3LYP/6-31G(d) empiricaldispersion=gd3bj scf=xqc
 -----------------------------------------------------------

 -------------------------------
 CID_105682340_JID_9501_neutraal
 -------------------------------
 Symbolic Z-matrix:
 Charge =  0 Multiplicity = 1

 SCF Done:  E(RB3LYP) =  -864.688710204     A.U. after   15 cycles
 SCF Done:  E(RB3LYP) =  -864.657774081     A.U. after   13 cycles
 SCF Done:  E(RB3LYP) =  -864.692745841     A.U. after   12 cycles
 SCF Done:  E(RB3LYP) =  -864.693799757     A.U. after   12 cycles
 SCF Done:  E(RB3LYP) =  -864.693693101     A.U. after   12 cycles
 SCF Done:  E(RB3LYP) =  -864.693427698     A.U. after   12 cycles
 SCF Done:  E(RB3LYP) =  -864.693202690     A.U. after   12 cycles
 SCF Done:  E(RB3LYP) =  -864.693960414     A.U. after    9 cycles
 SCF Done:  E(RB3LYP) =  -864.694338505     A.U. after   12 cycles
 SCF Done:  E(RB3LYP) =  -864.694383190     A.U. after   11 cycles
 SCF Done:  E(RB3LYP) =  -864.694460677     A.U. after    9 cycles
 SCF Done:  E(RB3LYP) =  -864.694462350     A.U. after    8 cycles
 SCF Done:  E(RB3LYP) =  -864.694463119     A.U. after    8 cycles
 SCF Done:  E(RB3LYP) =  -864.694463148     A.U. after    7 cycles
 SCF Done:  E(RB3LYP) =  -864.694463143     A.U. after    7 cycles
 Optimization completed.
    -- Stationary point found.
 Normal termination of Gaussian 16 at Sun Dec 13 16:26:17 2020.

 --------------------------------------------------------------------
 #N Geom=AllCheck Guess=TCheck SCRF=Check GenChk RB3LYP/6-31G(d) Freq
 --------------------------------------------------------------------

 Structure from the checkpoint file:  "JID_9501.chk"
 -------------------------------
 CID_105682340_JID_9501_neutraal
 -------------------------------
 Charge =  0 Multiplicity = 1

 SCF Done:  E(RB3LYP) =  -864.694463143     A.U. after    1 cycles

  Exact polarizability: 147.061   3.648 178.046 -12.918   1.386 163.507
 Approx polarizability: 204.465  -2.076 269.874 -24.590  -2.014 257.624

                      1                      2                      3
                      A                      A                      A
 Frequencies --     18.8400                36.7391                50.7074
 Red. masses --      4.7602                 5.1794                 4.4926
 Frc consts  --      0.0010                 0.0041                 0.0068
 IR Inten    --      0.0526                 0.2395                 0.5134

                      4                      5                      6
                      A                      A                      A
 Frequencies --     58.0122                70.6248                82.5390
 Red. masses --     11.9016                 3.7014                 4.5619
 Frc consts  --      0.0236                 0.0109                 0.0183
 IR Inten    --      1.0007                 0.0686                 0.3232

                      7                      8                      9
                      A                      A                      A
 Frequencies --     86.4653               105.9410               137.1327
 Red. masses --      3.9233                 2.8238                 4.2898
 Frc consts  --      0.0173                 0.0187                 0.0475
 IR Inten    --      0.3663                 0.9973                 0.9084

                     10                     11                     12
                      A                      A                      A
 Frequencies --    139.8497               184.9831               211.2632
 Red. masses --      3.7036                 3.9858                 2.9159
 Frc consts  --      0.0427                 0.0804                 0.0767
 IR Inten    --      0.7882                 0.5546                 0.7182

                     13                     14                     15
                      A                      A                      A
 Frequencies --    233.1210               245.1231               265.9946
 Red. masses --      2.6905                 2.8689                 4.0297
 Frc consts  --      0.0861                 0.1016                 0.1680
 IR Inten    --      0.4624                 4.8206                 2.3944

                     16                     17                     18
                      A                      A                      A
 Frequencies --    321.1707               325.0368               333.3989
 Red. masses --      4.2072                 3.1644                 2.7153
 Frc consts  --      0.2557                 0.1970                 0.1778
 IR Inten    --      0.4238                 1.1558                 1.3692

                     19                     20                     21
                      A                      A                      A
 Frequencies --    357.3692               378.8620               418.8855
 Red. masses --      2.5141                 3.7837                 3.0022
 Frc consts  --      0.1892                 0.3200                 0.3104
 IR Inten    --      1.7663                 3.3519                 0.2462

                     22                     23                     24
                      A                      A                      A
 Frequencies --    466.2223               498.8459               508.6038
 Red. masses --      2.6149                 2.5830                 3.5316
 Frc consts  --      0.3349                 0.3787                 0.5383
 IR Inten    --      4.6321                 5.2984                 3.2679

                     25                     26                     27
                      A                      A                      A
 Frequencies --    541.3849               609.9788               629.7708
 Red. masses --      2.9396                 1.7149                 3.4192
 Frc consts  --      0.5076                 0.3759                 0.7990
 IR Inten    --      5.1286                67.0400                35.7419

                     28                     29                     30
                      A                      A                      A
 Frequencies --    635.8959               662.6082               716.2898
 Red. masses --      4.8784                 2.6860                 1.8428
 Frc consts  --      1.1623                 0.6948                 0.5571
 IR Inten    --      7.0455                33.8990                49.8231

                     31                     32                     33
                      A                      A                      A
 Frequencies --    741.4659               745.6999               777.9746
 Red. masses --      1.5510                 3.7931                 1.4924
 Frc consts  --      0.5024                 1.2427                 0.5322
 IR Inten    --    106.3261                10.3428                 2.5516

                     34                     35                     36
                      A                      A                      A
 Frequencies --    784.2686               793.9496               822.0868
 Red. masses --      1.7286                 1.4643                 1.3267
 Frc consts  --      0.6264                 0.5438                 0.5283
 IR Inten    --     23.6336                 6.7184                 4.9468

                     37                     38                     39
                      A                      A                      A
 Frequencies --    846.4094               857.6739               866.7833
 Red. masses --      1.8778                 3.2713                 1.2509
 Frc consts  --      0.7926                 1.4178                 0.5537
 IR Inten    --      9.9968                 4.0696                 1.8720

                     40                     41                     42
                      A                      A                      A
 Frequencies --    879.4105               906.9178               914.7120
 Red. masses --      3.1611                 2.0507                 2.2006
 Frc consts  --      1.4404                 0.9938                 1.0848
 IR Inten    --     15.0394                 1.8802                 8.0687

                     43                     44                     45
                      A                      A                      A
 Frequencies --    936.5046               944.6769               970.4658
 Red. masses --      2.0606                 2.1982                 2.1893
 Frc consts  --      1.0648                 1.1558                 1.2148
 IR Inten    --     12.9068                 6.6581                13.0089

                     46                     47                     48
                      A                      A                      A
 Frequencies --    978.0440              1000.9457              1008.5882
 Red. masses --      1.3851                 1.2591                 1.8354
 Frc consts  --      0.7806                 0.7432                 1.1000
 IR Inten    --      0.4508                 1.0588                17.0133

                     49                     50                     51
                      A                      A                      A
 Frequencies --   1023.0862              1047.2544              1050.1279
 Red. masses --      6.1813                 2.1299                 1.6872
 Frc consts  --      3.8120                 1.3763                 1.0962
 IR Inten    --      1.9355                 7.8792                 8.0235

                     52                     53                     54
                      A                      A                      A
 Frequencies --   1062.9322              1071.7647              1091.0550
 Red. masses --      2.2883                 1.5924                 1.3808
 Frc consts  --      1.5232                 1.0777                 0.9685
 IR Inten    --      2.2724                 8.9342                 4.7828

                     55                     56                     57
                      A                      A                      A
 Frequencies --   1113.9524              1123.0563              1126.5486
 Red. masses --      1.7980                 2.5828                 2.7456
 Frc consts  --      1.3145                 1.9193                 2.0530
 IR Inten    --      6.0714                24.4079                65.7621

                     58                     59                     60
                      A                      A                      A
 Frequencies --   1146.5507              1150.5438              1168.0020
 Red. masses --      3.4033                 1.1291                 2.6564
 Frc consts  --      2.6359                 0.8806                 2.1352
 IR Inten    --     62.1560                 2.5971               106.0081

                     61                     62                     63
                      A                      A                      A
 Frequencies --   1195.2429              1196.9659              1202.0634
 Red. masses --      1.1150                 2.3630                 1.8415
 Frc consts  --      0.9385                 1.9947                 1.5677
 IR Inten    --      0.9411                87.4013                27.6068

                     64                     65                     66
                      A                      A                      A
 Frequencies --   1213.0054              1214.3686              1221.0318
 Red. masses --      1.5951                 2.0872                 1.1397
 Frc consts  --      1.3828                 1.8135                 1.0011
 IR Inten    --      9.9670                25.5372                 0.4269

                     67                     68                     69
                      A                      A                      A
 Frequencies --   1233.3612              1248.6306              1279.2163
 Red. masses --      1.9639                 1.2400                 1.3104
 Frc consts  --      1.7602                 1.1390                 1.2634
 IR Inten    --      1.7685                 1.0567                 8.1996

                     70                     71                     72
                      A                      A                      A
 Frequencies --   1299.3327              1316.6996              1336.2205
 Red. masses --      1.6772                 1.2273                 1.2516
 Frc consts  --      1.6683                 1.2537                 1.3167
 IR Inten    --      4.6506                 7.8042                 1.3859

                     73                     74                     75
                      A                      A                      A
 Frequencies --   1350.9422              1366.6682              1375.7972
 Red. masses --      1.2889                 2.8601                 2.0388
 Frc consts  --      1.3859                 3.1475                 2.2737
 IR Inten    --     19.4288                 5.9383                16.6811

                     76                     77                     78
                      A                      A                      A
 Frequencies --   1385.5494              1387.3068              1405.8240
 Red. masses --      1.2755                 1.3812                 1.3197
 Frc consts  --      1.4427                 1.5662                 1.5367
 IR Inten    --      4.0464                 2.8487                 4.7054

                     79                     80                     81
                      A                      A                      A
 Frequencies --   1415.0593              1433.2834              1457.5481
 Red. masses --      1.4974                 1.3872                 1.4096
 Frc consts  --      1.7665                 1.6790                 1.7644
 IR Inten    --      6.7624                18.7586                10.5409

                     82                     83                     84
                      A                      A                      A
 Frequencies --   1493.5120              1495.5964              1504.1545
 Red. masses --      1.0895                 1.0977                 2.1928
 Frc consts  --      1.4319                 1.4466                 2.9230
 IR Inten    --      2.0066                 1.6349                 4.2758

                     85                     86                     87
                      A                      A                      A
 Frequencies --   1513.6763              1523.6826              1536.9245
 Red. masses --      1.1858                 1.1251                 1.3075
 Frc consts  --      1.6007                 1.5389                 1.8197
 IR Inten    --     32.7039                 1.2338                 1.4294

                     88                     89                     90
                      A                      A                      A
 Frequencies --   1545.4977              1550.5142              1555.7789
 Red. masses --      2.1417                 1.1019                 1.0823
 Frc consts  --      3.0141                 1.5608                 1.5434
 IR Inten    --     10.4470                 6.4340                12.0685

                     91                     92                     93
                      A                      A                      A
 Frequencies --   1645.6673              1663.2973              1862.3151
 Red. masses --      5.4482                 5.4728                 9.8212
 Frc consts  --      8.6934                 8.9206                20.0688
 IR Inten    --      0.8951                 1.5668               321.5309

                     94                     95                     96
                      A                      A                      A
 Frequencies --   2998.8921              3030.5555              3043.1210
 Red. masses --      1.0681                 1.0633                 1.0645
 Frc consts  --      5.6594                 5.7538                 5.8080
 IR Inten    --     29.0687                46.8167                 2.6712

                     97                     98                     99
                      A                      A                      A
 Frequencies --   3050.5759              3060.2233              3083.1905
 Red. masses --      1.0652                 1.0830                 1.1054
 Frc consts  --      5.8405                 5.9756                 6.1909
 IR Inten    --     29.4339                57.8863                42.0258

                    100                    101                    102
                      A                      A                      A
 Frequencies --   3090.5420              3091.9300              3098.9613
 Red. masses --      1.0991                 1.0852                 1.1037
 Frc consts  --      6.1854                 6.1125                 6.2451
 IR Inten    --     27.2711                12.4888                47.6510

                    103                    104                    105
                      A                      A                      A
 Frequencies --   3144.1384              3151.6324              3161.6806
 Red. masses --      1.0532                 1.0556                 1.0896
 Frc consts  --      6.1341                 6.1777                 6.4172
 IR Inten    --     14.1993                13.8300                14.9336

                    106                    107                    108
                      A                      A                      A
 Frequencies --   3180.9391              3187.2421              3198.2141
 Red. masses --      1.0861                 1.0875                 1.0918
 Frc consts  --      6.4751                 6.5090                 6.5795
 IR Inten    --      5.3241                 1.4622                22.1484

                    109                    110                    111
                      A                      A                      A
 Frequencies --   3210.3876              3216.7355              3218.9994
 Red. masses --      1.0947                 1.0956                 1.1175
 Frc consts  --      6.6474                 6.6795                 6.8226
 IR Inten    --     25.5240                 9.0083                 4.4753

                    112                    113                    114
                      A                      A                      A
 Frequencies --   3234.7045              3529.8126              3683.3640
 Red. masses --      1.1157                 1.0729                 1.0641
 Frc consts  --      6.8783                 7.8758                 8.5061
 IR Inten    --     24.2876                 2.8279                59.9287

 - Thermochemistry -
 -------------------
 Temperature   298.150 Kelvin.  Pressure   1.00000 Atm.
 Atom     1 has atomic number  6 and mass  12.00000

 Molecular mass:   263.15214 amu.
 Principal axes and moments of inertia in atomic units:
                           1         2         3
     Eigenvalues --  4412.023435972.319956805.48588
           X            0.99916   0.03148  -0.02613
           Y           -0.02963   0.99720   0.06863
           Z            0.02821  -0.06780   0.99730
 This molecule is an asymmetric top.
 Rotational symmetry number  1.
 Warning -- assumption of classical behavior for rotation
           may cause significant error
 Rotational temperatures (Kelvin)      0.01963     0.01450     0.01273
 Rotational constants (GHZ):           0.40905     0.30218     0.26519
 Zero-point vibrational energy     905415.7 (Joules/Mol)
                                  216.39955 (Kcal/Mol)
 Warning -- explicit consideration of  26 degrees of freedom as
           vibrations may cause significant error
 Vibrational temperatures:     27.11    52.86    72.96    83.47   101.61
          (Kelvin)            118.76   124.40   152.43   197.30   201.21
                              266.15   303.96   335.41   352.68   382.71
                              462.09   467.66   479.69   514.17   545.10
                              602.68   670.79   717.73   731.77   778.93
                              877.62   906.10   914.91   953.35  1030.58
                             1066.80  1072.90  1119.33  1128.39  1142.32
                             1182.80  1217.79  1234.00  1247.11  1265.28
                             1304.85  1316.07  1347.42  1359.18  1396.28
                             1407.19  1440.14  1451.13  1471.99  1506.77
                             1510.90  1529.32  1542.03  1569.78  1602.73
                             1615.83  1620.85  1649.63  1655.38  1680.49
                             1719.69  1722.17  1729.50  1745.24  1747.21
                             1756.79  1774.53  1796.50  1840.51  1869.45
                             1894.44  1922.52  1943.70  1966.33  1979.47
                             1993.50  1996.03  2022.67  2035.95  2062.18
                             2097.09  2148.83  2151.83  2164.14  2177.84
                             2192.24  2211.29  2223.63  2230.84  2238.42
                             2367.75  2393.11  2679.46  4314.74  4360.29
                             4378.37  4389.10  4402.98  4436.02  4446.60
                             4448.60  4458.71  4523.71  4534.50  4548.95
                             4576.66  4585.73  4601.52  4619.03  4628.16
                             4631.42  4654.02  5078.61  5299.54

 Zero-point correction=                           0.344855 (Hartree/Particle)
 Thermal correction to Energy=                    0.363477
 Thermal correction to Enthalpy=                  0.364422
 Thermal correction to Gibbs Free Energy=         0.296172
 Sum of electronic and zero-point Energies=           -864.349609
 Sum of electronic and thermal Energies=              -864.330986
 Sum of electronic and thermal Enthalpies=            -864.330042
 Sum of electronic and thermal Free Energies=         -864.398291

                     E (Thermal)             CV                S
                      KCal/Mol        Cal/Mol-Kelvin    Cal/Mol-Kelvin
 Total                  228.086             70.515            143.644
 Electronic               0.000              0.000              0.000
 Translational            0.889              2.981             42.602
 Rotational               0.889              2.981             33.550
 Vibrational            226.308             64.553             67.492
 Vibration     1          0.593              1.986              6.753
 Vibration     2          0.594              1.982              5.428
 Vibration     3          0.595              1.977              4.790
 Vibration     4          0.596              1.974              4.524
 Vibration     5          0.598              1.968              4.136
 Vibration     6          0.600              1.961              3.830
 Vibration     7          0.601              1.959              3.738
 Vibration     8          0.605              1.944              3.342
 Vibration     9          0.614              1.916              2.843
 Vibration    10          0.615              1.913              2.806
 Vibration    11          0.631              1.860              2.278
 Vibration    12          0.643              1.824              2.033
 Vibration    13          0.654              1.790              1.855
 Vibration    14          0.660              1.771              1.765
 Vibration    15          0.672              1.735              1.622
 Vibration    16          0.707              1.633              1.304
 Vibration    17          0.709              1.625              1.285
 Vibration    18          0.715              1.609              1.244
 Vibration    19          0.733              1.560              1.134
 Vibration    20          0.749              1.515              1.044
 Vibration    21          0.782              1.429              0.896
 Vibration    22          0.824              1.325              0.748
 Vibration    23          0.854              1.253              0.661
 Vibration    24          0.864              1.231              0.637
 Vibration    25          0.896              1.159              0.562
 Vibration    26          0.969              1.011              0.433

 Optimization completed.
    -- Stationary point found.
 Normal termination of Gaussian 16 at Sun Dec 13 16:50:05 2020.

 ----------------------------------------------------------------------
 # B3LYP/6-311++G(d,p) empiricaldispersion=gd3bj scf=xqc pop=npa geom=c
 heck
 ----------------------------------------------------------------------

 ---------------------------------------
 CID_105682340_JID_9501_Energie_neutraal
 ---------------------------------------
 Structure from the checkpoint file:  "JID_9501.chk"
 Charge =  0 Multiplicity = 1

 SCF Done:  E(RB3LYP) =  -864.947253194     A.U. after   16 cycles
 Normal termination of Gaussian 16 at Sun Dec 13 17:01:31 2020.

 ----------------------------------------------------------------------
 # B3LYP/6-311++G(d,p) empiricaldispersion=gd3bj scf=xqc pop=npa geom=c
 heck
 ----------------------------------------------------------------------

 -------------------------------------
 CID_105682340_JID_9501_Energie_kation
 -------------------------------------
 Structure from the checkpoint file:  "JID_9501.chk"
 Charge =  1 Multiplicity = 2

 SCF Done:  E(UB3LYP) =  -864.641958705     A.U. after   28 cycles
 Normal termination of Gaussian 16 at Sun Dec 13 17:30:01 2020.
 Gaussian 16:  ES64L-G16RevA.03 25-Dec-2016

 ----------------------------------------------------------------------
 # B3LYP/6-311++G(d,p) empiricaldispersion=gd3bj scf=xqc pop=npa geom=c
 heck
 ----------------------------------------------------------------------

 ------------------------------------
 CID_105682340_JID_9501_Energie_anion
 ------------------------------------
 Structure from the checkpoint file:  "JID_9501.chk"
 Charge = -1 Multiplicity = 2

                         Standard orientation:
 ---------------------------------------------------------------------
 Center     Atomic      Atomic             Coordinates (Angstroms)
 Number     Number       Type             X           Y           Z
 ---------------------------------------------------------------------
      1          6           0       -2.201478    0.484680    2.153301
      2          6           0       -2.103809    1.973869    1.944041
      3          6           0       -2.869774    1.127682    0.957748
      4          6           0       -2.320232    0.963914   -0.442124
      5          8           0       -2.993584   -0.022719   -1.215190
      6          6           0       -2.813635   -1.376851   -0.812162
      7          6           0       -1.811270   -2.115547   -1.703600
      8          6           0       -0.382388   -1.574162   -1.650678
      9          7           0        0.198688   -1.763908   -0.321744
     10          6           0        1.566045   -1.258377   -0.182726
     11          6           0        1.726394    0.248888   -0.393239
     12          6           0        2.151724    0.725103   -1.637837
     13          6           0        2.222323    2.094808   -1.893667
     14          6           0        1.877227    3.009235   -0.898869
     15          6           0        1.462648    2.544644    0.350533
     16          6           0        1.382389    1.175042    0.600985
     17          6           0        2.131114   -1.682331    1.165117
     18          8           0        3.256060   -2.075361    1.361222
     19          8           0        1.222953   -1.539108    2.169118
     20          1           0       -2.831717    0.114843    2.957215
     21          1           0       -1.301184   -0.104223    1.994602
     22          1           0       -2.663163    2.630723    2.603634
     23          1           0       -1.148171    2.375711    1.618126
     24          1           0       -3.954857    1.202513    0.992581
     25          1           0       -2.458996    1.893056   -1.005616
     26          1           0       -1.237947    0.775109   -0.394116
     27          1           0       -2.530745   -1.436007    0.245891
     28          1           0       -3.792233   -1.863794   -0.900915
     29          1           0       -1.804989   -3.174949   -1.415870
     30          1           0       -2.168404   -2.054281   -2.738498
     31          1           0        0.240679   -2.131696   -2.362102
     32          1           0       -0.376683   -0.524415   -1.985752
     33          1           0       -0.385327   -1.325381    0.385534
     34          1           0        2.183470   -1.769916   -0.927405
     35          1           0        2.427690    0.015004   -2.413298
     36          1           0        2.549642    2.445743   -2.868229
     37          1           0        1.935754    4.076290   -1.092940
     38          1           0        1.205558    3.250469    1.135642
     39          1           0        1.056607    0.825671    1.575377
     40          1           0        1.677095   -1.819205    2.986195
 ---------------------------------------------------------------------

 SCF Done:  E(UB3LYP) =  -864.937477313     A.U. after   33 cycles
 SCF Done:  E(UB3LYP) =  -864.937477313     a.u. after    1 cycles

 The electronic state is 2-A.
 Alpha  occ. eigenvalues --  -19.07209 -19.03046 -19.01868 -14.21018 -10.20782
 Alpha  occ. eigenvalues --  -10.12548 -10.12400 -10.12283 -10.10215 -10.08719
 Alpha  occ. eigenvalues --  -10.08157 -10.08088 -10.08052 -10.07971 -10.07862
 Alpha  occ. eigenvalues --  -10.07776 -10.07716 -10.07382 -10.07268  -1.01267
 Alpha  occ. eigenvalues --   -0.94121  -0.92470  -0.82642  -0.77028  -0.75952
 Alpha  occ. eigenvalues --   -0.69857  -0.66520  -0.65108  -0.62913  -0.60050
 Alpha  occ. eigenvalues --   -0.56138  -0.53163  -0.51242  -0.50873  -0.49940
 Alpha  occ. eigenvalues --   -0.48887  -0.47690  -0.42963  -0.42123  -0.41717
 Alpha  occ. eigenvalues --   -0.39809  -0.39349  -0.38743  -0.37779  -0.37435
 Alpha  occ. eigenvalues --   -0.36746  -0.35899  -0.35254  -0.34129  -0.33026
 Alpha  occ. eigenvalues --   -0.32287  -0.31641  -0.30661  -0.29749  -0.28960
 Alpha  occ. eigenvalues --   -0.28533  -0.27593  -0.26839  -0.26188  -0.25904
 Alpha  occ. eigenvalues --   -0.25567  -0.24715  -0.23496  -0.22952  -0.20733
 Alpha  occ. eigenvalues --   -0.19611  -0.19205  -0.16861  -0.15979  -0.15792
 Alpha  occ. eigenvalues --   -0.13830   0.04216
 Alpha virt. eigenvalues --    0.06235   0.06369   0.06620   0.07031   0.07776
 Alpha virt. eigenvalues --    0.07885   0.08080   0.09022   0.09444   0.09638
 Alpha virt. eigenvalues --    0.10018   0.10222   0.10785   0.11449   0.12011

  Beta  occ. eigenvalues --  -19.07158 -19.03045 -19.01832 -14.20988 -10.20747
  Beta  occ. eigenvalues --  -10.12541 -10.12398 -10.12282 -10.10210 -10.08715
  Beta  occ. eigenvalues --  -10.08079 -10.08043 -10.08038 -10.07965 -10.07850
  Beta  occ. eigenvalues --  -10.07755 -10.07713 -10.07353 -10.07153  -1.01176
  Beta  occ. eigenvalues --   -0.94117  -0.92387  -0.82574  -0.77012  -0.75824
  Beta  occ. eigenvalues --   -0.69799  -0.66397  -0.65014  -0.62838  -0.59983
  Beta  occ. eigenvalues --   -0.56106  -0.53034  -0.51197  -0.50783  -0.49913
  Beta  occ. eigenvalues --   -0.48752  -0.47672  -0.42896  -0.42098  -0.41649
  Beta  occ. eigenvalues --   -0.39768  -0.39318  -0.38703  -0.37743  -0.37326
  Beta  occ. eigenvalues --   -0.36687  -0.35851  -0.35169  -0.34087  -0.32982
  Beta  occ. eigenvalues --   -0.32247  -0.31554  -0.30601  -0.29704  -0.28940
  Beta  occ. eigenvalues --   -0.28470  -0.27564  -0.26711  -0.26073  -0.25858
  Beta  occ. eigenvalues --   -0.25510  -0.24657  -0.23483  -0.22833  -0.20720
  Beta  occ. eigenvalues --   -0.19592  -0.19095  -0.16803  -0.15780  -0.15365
  Beta  occ. eigenvalues --   -0.13700
  Beta virt. eigenvalues --    0.06199   0.06773   0.06897   0.07400   0.07752
  Beta virt. eigenvalues --    0.07968   0.08197   0.08375   0.09315   0.09585
  Beta virt. eigenvalues --    0.09910   0.10211   0.10525   0.10882   0.11645

 Mulliken charges and spin densities:
               1          2
     1  C    0.057359  -0.494124
     2  C   -0.265860  -0.102859
     3  C    0.083725   0.293598
     4  C   -0.778276  -0.320756
     5  O    0.014034   0.005361
     6  C   -0.471194   0.150657
     7  C    0.215647  -0.726244
     8  C   -0.398204   0.217558
     9  N    0.137584   0.018716
    10  C    1.539034  -2.279770
    11  C    0.060487   0.975224
    12  C   -0.879862   1.025791
    13  C    0.068424  -0.393154
    14  C    0.238258  -0.597743
    15  C   -0.093453  -0.354496
    16  C   -0.160068  -0.148216
    17  C   -0.653946   0.445384
    18  O   -0.256588   0.013354
    19  O   -0.206499   0.050662
    20  H   -0.308866   0.490106
    21  H    0.272366  -0.118925
    22  H   -0.203975   0.378485
    23  H    0.091754   0.011768
    24  H    0.102933   0.119524
    25  H    0.049725   0.096381
    26  H    0.967161  -0.446228
    27  H    0.091646   0.065805
    28  H   -0.053866   0.218877
    29  H    0.055625   0.088718
    30  H    0.147075   0.028921
    31  H   -0.027539   0.171971
    32  H    0.130061  -0.005575
    33  H    0.159349   0.007738
    34  H    0.225381   0.003644
    35  H   -0.061394   0.208588
    36  H   -0.118300   0.282198
    37  H   -0.171491   0.313390
    38  H   -0.291668   0.472273
    39  H    0.037758   0.189063
    40  H   -0.344336   0.644333
 Sum of Mulliken charges =  -1.00000   1.00000

 Dipole moment (field-independent basis, Debye):
    X=             -2.5249    Y=             -0.5605    Z=             -4.6673  Tot=              5.3360
 Quadrupole moment (field-independent basis, Debye-Ang):
   XX=           -174.8076   YY=           -162.5438   ZZ=           -164.8479
   XY=              3.8513   XZ=             -3.0773   YZ=              6.8493

 Summary of Natural Population Analysis:

                                       Natural Population
                Natural  -----------------------------------------------
    Atom  No    Charge         Core      Valence    Rydberg      Total
 -----------------------------------------------------------------------
      C    1   -0.20072      0.99962     2.19139    0.00972     3.20072
      C    2   -0.19839      0.99961     2.18993    0.00885     3.19839
      C    3   -0.13150      0.99959     2.12146    0.01045     3.13150
      C    4   -0.01336      0.99953     2.00101    0.01282     3.01336
      O    5   -0.30524      0.99989     3.29636    0.00899     4.30524
      C    6   -0.01395      0.99956     2.00171    0.01267     3.01395
      C    7   -0.20186      0.99962     2.19417    0.00807     3.20186
      C    8   -0.09186      0.99962     2.08194    0.01030     3.09186
      N    9   -0.33814      0.99973     2.82713    0.01128     3.83814
      C   10   -0.05598      0.99950     2.04214    0.01434     3.05598
      C   11   -0.01083      0.99948     2.00091    0.01044     3.01083
      C   12   -0.11154      0.99954     2.09700    0.01501     3.11154
      C   13   -0.06579      0.99957     2.05955    0.00667     3.06579
      C   14   -0.09983      0.99958     2.08510    0.01515     3.09983
      C   15   -0.10160      0.99956     2.09220    0.00983     3.10160
      C   16   -0.10344      0.99951     2.09389    0.01004     3.10344
      C   17    0.42077      0.99969     1.55345    0.02609     2.57923
      O   18   -0.30109      0.99987     3.29538    0.00585     4.30109
      O   19   -0.35138      0.99988     3.34378    0.00773     4.35138
      H   20    0.10352      0.00000     0.39526    0.00122     0.39648
      H   21    0.10327      0.00000     0.39443    0.00230     0.39673
      H   22    0.10209      0.00000     0.39699    0.00092     0.39791
      H   23    0.10567      0.00000     0.39287    0.00145     0.39433
      H   24    0.10330      0.00000     0.39556    0.00114     0.39670
      H   25    0.09148      0.00000     0.40729    0.00123     0.40852
      H   26    0.08617      0.00000     0.41117    0.00265     0.41383
      H   27    0.08522      0.00000     0.41327    0.00152     0.41478
      H   28    0.08684      0.00000     0.41212    0.00105     0.41316
      H   29    0.10026      0.00000     0.39856    0.00117     0.39974
      H   30    0.09884      0.00000     0.40014    0.00101     0.40116
      H   31    0.09227      0.00000     0.40668    0.00105     0.40773
      H   32    0.08742      0.00000     0.41033    0.00225     0.41258
      H   33    0.17712      0.00000     0.31739    0.00549     0.32288
      H   34    0.10739      0.00000     0.39100    0.00161     0.39261
      H   35    0.09766      0.00000     0.40105    0.00129     0.40234
      H   36    0.09432      0.00000     0.40450    0.00119     0.40568
      H   37    0.09849      0.00000     0.40062    0.00089     0.40151
      H   38    0.10043      0.00000     0.39852    0.00106     0.39957
      H   39    0.10834      0.00000     0.38887    0.00279     0.39166
      H   40    0.24604      0.00000     0.24195    0.01200     0.25396
 =======================================================================
   * Total *    0.00040     18.99294    51.74708    0.25958    70.99960

 Normal termination of Gaussian 16 at Sun Dec 13 18:04:08 2020.
