 Gaussian 16, Revision A.03,

 -----------------------------------------------------------
 # opt freq B3LYP/6-31G(d) empiricaldispersion=gd3bj scf=xqc
 -----------------------------------------------------------

 ------------------------------
 CID_68642999_JID_6222_neutraal
 ------------------------------
 Symbolic Z-matrix:
 Charge =  0 Multiplicity = 1

 SCF Done:  E(RB3LYP) =  -656.479236129     A.U. after   15 cycles
 SCF Done:  E(RB3LYP) =  -656.483371297     A.U. after   13 cycles
 SCF Done:  E(RB3LYP) =  -656.484903236     A.U. after   13 cycles
 SCF Done:  E(RB3LYP) =  -656.485709667     A.U. after   13 cycles
 SCF Done:  E(RB3LYP) =  -656.486177607     A.U. after   13 cycles
 SCF Done:  E(RB3LYP) =  -656.485817584     A.U. after   13 cycles
 SCF Done:  E(RB3LYP) =  -656.486460204     A.U. after   13 cycles
 SCF Done:  E(RB3LYP) =  -656.486475857     A.U. after   10 cycles
 SCF Done:  E(RB3LYP) =  -656.486480016     A.U. after   10 cycles
 SCF Done:  E(RB3LYP) =  -656.486480574     A.U. after    8 cycles
 SCF Done:  E(RB3LYP) =  -656.486480889     A.U. after    8 cycles
 SCF Done:  E(RB3LYP) =  -656.486481097     A.U. after    8 cycles
 SCF Done:  E(RB3LYP) =  -656.486481287     A.U. after    8 cycles
 SCF Done:  E(RB3LYP) =  -656.486481396     A.U. after    8 cycles
 SCF Done:  E(RB3LYP) =  -656.486481444     A.U. after    7 cycles
 Optimization completed.
    -- Stationary point found.
 Normal termination of Gaussian 16 at Thu Dec 10 21:20:23 2020.

 --------------------------------------------------------------------
 #N Geom=AllCheck Guess=TCheck SCRF=Check GenChk RB3LYP/6-31G(d) Freq
 --------------------------------------------------------------------

 Structure from the checkpoint file:  "JID_6222.chk"
 ------------------------------
 CID_68642999_JID_6222_neutraal
 ------------------------------
 Charge =  0 Multiplicity = 1

 SCF Done:  E(RB3LYP) =  -656.486481444     A.U. after    1 cycles

  Exact polarizability: 214.412  10.485 147.422 -20.647   3.487 106.708
 Approx polarizability: 305.342  17.656 239.932 -43.728   6.949 180.337

                      1                      2                      3
                      A                      A                      A
 Frequencies --     29.8105                59.8563                77.2669
 Red. masses --      4.4725                 3.9608                 3.3112
 Frc consts  --      0.0023                 0.0084                 0.0116
 IR Inten    --      0.4149                 1.8697                 0.2279

                      4                      5                      6
                      A                      A                      A
 Frequencies --     95.9219               109.8709               135.2893
 Red. masses --      2.8698                 4.7839                 3.0179
 Frc consts  --      0.0156                 0.0340                 0.0325
 IR Inten    --      0.3450                 1.9443                 0.2946

                      7                      8                      9
                      A                      A                      A
 Frequencies --    157.5023               222.1308               235.8453
 Red. masses --      2.8608                 3.5641                 3.2876
 Frc consts  --      0.0418                 0.1036                 0.1077
 IR Inten    --      1.4109                 0.3308                 1.1215

                     10                     11                     12
                      A                      A                      A
 Frequencies --    248.7276               316.9743               324.2341
 Red. masses --      3.0103                 3.6447                 2.1705
 Frc consts  --      0.1097                 0.2158                 0.1344
 IR Inten    --      1.5170                 0.0102                 1.1707

                     13                     14                     15
                      A                      A                      A
 Frequencies --    365.5307               413.1887               428.9992
 Red. masses --      2.8967                 2.8894                 3.2380
 Frc consts  --      0.2280                 0.2906                 0.3511
 IR Inten    --      1.0628                 0.9149                 2.1297

                     16                     17                     18
                      A                      A                      A
 Frequencies --    448.4275               477.4356               497.1663
 Red. masses --      3.5472                 3.0538                 2.7332
 Frc consts  --      0.4203                 0.4101                 0.3980
 IR Inten    --      6.7872                 1.0470                 5.0295

                     19                     20                     21
                      A                      A                      A
 Frequencies --    539.5911               589.4887               617.6220
 Red. masses --      4.1054                 3.3742                 3.4527
 Frc consts  --      0.7043                 0.6908                 0.7760
 IR Inten    --      1.6901                 6.5056                 2.8413

                     22                     23                     24
                      A                      A                      A
 Frequencies --    644.1761               667.0493               670.9343
 Red. masses --      3.5841                 3.2639                 2.1696
 Frc consts  --      0.8763                 0.8557                 0.5754
 IR Inten    --      2.2060                 0.6253                 1.0165

                     25                     26                     27
                      A                      A                      A
 Frequencies --    713.8541               750.5777               769.0833
 Red. masses --      2.9133                 3.6397                 1.6714
 Frc consts  --      0.8747                 1.2081                 0.5825
 IR Inten    --      1.4738                 1.8841                31.1179

                     28                     29                     30
                      A                      A                      A
 Frequencies --    790.4134               841.4256               858.3306
 Red. masses --      2.1511                 1.5570                 3.0779
 Frc consts  --      0.7918                 0.6495                 1.3360
 IR Inten    --     17.1885                11.1066                 2.4052

                     31                     32                     33
                      A                      A                      A
 Frequencies --    876.2420               888.2582               899.7266
 Red. masses --      1.4802                 2.1983                 1.8515
 Frc consts  --      0.6696                 1.0219                 0.8831
 IR Inten    --      5.6145                 1.5316                 0.5262

                     34                     35                     36
                      A                      A                      A
 Frequencies --    928.9143               942.3978               948.3381
 Red. masses --      1.3838                 1.4379                 1.4760
 Frc consts  --      0.7035                 0.7524                 0.7821
 IR Inten    --     45.0233                 4.1457                 1.8739

                     37                     38                     39
                      A                      A                      A
 Frequencies --    959.9368               978.8221               982.0008
 Red. masses --      2.2003                 2.5666                 1.2701
 Frc consts  --      1.1946                 1.4488                 0.7216
 IR Inten    --     15.7801                 6.9343                 0.1341

                     40                     41                     42
                      A                      A                      A
 Frequencies --   1030.1162              1056.0187              1078.8112
 Red. masses --      1.1335                 1.6503                 1.8002
 Frc consts  --      0.7087                 1.0843                 1.2344
 IR Inten    --     17.8560                 2.4031                 0.7337

                     43                     44                     45
                      A                      A                      A
 Frequencies --   1081.4423              1100.7114              1129.1828
 Red. masses --      2.2324                 1.9313                 2.0110
 Frc consts  --      1.5383                 1.3786                 1.5107
 IR Inten    --      0.6589                11.6354                 9.6268

                     46                     47                     48
                      A                      A                      A
 Frequencies --   1146.2535              1159.9664              1166.0017
 Red. masses --      1.8154                 1.8057                 1.5604
 Frc consts  --      1.4054                 1.4315                 1.2500
 IR Inten    --      2.4669                44.5212                 5.2709

                     49                     50                     51
                      A                      A                      A
 Frequencies --   1198.2134              1229.8171              1238.8647
 Red. masses --      1.1011                 2.8022                 2.4493
 Frc consts  --      0.9314                 2.4971                 2.2148
 IR Inten    --      0.0187                 0.8437                11.9628

                     52                     53                     54
                      A                      A                      A
 Frequencies --   1251.9129              1279.3463              1297.7907
 Red. masses --      1.6831                 1.3249                 1.2821
 Frc consts  --      1.5542                 1.2776                 1.2723
 IR Inten    --     17.0535                 0.3449                 7.7014

                     55                     56                     57
                      A                      A                      A
 Frequencies --   1304.0183              1339.8834              1359.7543
 Red. masses --      1.5355                 3.2267                 1.4704
 Frc consts  --      1.5384                 3.4130                 1.6018
 IR Inten    --      8.1790                 1.4750                 7.7794

                     58                     59                     60
                      A                      A                      A
 Frequencies --   1362.5044              1370.8997              1382.2746
 Red. masses --      1.5827                 1.3882                 1.4228
 Frc consts  --      1.7311                 1.5371                 1.6017
 IR Inten    --      1.2942                 4.5684                 3.3342

                     61                     62                     63
                      A                      A                      A
 Frequencies --   1399.7205              1412.0510              1465.5144
 Red. masses --      1.5542                 1.5448                 1.3815
 Frc consts  --      1.7940                 1.8147                 1.7482
 IR Inten    --      3.9217                20.3231                 1.7926

                     64                     65                     66
                      A                      A                      A
 Frequencies --   1490.1603              1493.3865              1511.5581
 Red. masses --      1.0870                 1.7588                 1.0968
 Frc consts  --      1.4222                 2.3111                 1.4765
 IR Inten    --      6.2194                 1.1314                 7.5836

                     67                     68                     69
                      A                      A                      A
 Frequencies --   1519.7674              1532.0977              1541.7259
 Red. masses --      1.0861                 1.0955                 2.5913
 Frc consts  --      1.4780                 1.5151                 3.6290
 IR Inten    --      6.0789                 1.6509                 9.5212

                     70                     71                     72
                      A                      A                      A
 Frequencies --   1625.5613              1656.7668              1703.8197
 Red. masses --      5.8474                 5.4022                 8.8558
 Frc consts  --      9.1037                 8.7366                15.1469
 IR Inten    --      0.2939                 2.0774                32.1640

                     73                     74                     75
                      A                      A                      A
 Frequencies --   1714.6517              1792.8026              3008.0480
 Red. masses --      4.4713                11.6548                 1.0693
 Frc consts  --      7.7452                22.0709                 5.7005
 IR Inten    --      9.1360               100.0041                26.7919

                     76                     77                     78
                      A                      A                      A
 Frequencies --   3029.5554              3036.1763              3040.4650
 Red. masses --      1.0694                 1.0656                 1.0599
 Frc consts  --      5.7831                 5.7875                 5.7730
 IR Inten    --      2.8700                26.6685                32.3728

                     79                     80                     81
                      A                      A                      A
 Frequencies --   3080.5965              3082.9121              3088.1316
 Red. masses --      1.0954                 1.0940                 1.1049
 Frc consts  --      6.1250                 6.1263                 6.2084
 IR Inten    --     35.6822                54.4822                49.4979

                     82                     83                     84
                      A                      A                      A
 Frequencies --   3116.2775              3122.0577              3150.4277
 Red. masses --      1.0950                 1.0867                 1.0833
 Frc consts  --      6.2654                 6.2409                 6.3350
 IR Inten    --     21.0098                20.1424                 9.3168

                     85                     86                     87
                      A                      A                      A
 Frequencies --   3173.1405              3178.7524              3183.2892
 Red. masses --      1.0652                 1.0857                 1.0886
 Frc consts  --      6.3189                 6.4634                 6.4996
 IR Inten    --      5.9970                10.5437                 1.5656

                     88                     89                     90
                      A                      A                      A
 Frequencies --   3196.9397              3211.3621              3253.2462
 Red. masses --      1.0919                 1.0977                 1.1155
 Frc consts  --      6.5752                 6.6695                 6.9560
 IR Inten    --     27.5992                34.5072                12.2191

 - Thermochemistry -
 -------------------
 Temperature   298.150 Kelvin.  Pressure   1.00000 Atm.
 Atom     1 has atomic number  6 and mass  12.00000

 Molecular mass:   212.12012 amu.
 Principal axes and moments of inertia in atomic units:
                           1         2         3
     Eigenvalues --  1609.140175088.955335493.05346
           X            0.99997   0.00067  -0.00704
           Y           -0.00053   0.99982   0.01890
           Z            0.00706  -0.01890   0.99980
 This molecule is an asymmetric top.
 Rotational symmetry number  1.
 Warning -- assumption of classical behavior for rotation
           may cause significant error
 Rotational temperatures (Kelvin)      0.05383     0.01702     0.01577
 Rotational constants (GHZ):           1.12156     0.35464     0.32855
 Zero-point vibrational energy     711037.0 (Joules/Mol)
                                  169.94193 (Kcal/Mol)
 Warning -- explicit consideration of  21 degrees of freedom as
           vibrations may cause significant error
 Vibrational temperatures:     42.89    86.12   111.17   138.01   158.08
          (Kelvin)            194.65   226.61   319.60   339.33   357.86
                              456.06   466.50   525.92   594.49   617.23
                              645.19   686.92   715.31   776.35   848.14
                              888.62   926.83   959.74   965.32  1027.08
                             1079.91  1106.54  1137.23  1210.62  1234.95
                             1260.72  1278.01  1294.51  1336.50  1355.90
                             1364.45  1381.13  1408.31  1412.88  1482.11
                             1519.38  1552.17  1555.95  1583.68  1624.64
                             1649.20  1668.93  1677.62  1723.96  1769.43
                             1782.45  1801.22  1840.69  1867.23  1876.19
                             1927.79  1956.38  1960.34  1972.42  1988.78
                             2013.89  2031.63  2108.55  2144.01  2148.65
                             2174.80  2186.61  2204.35  2218.20  2338.82
                             2383.72  2451.42  2467.00  2579.44  4327.91
                             4358.85  4368.38  4374.55  4432.29  4435.62
                             4443.13  4483.63  4491.94  4532.76  4565.44
                             4573.52  4580.04  4599.68  4620.43  4680.70

 Zero-point correction=                           0.270820 (Hartree/Particle)
 Thermal correction to Energy=                    0.285102
 Thermal correction to Enthalpy=                  0.286047
 Thermal correction to Gibbs Free Energy=         0.229106
 Sum of electronic and zero-point Energies=           -656.215662
 Sum of electronic and thermal Energies=              -656.201379
 Sum of electronic and thermal Enthalpies=            -656.200435
 Sum of electronic and thermal Free Energies=         -656.257376

                     E (Thermal)             CV                S
                      KCal/Mol        Cal/Mol-Kelvin    Cal/Mol-Kelvin
 Total                  178.905             55.835            119.843
 Electronic               0.000              0.000              0.000
 Translational            0.889              2.981             41.960
 Rotational               0.889              2.981             32.175
 Vibrational            177.127             49.873             45.708
 Vibration     1          0.594              1.984              5.842
 Vibration     2          0.597              1.973              4.462
 Vibration     3          0.599              1.964              3.959
 Vibration     4          0.603              1.952              3.536
 Vibration     5          0.606              1.941              3.271
 Vibration     6          0.613              1.918              2.869
 Vibration     7          0.621              1.894              2.580
 Vibration     8          0.648              1.807              1.942
 Vibration     9          0.655              1.786              1.834
 Vibration    10          0.662              1.765              1.740
 Vibration    11          0.704              1.641              1.326
 Vibration    12          0.709              1.627              1.289
 Vibration    13          0.739              1.543              1.098
 Vibration    14          0.777              1.442              0.915
 Vibration    15          0.790              1.407              0.862
 Vibration    16          0.807              1.364              0.801
 Vibration    17          0.834              1.300              0.717
 Vibration    18          0.853              1.256              0.665
 Vibration    19          0.895              1.163              0.566
 Vibration    20          0.947              1.054              0.468
 Vibration    21          0.977              0.995              0.420

 Optimization completed.
    -- Stationary point found.
 Normal termination of Gaussian 16 at Thu Dec 10 21:33:06 2020.

 ----------------------------------------------------------------------
 # B3LYP/6-311++G(d,p) empiricaldispersion=gd3bj scf=xqc pop=npa geom=c
 heck
 ----------------------------------------------------------------------

 --------------------------------------
 CID_68642999_JID_6222_Energie_neutraal
 --------------------------------------
 Structure from the checkpoint file:  "JID_6222.chk"
 Charge =  0 Multiplicity = 1

 SCF Done:  E(RB3LYP) =  -656.659802227     A.U. after   16 cycles
 Normal termination of Gaussian 16 at Thu Dec 10 21:39:26 2020.

 ----------------------------------------------------------------------
 # B3LYP/6-311++G(d,p) empiricaldispersion=gd3bj scf=xqc pop=npa geom=c
 heck
 ----------------------------------------------------------------------

 ------------------------------------
 CID_68642999_JID_6222_Energie_kation
 ------------------------------------
 Structure from the checkpoint file:  "JID_6222.chk"
 Charge =  1 Multiplicity = 2

 SCF Done:  E(UB3LYP) =  -656.376270678     A.U. after   27 cycles
 Normal termination of Gaussian 16 at Thu Dec 10 21:54:26 2020.
 Gaussian 16:  ES64L-G16RevA.03 25-Dec-2016

 ----------------------------------------------------------------------
 # B3LYP/6-311++G(d,p) empiricaldispersion=gd3bj scf=xqc pop=npa geom=c
 heck
 ----------------------------------------------------------------------

 -----------------------------------
 CID_68642999_JID_6222_Energie_anion
 -----------------------------------
 Structure from the checkpoint file:  "JID_6222.chk"
 Charge = -1 Multiplicity = 2

                         Standard orientation:
 ---------------------------------------------------------------------
 Center     Atomic      Atomic             Coordinates (Angstroms)
 Number     Number       Type             X           Y           Z
 ---------------------------------------------------------------------
      1          6           0        0.061741    1.894204   -1.631198
      2          6           0       -0.833769    1.856589   -0.638793
      3          6           0       -1.733492    0.740836   -0.284703
      4          6           0       -3.028543    1.087029    0.129451
      5          6           0       -3.995115    0.125494    0.409732
      6          6           0       -3.674620   -1.224404    0.280948
      7          6           0       -2.386278   -1.587440   -0.103446
      8          6           0       -1.394546   -0.630963   -0.361955
      9          6           0       -0.050222   -1.156961   -0.694471
     10          6           0        1.127737   -0.889484   -0.106190
     11          6           0        2.414642   -1.534913   -0.577928
     12          6           0        3.537313   -0.503050   -0.766935
     13          6           0        3.770612    0.269582    0.534773
     14          6           0        2.489538    0.986938    0.987054
     15          6           0        1.257011    0.091579    1.024006
     16          8           0        0.420419    0.196601    1.904021
     17          1           0        0.251393    1.041535   -2.274837
     18          1           0        0.631820    2.796652   -1.833042
     19          1           0       -0.990026    2.762119   -0.052815
     20          1           0       -3.281836    2.141093    0.210264
     21          1           0       -4.990860    0.429626    0.719177
     22          1           0       -4.415794   -1.990859    0.488236
     23          1           0       -2.124522   -2.639833   -0.178124
     24          1           0       -0.039071   -1.897449   -1.496842
     25          1           0        2.748437   -2.267666    0.173326
     26          1           0        2.233930   -2.094437   -1.502787
     27          1           0        4.457174   -1.009116   -1.083036
     28          1           0        3.261685    0.196219   -1.568113
     29          1           0        4.095319   -0.431008    1.316576
     30          1           0        4.578712    1.000357    0.413338
     31          1           0        2.596692    1.457014    1.968952
     32          1           0        2.251530    1.782733    0.265482
 ---------------------------------------------------------------------

 SCF Done:  E(UB3LYP) =  -656.666420178     A.U. after   31 cycles

 The electronic state is 2-A.
 Alpha  occ. eigenvalues --  -18.93359 -10.07772 -10.05498 -10.05222 -10.04346
 Alpha  occ. eigenvalues --  -10.03772 -10.03519 -10.03448 -10.03416 -10.03388
 Alpha  occ. eigenvalues --  -10.03225 -10.03123 -10.02975 -10.02419 -10.01083
 Alpha  occ. eigenvalues --  -10.00865  -0.87022  -0.72118  -0.70036  -0.65172
 Alpha  occ. eigenvalues --   -0.64225  -0.61163  -0.59179  -0.58584  -0.52981
 Alpha  occ. eigenvalues --   -0.48477  -0.46749  -0.46084  -0.44859  -0.41866
 Alpha  occ. eigenvalues --   -0.37698  -0.35830  -0.34294  -0.33534  -0.32339
 Alpha  occ. eigenvalues --   -0.31312  -0.30922  -0.29884  -0.29035  -0.28584
 Alpha  occ. eigenvalues --   -0.27366  -0.26416  -0.25782  -0.25211  -0.23850
 Alpha  occ. eigenvalues --   -0.22577  -0.22367  -0.22087  -0.20666  -0.20270
 Alpha  occ. eigenvalues --   -0.19781  -0.18532  -0.15569  -0.13533  -0.10563
 Alpha  occ. eigenvalues --   -0.08548  -0.07515   0.04808
 Alpha virt. eigenvalues --    0.07740   0.08918   0.09251   0.09813   0.10030
 Alpha virt. eigenvalues --    0.10251   0.10664   0.11549   0.12002   0.12314
 Alpha virt. eigenvalues --    0.12611   0.12777   0.13619   0.14228   0.14608

  Beta  occ. eigenvalues --  -18.93071 -10.07545 -10.05494 -10.05216 -10.04349
  Beta  occ. eigenvalues --  -10.03748 -10.03553 -10.03432 -10.03339 -10.03327
  Beta  occ. eigenvalues --  -10.03122 -10.03002 -10.02951 -10.02311 -10.00928
  Beta  occ. eigenvalues --  -10.00586  -0.86463  -0.71883  -0.69884  -0.64923
  Beta  occ. eigenvalues --   -0.63883  -0.61009  -0.58986  -0.58284  -0.52645
  Beta  occ. eigenvalues --   -0.48208  -0.46634  -0.45832  -0.44480  -0.41616
  Beta  occ. eigenvalues --   -0.37552  -0.35655  -0.34157  -0.33364  -0.32164
  Beta  occ. eigenvalues --   -0.31098  -0.30765  -0.29736  -0.28887  -0.28410
  Beta  occ. eigenvalues --   -0.27031  -0.26131  -0.25526  -0.24951  -0.23746
  Beta  occ. eigenvalues --   -0.22321  -0.22132  -0.21875  -0.20478  -0.20141
  Beta  occ. eigenvalues --   -0.19037  -0.18008  -0.14927  -0.12385  -0.10054
  Beta  occ. eigenvalues --   -0.07977  -0.06708
  Beta virt. eigenvalues --    0.07691   0.08878   0.09140   0.09674   0.09891
  Beta virt. eigenvalues --    0.10221   0.10493   0.11236   0.11519   0.12008
  Beta virt. eigenvalues --    0.12438   0.12665   0.13192   0.13514   0.14257

 Mulliken charges and spin densities:
               1          2
     1  C   -0.900803   0.061116
     2  C    0.435695   0.070086
     3  C    0.048547   0.091047
     4  C    0.053029  -0.040046
     5  C   -0.297982   0.099310
     6  C   -0.353384   0.032544
     7  C   -0.300235   0.023699
     8  C    0.476594  -0.071253
     9  C   -0.815484   0.168052
    10  C    0.889602   0.205004
    11  C   -0.406454   0.011647
    12  C   -0.246410   0.004113
    13  C   -0.487124  -0.028557
    14  C   -0.088549   0.000182
    15  C   -0.645731   0.108865
    16  O   -0.268131   0.103431
    17  H    0.139360   0.011167
    18  H    0.082056   0.002405
    19  H    0.140304   0.002025
    20  H    0.108994   0.007740
    21  H    0.111871  -0.008379
    22  H    0.109902  -0.004406
    23  H    0.077789   0.043777
    24  H    0.147828  -0.012469
    25  H    0.118049   0.036518
    26  H    0.116778   0.010166
    27  H    0.081974   0.058110
    28  H    0.120750  -0.004813
    29  H    0.106782   0.003103
    30  H    0.139794  -0.002730
    31  H    0.154201   0.009271
    32  H    0.150387   0.009275
 Sum of Mulliken charges =  -1.00000   1.00000

 Dipole moment (field-independent basis, Debye):
    X=              2.5063    Y=              0.4322    Z=             -1.8464  Tot=              3.1429
 Quadrupole moment (field-independent basis, Debye-Ang):
   XX=           -125.8964   YY=           -108.2107   ZZ=           -117.0085
   XY=              0.9469   XZ=             -2.3092   YZ=              1.1489

 Summary of Natural Population Analysis:

                                       Natural Population
                Natural  -----------------------------------------------
    Atom  No    Charge         Core      Valence    Rydberg      Total
 -----------------------------------------------------------------------
      C    1   -0.17336      0.99958     2.16748    0.00630     3.17336
      C    2   -0.08400      0.99956     2.07464    0.00980     3.08400
      C    3   -0.00745      0.99945     1.99555    0.01245     3.00745
      C    4   -0.10182      0.99953     2.09444    0.00785     3.10182
      C    5   -0.09360      0.99957     2.08472    0.00931     3.09360
      C    6   -0.10329      0.99957     2.09459    0.00913     3.10329
      C    7   -0.09012      0.99952     2.08257    0.00802     3.09012
      C    8    0.00417      0.99948     1.98443    0.01193     2.99583
      C    9   -0.02975      0.99946     2.01909    0.01120     3.02975
      C   10   -0.03541      0.99943     2.02303    0.01295     3.03541
      C   11   -0.19053      0.99961     2.18229    0.00863     3.19053
      C   12   -0.18398      0.99963     2.17835    0.00599     3.18398
      C   13   -0.18495      0.99964     2.17941    0.00590     3.18495
      C   14   -0.23131      0.99960     2.22440    0.00731     3.23131
      C   15    0.30550      0.99960     1.67205    0.02285     2.69450
      O   16   -0.26525      0.99988     3.25820    0.00717     4.26525
      H   17    0.09394      0.00000     0.40505    0.00101     0.40606
      H   18    0.08283      0.00000     0.41596    0.00121     0.41717
      H   19    0.08921      0.00000     0.40931    0.00149     0.41079
      H   20    0.09064      0.00000     0.40797    0.00139     0.40936
      H   21    0.08888      0.00000     0.41007    0.00105     0.41112
      H   22    0.08962      0.00000     0.40935    0.00103     0.41038
      H   23    0.09320      0.00000     0.40543    0.00137     0.40680
      H   24    0.08509      0.00000     0.41362    0.00129     0.41491
      H   25    0.09127      0.00000     0.40686    0.00187     0.40873
      H   26    0.09283      0.00000     0.40498    0.00219     0.40717
      H   27    0.08829      0.00000     0.40973    0.00198     0.41171
      H   28    0.09364      0.00000     0.40531    0.00104     0.40636
      H   29    0.08848      0.00000     0.40972    0.00180     0.41152
      H   30    0.08979      0.00000     0.40893    0.00127     0.41021
      H   31    0.09941      0.00000     0.39866    0.00193     0.40059
      H   32    0.10801      0.00000     0.39088    0.00111     0.39199
 =======================================================================
   * Total *   -0.00000     15.99310    40.82707    0.17983    57.00000

 Normal termination of Gaussian 16 at Thu Dec 10 22:11:43 2020.
