 Gaussian 16, Revision A.03,

 -----------------------------------------------------------
 # opt freq B3LYP/6-31G(d) empiricaldispersion=gd3bj scf=xqc
 -----------------------------------------------------------

 ----------------------------
 CID_331562_JID_2839_neutraal
 ----------------------------
 Symbolic Z-matrix:
 Charge =  0 Multiplicity = 1

 SCF Done:  E(RB3LYP) =  -538.700686247     A.U. after   15 cycles
 SCF Done:  E(RB3LYP) =  -538.710727672     A.U. after   12 cycles
 SCF Done:  E(RB3LYP) =  -538.711524366     A.U. after   12 cycles
 SCF Done:  E(RB3LYP) =  -538.711461839     A.U. after   11 cycles
 SCF Done:  E(RB3LYP) =  -538.711680677     A.U. after   11 cycles
 SCF Done:  E(RB3LYP) =  -538.711703013     A.U. after    9 cycles
 SCF Done:  E(RB3LYP) =  -538.711708155     A.U. after    9 cycles
 SCF Done:  E(RB3LYP) =  -538.711709052     A.U. after    8 cycles
 SCF Done:  E(RB3LYP) =  -538.711709832     A.U. after    9 cycles
 SCF Done:  E(RB3LYP) =  -538.711709931     A.U. after    8 cycles
 SCF Done:  E(RB3LYP) =  -538.711709945     A.U. after    7 cycles
 Optimization completed.
    -- Stationary point found.
 Normal termination of Gaussian 16 at Wed Dec  9 18:04:33 2020.

 --------------------------------------------------------------------
 #N Geom=AllCheck Guess=TCheck SCRF=Check GenChk RB3LYP/6-31G(d) Freq
 --------------------------------------------------------------------

 Structure from the checkpoint file:  "JID_2839.chk"
 ----------------------------
 CID_331562_JID_2839_neutraal
 ----------------------------
 Charge =  0 Multiplicity = 1

 SCF Done:  E(RB3LYP) =  -538.711709945     A.U. after    1 cycles

  Exact polarizability: 133.578  -4.709 100.557   6.471   0.996  75.327
 Approx polarizability: 187.843  -3.537 158.230  19.724   4.500 121.646

                      1                      2                      3
                      A                      A                      A
 Frequencies --     53.8633                97.8352               180.9285
 Red. masses --      3.6680                 6.2828                 3.5605
 Frc consts  --      0.0063                 0.0354                 0.0687
 IR Inten    --      1.2208                 1.4874                 0.7999

                      4                      5                      6
                      A                      A                      A
 Frequencies --    215.0766               278.1648               302.5251
 Red. masses --      3.5514                 1.9855                 2.9659
 Frc consts  --      0.0968                 0.0905                 0.1599
 IR Inten    --      0.9142                 0.9346                 1.4054

                      7                      8                      9
                      A                      A                      A
 Frequencies --    312.9202               362.2949               381.4770
 Red. masses --      2.7201                 3.3423                 4.0218
 Frc consts  --      0.1569                 0.2585                 0.3448
 IR Inten    --      2.6947                 1.0690                 0.1794

                     10                     11                     12
                      A                      A                      A
 Frequencies --    434.5425               454.4068               502.7560
 Red. masses --      3.7618                 3.6574                 3.2597
 Frc consts  --      0.4185                 0.4449                 0.4854
 IR Inten    --      0.5445                 3.1435                 2.7700

                     13                     14                     15
                      A                      A                      A
 Frequencies --    512.2148               584.1327               622.1788
 Red. masses --      1.9653                 3.1123                 4.1166
 Frc consts  --      0.3038                 0.6257                 0.9389
 IR Inten    --      0.2146                 2.9684                 7.4196

                     16                     17                     18
                      A                      A                      A
 Frequencies --    657.9386               739.2605               773.7562
 Red. masses --      2.3829                 2.7546                 2.7411
 Frc consts  --      0.6078                 0.8869                 0.9669
 IR Inten    --      4.6154                 2.1723                12.1484

                     19                     20                     21
                      A                      A                      A
 Frequencies --    802.4407               822.7572               834.0257
 Red. masses --      3.9884                 2.3282                 1.9177
 Frc consts  --      1.5131                 0.9286                 0.7859
 IR Inten    --      0.7515                10.2124                81.3811

                     22                     23                     24
                      A                      A                      A
 Frequencies --    864.2354               884.5493               902.8913
 Red. masses --      2.8003                 1.9354                 1.9048
 Frc consts  --      1.2323                 0.8922                 0.9149
 IR Inten    --      6.1695                22.0542                 1.4208

                     25                     26                     27
                      A                      A                      A
 Frequencies --    969.1994               975.3187               995.5159
 Red. masses --      1.4699                 1.8757                 2.0163
 Frc consts  --      0.8135                 1.0512                 1.1773
 IR Inten    --     16.5757                12.4407                 1.7756

                     28                     29                     30
                      A                      A                      A
 Frequencies --   1017.1072              1041.6669              1052.4884
 Red. masses --      2.0106                 2.2189                 1.6102
 Frc consts  --      1.2255                 1.4186                 1.0509
 IR Inten    --     22.9122                28.2357                19.7705

                     31                     32                     33
                      A                      A                      A
 Frequencies --   1054.2457              1104.4541              1130.2809
 Red. masses --      4.2755                 1.7101                 2.3065
 Frc consts  --      2.7998                 1.2290                 1.7361
 IR Inten    --     70.8654                42.4226                32.5906

                     34                     35                     36
                      A                      A                      A
 Frequencies --   1159.8874              1197.6990              1222.6555
 Red. masses --      3.3664                 1.5956                 1.2220
 Frc consts  --      2.6684                 1.3486                 1.0763
 IR Inten    --    167.9405                 0.8231                 4.9546

                     37                     38                     39
                      A                      A                      A
 Frequencies --   1243.1375              1269.2507              1288.0354
 Red. masses --      1.3813                 1.4811                 2.4546
 Frc consts  --      1.2577                 1.4059                 2.3994
 IR Inten    --     11.0038                 1.6576                87.3516

                     40                     41                     42
                      A                      A                      A
 Frequencies --   1301.1557              1328.3055              1339.3256
 Red. masses --      1.3279                 1.3894                 1.2625
 Frc consts  --      1.3245                 1.4444                 1.3343
 IR Inten    --     28.1741                29.3421                 2.8051

                     43                     44                     45
                      A                      A                      A
 Frequencies --   1351.2236              1365.3481              1381.6603
 Red. masses --      1.2856                 1.3302                 1.3416
 Frc consts  --      1.3829                 1.4610                 1.5090
 IR Inten    --      3.4611                11.7822                 6.4057

                     46                     47                     48
                      A                      A                      A
 Frequencies --   1388.8578              1402.5476              1455.8965
 Red. masses --      1.2980                 1.4483                 1.1889
 Frc consts  --      1.4752                 1.6786                 1.4847
 IR Inten    --      0.9100                20.3354                24.5512

                     49                     50                     51
                      A                      A                      A
 Frequencies --   1509.3059              1511.0792              1522.8773
 Red. masses --      1.0844                 1.0858                 1.1122
 Frc consts  --      1.4554                 1.4607                 1.5197
 IR Inten    --      3.5659                 7.3936                 3.6147

                     52                     53                     54
                      A                      A                      A
 Frequencies --   1702.8961              1738.9384              1864.1044
 Red. masses --      5.7956                 6.3773                12.5200
 Frc consts  --      9.9021                11.3619                25.6327
 IR Inten    --      7.3255                13.4381               345.2181

                     55                     56                     57
                      A                      A                      A
 Frequencies --   3032.4281              3049.0469              3052.7014
 Red. masses --      1.0603                 1.0666                 1.0831
 Frc consts  --      5.7449                 5.8424                 5.9468
 IR Inten    --     27.6768                 9.8149                 2.7779

                     58                     59                     60
                      A                      A                      A
 Frequencies --   3054.8694              3074.0627              3076.8539
 Red. masses --      1.0620                 1.0964                 1.0867
 Frc consts  --      5.8391                 6.1044                 6.0613
 IR Inten    --     36.4330                54.0347                23.3817

                     61                     62                     63
                      A                      A                      A
 Frequencies --   3089.1982              3099.8562              3115.3600
 Red. masses --      1.1018                 1.0978                 1.0964
 Frc consts  --      6.1948                 6.2152                 6.2693
 IR Inten    --     28.8228                12.8720                53.6381

                     64                     65                     66
                      A                      A                      A
 Frequencies --   3152.4683              3169.5266              3256.6835
 Red. masses --      1.0885                 1.0591                 1.1174
 Frc consts  --      6.3733                 6.2686                 6.9828
 IR Inten    --     18.0114                 5.4060                 2.2066

 - Thermochemistry -
 -------------------
 Temperature   298.150 Kelvin.  Pressure   1.00000 Atm.
 Atom     1 has atomic number  6 and mass  12.00000

 Molecular mass:   164.08373 amu.
 Principal axes and moments of inertia in atomic units:
                           1         2         3
     Eigenvalues --   927.288322587.325293255.01684
           X            0.99995  -0.00833  -0.00597
           Y            0.00829   0.99995  -0.00585
           Z            0.00602   0.00580   0.99997
 This molecule is an asymmetric top.
 Rotational symmetry number  1.
 Warning -- assumption of classical behavior for rotation
           may cause significant error
 Rotational temperatures (Kelvin)      0.09341     0.03348     0.02661
 Rotational constants (GHZ):           1.94626     0.69753     0.55445
 Zero-point vibrational energy     530452.3 (Joules/Mol)
                                  126.78113 (Kcal/Mol)
 Warning -- explicit consideration of  14 degrees of freedom as
           vibrations may cause significant error
 Vibrational temperatures:     77.50   140.76   260.32   309.45   400.22
          (Kelvin)            435.27   450.22   521.26   548.86   625.21
                              653.79   723.35   736.96   840.44   895.18
                              946.63  1063.63  1113.26  1154.53  1183.76
                             1199.98  1243.44  1272.67  1299.06  1394.46
                             1403.27  1432.33  1463.39  1498.73  1514.30
                             1516.82  1589.06  1626.22  1668.82  1723.22
                             1759.13  1788.60  1826.17  1853.20  1872.07
                             1911.14  1926.99  1944.11  1964.43  1987.90
                             1998.26  2017.95  2094.71  2171.55  2174.11
                             2191.08  2450.09  2501.94  2682.03  4362.99
                             4386.90  4392.16  4395.28  4422.89  4426.91
                             4444.67  4460.00  4482.31  4535.70  4560.24
                             4685.64

 Zero-point correction=                           0.202039 (Hartree/Particle)
 Thermal correction to Energy=                    0.211987
 Thermal correction to Enthalpy=                  0.212931
 Thermal correction to Gibbs Free Energy=         0.166643
 Sum of electronic and zero-point Energies=           -538.509671
 Sum of electronic and thermal Energies=              -538.499723
 Sum of electronic and thermal Enthalpies=            -538.498779
 Sum of electronic and thermal Free Energies=         -538.545067

                     E (Thermal)             CV                S
                      KCal/Mol        Cal/Mol-Kelvin    Cal/Mol-Kelvin
 Total                  133.024             40.283             97.422
 Electronic               0.000              0.000              0.000
 Translational            0.889              2.981             41.194
 Rotational               0.889              2.981             30.436
 Vibrational            131.246             34.321             25.793
 Vibration     1          0.596              1.976              4.670
 Vibration     2          0.603              1.951              3.497
 Vibration     3          0.630              1.866              2.319
 Vibration     4          0.645              1.818              2.000
 Vibration     5          0.679              1.714              1.545
 Vibration     6          0.694              1.669              1.403
 Vibration     7          0.701              1.649              1.347
 Vibration     8          0.736              1.550              1.112
 Vibration     9          0.751              1.510              1.033
 Vibration    10          0.795              1.395              0.844
 Vibration    11          0.813              1.351              0.783
 Vibration    12          0.858              1.244              0.651
 Vibration    13          0.867              1.223              0.628
 Vibration    14          0.941              1.066              0.478

 Optimization completed.
    -- Stationary point found.
 Normal termination of Gaussian 16 at Wed Dec  9 18:10:07 2020.

 ----------------------------------------------------------------------
 # B3LYP/6-311++G(d,p) empiricaldispersion=gd3bj scf=xqc pop=npa geom=c
 heck
 ----------------------------------------------------------------------

 ------------------------------------
 CID_331562_JID_2839_Energie_neutraal
 ------------------------------------
 Structure from the checkpoint file:  "JID_2839.chk"
 Charge =  0 Multiplicity = 1

 SCF Done:  E(RB3LYP) =  -538.861420206     A.U. after   16 cycles
 Normal termination of Gaussian 16 at Wed Dec  9 18:13:47 2020.

 ----------------------------------------------------------------------
 # B3LYP/6-311++G(d,p) empiricaldispersion=gd3bj scf=xqc pop=npa geom=c
 heck
 ----------------------------------------------------------------------

 ----------------------------------
 CID_331562_JID_2839_Energie_kation
 ----------------------------------
 Structure from the checkpoint file:  "JID_2839.chk"
 Charge =  1 Multiplicity = 2

 SCF Done:  E(UB3LYP) =  -538.540169506     A.U. after   26 cycles
 Normal termination of Gaussian 16 at Wed Dec  9 18:20:34 2020.
 Gaussian 16:  ES64L-G16RevA.03 25-Dec-2016

 ----------------------------------------------------------------------
 # B3LYP/6-311++G(d,p) empiricaldispersion=gd3bj scf=xqc pop=npa geom=c
 heck
 ----------------------------------------------------------------------

 ---------------------------------
 CID_331562_JID_2839_Energie_anion
 ---------------------------------
 Structure from the checkpoint file:  "JID_2839.chk"
 Charge = -1 Multiplicity = 2

                         Standard orientation:
 ---------------------------------------------------------------------
 Center     Atomic      Atomic             Coordinates (Angstroms)
 Number     Number       Type             X           Y           Z
 ---------------------------------------------------------------------
      1          6           0       -2.201197    1.938393    0.199948
      2          6           0       -1.522450    0.791237    0.225757
      3          6           0       -0.086879    0.525396    0.591837
      4          6           0        0.902741    1.256921   -0.384955
      5          6           0        2.433361    1.234126   -0.101590
      6          6           0        3.174715   -0.107971   -0.416915
      7          6           0        2.333615   -1.101791    0.323335
      8          6           0        1.148462   -1.426279   -0.207883
      9          6           0       -0.046977   -1.060304    0.598808
     10          8           0       -1.285247   -1.519062    0.021925
     11          6           0       -2.169718   -0.497692   -0.168010
     12          8           0       -3.283242   -0.674755   -0.595407
     13          1           0       -1.752097    2.886160    0.483463
     14          1           0       -3.241967    1.941456   -0.110711
     15          1           0        0.137379    0.875637    1.606441
     16          1           0        0.713388    0.915923   -1.409925
     17          1           0        0.593564    2.309120   -0.367016
     18          1           0        2.893995    2.039993   -0.688371
     19          1           0        2.602218    1.487774    0.953805
     20          1           0        3.152819   -0.292044   -1.497745
     21          1           0        4.220742   -0.047994   -0.096483
     22          1           0        2.417586   -1.065829    1.413002
     23          1           0        1.010129   -1.378236   -1.287722
     24          1           0        0.006129   -1.433629    1.627131
 ---------------------------------------------------------------------

 SCF Done:  E(UB3LYP) =  -538.863802169     A.U. after   33 cycles
 SCF Done:  E(UB3LYP) =  -538.863802169     a.u. after    1 cycles

 The electronic state is 2-A.
 Alpha  occ. eigenvalues --  -19.01062 -18.94297 -10.12677 -10.11105 -10.07408
 Alpha  occ. eigenvalues --  -10.06790 -10.05914 -10.05701 -10.05605 -10.05343
 Alpha  occ. eigenvalues --  -10.02152 -10.00943  -0.94990  -0.86839  -0.72910
 Alpha  occ. eigenvalues --   -0.67172  -0.65175  -0.61141  -0.54078  -0.53519
 Alpha  occ. eigenvalues --   -0.48526  -0.45807  -0.42895  -0.39996  -0.37214
 Alpha  occ. eigenvalues --   -0.36310  -0.34083  -0.32981  -0.31224  -0.29278
 Alpha  occ. eigenvalues --   -0.29199  -0.28471  -0.26919  -0.25958  -0.24932
 Alpha  occ. eigenvalues --   -0.24865  -0.22997  -0.22142  -0.21385  -0.19698
 Alpha  occ. eigenvalues --   -0.16042  -0.12488  -0.12099  -0.11790   0.04989
 Alpha virt. eigenvalues --    0.07167   0.07875   0.08797   0.09612   0.10200
 Alpha virt. eigenvalues --    0.11426   0.11647   0.12194   0.12786   0.13128
 Alpha virt. eigenvalues --    0.13850   0.14873   0.15088   0.16878   0.17668

  Beta  occ. eigenvalues --  -19.00951 -18.94134 -10.12500 -10.11094 -10.07405
  Beta  occ. eigenvalues --  -10.06773 -10.05928 -10.05667 -10.05536 -10.05326
  Beta  occ. eigenvalues --  -10.02023 -10.00574  -0.94729  -0.86562  -0.72811
  Beta  occ. eigenvalues --   -0.66876  -0.65106  -0.60763  -0.54005  -0.53127
  Beta  occ. eigenvalues --   -0.48157  -0.45622  -0.42651  -0.39792  -0.37023
  Beta  occ. eigenvalues --   -0.36203  -0.33897  -0.32786  -0.31057  -0.29109
  Beta  occ. eigenvalues --   -0.28934  -0.28289  -0.26369  -0.25725  -0.24837
  Beta  occ. eigenvalues --   -0.24690  -0.22814  -0.21973  -0.21193  -0.19576
  Beta  occ. eigenvalues --   -0.15291  -0.11937  -0.11550  -0.10588
  Beta virt. eigenvalues --    0.07395   0.08134   0.09074   0.09756   0.10183
  Beta virt. eigenvalues --    0.10681   0.11480   0.11967   0.12527   0.12759
  Beta virt. eigenvalues --    0.13170   0.13820   0.14983   0.15193   0.16896

 Mulliken charges and spin densities:
               1          2
     1  C   -0.415568   0.203211
     2  C    0.203569   0.350485
     3  C    0.732208  -0.638840
     4  C   -0.519901   0.141179
     5  C    0.031336  -0.354594
     6  C   -0.576676  -0.059143
     7  C    0.549142  -0.278379
     8  C    0.081687   0.210969
     9  C   -0.837722  -0.204150
    10  O   -0.051944   0.028506
    11  C   -0.184589   0.190271
    12  O   -0.433733   0.061005
    13  H   -0.051884   0.128116
    14  H    0.154789  -0.039737
    15  H   -0.340459   0.560430
    16  H    0.158520   0.015733
    17  H    0.199241  -0.081606
    18  H    0.117906   0.005970
    19  H   -0.067637   0.220207
    20  H    0.158817  -0.021429
    21  H   -0.027970   0.166267
    22  H   -0.172388   0.317155
    23  H    0.154078   0.004355
    24  H    0.139178   0.074019
 Sum of Mulliken charges =  -1.00000   1.00000

 Dipole moment (field-independent basis, Debye):
    X=              5.7632    Y=              0.6573    Z=             -2.1639  Tot=              6.1910
 Quadrupole moment (field-independent basis, Debye-Ang):
   XX=           -121.8754   YY=            -96.3459   ZZ=            -89.8129
   XY=              1.4996   XZ=             -8.4016   YZ=             -5.5887

 Summary of Natural Population Analysis:

                                       Natural Population
                Natural  -----------------------------------------------
    Atom  No    Charge         Core      Valence    Rydberg      Total
 -----------------------------------------------------------------------
      C    1   -0.08602      0.99952     2.07823    0.00828     3.08602
      C    2   -0.06882      0.99947     2.05789    0.01146     3.06882
      C    3   -0.12125      0.99955     2.10921    0.01249     3.12125
      C    4   -0.18795      0.99961     2.17879    0.00955     3.18795
      C    5   -0.18465      0.99962     2.17651    0.00852     3.18465
      C    6   -0.20377      0.99961     2.19475    0.00941     3.20377
      C    7   -0.08420      0.99944     2.07279    0.01196     3.08420
      C    8   -0.09476      0.99941     2.08281    0.01254     3.09476
      C    9    0.05484      0.99949     1.92933    0.01634     2.94516
      O   10   -0.27644      0.99986     3.26878    0.00779     4.27644
      C   11    0.41708      0.99960     1.55607    0.02724     2.58292
      O   12   -0.30062      0.99986     3.29509    0.00566     4.30062
      H   13    0.08166      0.00000     0.41745    0.00089     0.41834
      H   14    0.09521      0.00000     0.40376    0.00104     0.40479
      H   15    0.10749      0.00000     0.38858    0.00393     0.39251
      H   16    0.09607      0.00000     0.40304    0.00090     0.40393
      H   17    0.10351      0.00000     0.39548    0.00100     0.39649
      H   18    0.09360      0.00000     0.40553    0.00088     0.40640
      H   19    0.09567      0.00000     0.40265    0.00168     0.40433
      H   20    0.09506      0.00000     0.40385    0.00109     0.40494
      H   21    0.09492      0.00000     0.40410    0.00097     0.40508
      H   22    0.09012      0.00000     0.40855    0.00132     0.40988
      H   23    0.09325      0.00000     0.40566    0.00109     0.40675
      H   24    0.08999      0.00000     0.40856    0.00145     0.41001
 =======================================================================
   * Total *    0.00000     11.99505    31.84746    0.15749    44.00000

 Normal termination of Gaussian 16 at Wed Dec  9 18:28:42 2020.
