 Gaussian 16, Revision A.03,

 -----------------------------------------------------------
 # opt freq B3LYP/6-31G(d) empiricaldispersion=gd3bj scf=xqc
 -----------------------------------------------------------

 ------------------------------
 CID_59224453_JID_6002_neutraal
 ------------------------------
 Symbolic Z-matrix:
 Charge =  0 Multiplicity = 1

 SCF Done:  E(RB3LYP) =  -742.964507731     A.U. after   15 cycles
 SCF Done:  E(RB3LYP) =  -742.966038445     A.U. after   14 cycles
 SCF Done:  E(RB3LYP) =  -742.961060683     A.U. after   14 cycles
 SCF Done:  E(RB3LYP) =  -742.967848881     A.U. after   14 cycles
 SCF Done:  E(RB3LYP) =  -742.968992034     A.U. after   14 cycles
 SCF Done:  E(RB3LYP) =  -742.968600302     A.U. after   13 cycles
 SCF Done:  E(RB3LYP) =  -742.969807982     A.U. after   13 cycles
 SCF Done:  E(RB3LYP) =  -742.970224799     A.U. after   12 cycles
 SCF Done:  E(RB3LYP) =  -742.970265908     A.U. after   11 cycles
 SCF Done:  E(RB3LYP) =  -742.970281815     A.U. after   10 cycles
 SCF Done:  E(RB3LYP) =  -742.970661711     A.U. after   11 cycles
 SCF Done:  E(RB3LYP) =  -742.970670132     A.U. after   10 cycles
 SCF Done:  E(RB3LYP) =  -742.970672647     A.U. after    9 cycles
 SCF Done:  E(RB3LYP) =  -742.970673502     A.U. after    9 cycles
 SCF Done:  E(RB3LYP) =  -742.970673589     A.U. after    7 cycles
 SCF Done:  E(RB3LYP) =  -742.970673607     A.U. after    7 cycles
 Optimization completed.
    -- Stationary point found.
 Normal termination of Gaussian 16 at Thu Dec 10 21:40:00 2020.

 --------------------------------------------------------------------
 #N Geom=AllCheck Guess=TCheck SCRF=Check GenChk RB3LYP/6-31G(d) Freq
 --------------------------------------------------------------------

 Structure from the checkpoint file:  "JID_6002.chk"
 ------------------------------
 CID_59224453_JID_6002_neutraal
 ------------------------------
 Charge =  0 Multiplicity = 1

 SCF Done:  E(RB3LYP) =  -742.970673607     A.U. after    1 cycles

  Exact polarizability: 170.387 -10.294 144.778   6.578   5.199  93.965
 Approx polarizability: 231.964 -10.899 253.187  13.924  20.289 139.799

                      1                      2                      3
                      A                      A                      A
 Frequencies --     29.0778                43.2800                53.0096
 Red. masses --      4.2072                 4.9363                 2.9020
 Frc consts  --      0.0021                 0.0054                 0.0048
 IR Inten    --      0.2654                 1.3220                 0.1012

                      4                      5                      6
                      A                      A                      A
 Frequencies --     62.8001                73.1123                82.9582
 Red. masses --      1.1419                 4.1472                 6.3971
 Frc consts  --      0.0027                 0.0131                 0.0259
 IR Inten    --      0.6380                 1.5437                 0.9269

                      7                      8                      9
                      A                      A                      A
 Frequencies --    103.2511               170.1751               199.0035
 Red. masses --      4.3455                 4.8624                 2.7838
 Frc consts  --      0.0273                 0.0830                 0.0650
 IR Inten    --      3.3316                 4.3331                 2.0820

                     10                     11                     12
                      A                      A                      A
 Frequencies --    219.3449               241.5287               252.7988
 Red. masses --      2.5652                 1.4273                 1.2363
 Frc consts  --      0.0727                 0.0491                 0.0465
 IR Inten    --      1.0238                 0.1403                 0.9873

                     13                     14                     15
                      A                      A                      A
 Frequencies --    266.2153               297.4204               312.0171
 Red. masses --      2.3056                 3.8369                 2.7303
 Frc consts  --      0.0963                 0.2000                 0.1566
 IR Inten    --      0.2256                 2.1714                 2.1342

                     16                     17                     18
                      A                      A                      A
 Frequencies --    347.5276               355.2781               399.8668
 Red. masses --      3.5021                 2.8747                 3.4630
 Frc consts  --      0.2492                 0.2138                 0.3262
 IR Inten    --      5.4025                 1.9081                 2.7546

                     19                     20                     21
                      A                      A                      A
 Frequencies --    421.4105               468.7586               478.5417
 Red. masses --      3.5069                 4.7400                 4.2841
 Frc consts  --      0.3669                 0.6137                 0.5780
 IR Inten    --     15.8183                 8.0449                 5.0700

                     22                     23                     24
                      A                      A                      A
 Frequencies --    530.1223               547.7023               572.5984
 Red. masses --      2.9803                 4.3089                 1.7518
 Frc consts  --      0.4935                 0.7616                 0.3384
 IR Inten    --     14.2111                10.0634                74.7649

                     25                     26                     27
                      A                      A                      A
 Frequencies --    611.5518               648.1650               669.8536
 Red. masses --      2.6073                 5.4469                 7.3566
 Frc consts  --      0.5745                 1.3483                 1.9448
 IR Inten    --     25.7346                 4.0942                 0.5612

                     28                     29                     30
                      A                      A                      A
 Frequencies --    722.4620               735.6017               741.0907
 Red. masses --      3.2492                 3.7392                 5.0260
 Frc consts  --      0.9992                 1.1921                 1.6264
 IR Inten    --     32.1324                 5.0587                23.3324

                     31                     32                     33
                      A                      A                      A
 Frequencies --    802.2322               871.3357               907.1992
 Red. masses --      4.2890                 6.1531                 2.3636
 Frc consts  --      1.6263                 2.7524                 1.1461
 IR Inten    --      5.9670                 1.7403                 3.5135

                     34                     35                     36
                      A                      A                      A
 Frequencies --    927.2128               938.2071               952.8368
 Red. masses --      1.4680                 1.5147                 1.4829
 Frc consts  --      0.7436                 0.7856                 0.7932
 IR Inten    --      3.7514                 3.9179                14.7836

                     37                     38                     39
                      A                      A                      A
 Frequencies --    980.5069               984.5843              1020.8646
 Red. masses --      1.3815                 1.5940                 1.5021
 Frc consts  --      0.7825                 0.9104                 0.9223
 IR Inten    --      0.9978                 1.3995                 2.2550

                     40                     41                     42
                      A                      A                      A
 Frequencies --   1053.0235              1062.6078              1074.3558
 Red. masses --      3.1243                 1.9037                 1.6075
 Frc consts  --      2.0411                 1.2665                 1.0932
 IR Inten    --     66.1440                29.4944                 7.2860

                     43                     44                     45
                      A                      A                      A
 Frequencies --   1104.4855              1135.2911              1196.9746
 Red. masses --      2.5995                 2.7766                 2.1868
 Frc consts  --      1.8683                 2.1086                 1.8460
 IR Inten    --     14.1483                 4.8232                 9.1964

                     46                     47                     48
                      A                      A                      A
 Frequencies --   1211.6646              1260.7470              1265.3102
 Red. masses --      2.7015                 2.2809                 8.3037
 Frc consts  --      2.3368                 2.1361                 7.8328
 IR Inten    --     15.2358                48.0177                11.5188

                     49                     50                     51
                      A                      A                      A
 Frequencies --   1280.4036              1304.7522              1326.4864
 Red. masses --      2.3563                 1.5155                 1.3123
 Frc consts  --      2.2760                 1.5201                 1.3605
 IR Inten    --      7.7459                16.0541                25.5494

                     52                     53                     54
                      A                      A                      A
 Frequencies --   1348.0097              1360.9535              1368.9531
 Red. masses --      1.7499                 2.5501                 1.3227
 Frc consts  --      1.8735                 2.7829                 1.4604
 IR Inten    --     78.2754                63.7500                 3.5928

                     55                     56                     57
                      A                      A                      A
 Frequencies --   1378.8083              1422.1911              1429.0312
 Red. masses --      1.5584                 1.2285                 2.1546
 Frc consts  --      1.7455                 1.4640                 2.5924
 IR Inten    --     18.1990                 6.7251                83.8869

                     58                     59                     60
                      A                      A                      A
 Frequencies --   1440.3166              1445.7466              1486.4436
 Red. masses --      1.2913                 1.2492                 1.3039
 Frc consts  --      1.5783                 1.5384                 1.6974
 IR Inten    --     12.1447                 1.6983                10.6123

                     61                     62                     63
                      A                      A                      A
 Frequencies --   1496.5859              1504.2468              1514.4818
 Red. masses --      1.4193                 1.0447                 1.1268
 Frc consts  --      1.8730                 1.3928                 1.5228
 IR Inten    --     73.3411                 6.3387                15.4913

                     64                     65                     66
                      A                      A                      A
 Frequencies --   1517.2161              1526.4428              1530.2170
 Red. masses --      1.0505                 1.0533                 2.8566
 Frc consts  --      1.4248                 1.4460                 3.9410
 IR Inten    --      4.6498                 1.4747                15.8487

                     67                     68                     69
                      A                      A                      A
 Frequencies --   1534.0931              1543.6246              1592.2204
 Red. masses --      1.0568                 1.0579                 8.5544
 Frc consts  --      1.4654                 1.4852                12.7775
 IR Inten    --     14.2529                15.1943                 1.5241

                     70                     71                     72
                      A                      A                      A
 Frequencies --   1630.5477              1766.0872              1807.2825
 Red. masses --      5.5292                 7.9017                11.2519
 Frc consts  --      8.6613                14.5210                21.6535
 IR Inten    --     41.9954               327.6764               114.1013

                     73                     74                     75
                      A                      A                      A
 Frequencies --   3052.1300              3056.9571              3060.4982
 Red. masses --      1.0380                 1.0658                 1.0360
 Frc consts  --      5.6969                 5.8680                 5.7176
 IR Inten    --     15.4818                35.2509                10.1289

                     76                     77                     78
                      A                      A                      A
 Frequencies --   3061.0007              3065.2305              3116.9182
 Red. masses --      1.0479                 1.0768                 1.1023
 Frc consts  --      5.7847                 5.9606                 6.3094
 IR Inten    --     21.0575                11.0926                24.5190

                     79                     80                     81
                      A                      A                      A
 Frequencies --   3121.0967              3128.0320              3131.6843
 Red. masses --      1.1008                 1.1000                 1.0975
 Frc consts  --      6.3181                 6.3412                 6.3420
 IR Inten    --      7.8236                11.5692                57.5667

                     82                     83                     84
                      A                      A                      A
 Frequencies --   3144.8436              3146.4183              3158.0343
 Red. masses --      1.1032                 1.0958                 1.1024
 Frc consts  --      6.4284                 6.3914                 6.4779
 IR Inten    --     11.2377                 8.8027                19.3526

                     85                     86                     87
                      A                      A                      A
 Frequencies --   3188.1236              3222.1008              3602.8655
 Red. masses --      1.0920                 1.0922                 1.0761
 Frc consts  --      6.5392                 6.6807                 8.2301
 IR Inten    --     16.0272                 1.7962                32.1805

 - Thermochemistry -
 -------------------
 Temperature   298.150 Kelvin.  Pressure   1.00000 Atm.
 Atom     1 has atomic number  6 and mass  12.00000

 Molecular mass:   221.11643 amu.
 Principal axes and moments of inertia in atomic units:
                           1         2         3
     Eigenvalues --  2129.355864952.512026048.21972
           X            0.99966  -0.02475  -0.00849
           Y            0.02452   0.99936  -0.02587
           Z            0.00912   0.02566   0.99963
 This molecule is an asymmetric top.
 Rotational symmetry number  1.
 Warning -- assumption of classical behavior for rotation
           may cause significant error
 Rotational temperatures (Kelvin)      0.04068     0.01749     0.01432
 Rotational constants (GHZ):           0.84755     0.36441     0.29839
 Zero-point vibrational energy     671207.0 (Joules/Mol)
                                  160.42231 (Kcal/Mol)
 Warning -- explicit consideration of  25 degrees of freedom as
           vibrations may cause significant error
 Vibrational temperatures:     41.84    62.27    76.27    90.36   105.19
          (Kelvin)            119.36   148.56   244.84   286.32   315.59
                              347.51   363.72   383.02   427.92   448.92
                              500.01   511.17   575.32   606.32   674.44
                              688.51   762.73   788.02   823.84   879.89
                              932.56   963.77  1039.46  1058.37  1066.26
                             1154.23  1253.66  1305.26  1334.05  1349.87
                             1370.92  1410.73  1416.60  1468.80  1515.07
                             1528.86  1545.76  1589.11  1633.43  1722.18
                             1743.32  1813.93  1820.50  1842.22  1877.25
                             1908.52  1939.49  1958.11  1969.62  1983.80
                             2046.22  2056.06  2072.29  2080.11  2138.66
                             2153.25  2164.28  2179.00  2182.94  2196.21
                             2201.64  2207.22  2220.93  2290.85  2345.99
                             2541.01  2600.28  4391.33  4398.28  4403.37
                             4404.10  4410.18  4484.55  4490.56  4500.54
                             4505.80  4524.73  4526.99  4543.71  4587.00
                             4635.88  5183.72

 Zero-point correction=                           0.255649 (Hartree/Particle)
 Thermal correction to Energy=                    0.271976
 Thermal correction to Enthalpy=                  0.272921
 Thermal correction to Gibbs Free Energy=         0.210403
 Sum of electronic and zero-point Energies=           -742.715024
 Sum of electronic and thermal Energies=              -742.698697
 Sum of electronic and thermal Enthalpies=            -742.697753
 Sum of electronic and thermal Free Energies=         -742.760270

                     E (Thermal)             CV                S
                      KCal/Mol        Cal/Mol-Kelvin    Cal/Mol-Kelvin
 Total                  170.668             59.546            131.579
 Electronic               0.000              0.000              0.000
 Translational            0.889              2.981             42.083
 Rotational               0.889              2.981             32.522
 Vibrational            168.890             53.584             56.973
 Vibration     1          0.593              1.984              5.891
 Vibration     2          0.595              1.980              5.103
 Vibration     3          0.596              1.976              4.702
 Vibration     4          0.597              1.972              4.367
 Vibration     5          0.599              1.967              4.068
 Vibration     6          0.600              1.961              3.820
 Vibration     7          0.605              1.947              3.392
 Vibration     8          0.625              1.879              2.434
 Vibration     9          0.637              1.841              2.142
 Vibration    10          0.647              1.812              1.964
 Vibration    11          0.658              1.777              1.792
 Vibration    12          0.664              1.758              1.711
 Vibration    13          0.672              1.735              1.621
 Vibration    14          0.691              1.679              1.431
 Vibration    15          0.700              1.651              1.352
 Vibration    16          0.725              1.580              1.177
 Vibration    17          0.731              1.564              1.143
 Vibration    18          0.766              1.470              0.963
 Vibration    19          0.784              1.424              0.887
 Vibration    20          0.826              1.319              0.741
 Vibration    21          0.835              1.298              0.714
 Vibration    22          0.885              1.183              0.587
 Vibration    23          0.903              1.145              0.549
 Vibration    24          0.929              1.091              0.499
 Vibration    25          0.971              1.007              0.430

 Optimization completed.
    -- Stationary point found.
 Normal termination of Gaussian 16 at Thu Dec 10 21:50:24 2020.

 ----------------------------------------------------------------------
 # B3LYP/6-311++G(d,p) empiricaldispersion=gd3bj scf=xqc pop=npa geom=c
 heck
 ----------------------------------------------------------------------

 --------------------------------------
 CID_59224453_JID_6002_Energie_neutraal
 --------------------------------------
 Structure from the checkpoint file:  "JID_6002.chk"
 Charge =  0 Multiplicity = 1

 SCF Done:  E(RB3LYP) =  -743.180220133     A.U. after   16 cycles
 Normal termination of Gaussian 16 at Thu Dec 10 21:54:39 2020.

 ----------------------------------------------------------------------
 # B3LYP/6-311++G(d,p) empiricaldispersion=gd3bj scf=xqc pop=npa geom=c
 heck
 ----------------------------------------------------------------------

 ------------------------------------
 CID_59224453_JID_6002_Energie_kation
 ------------------------------------
 Structure from the checkpoint file:  "JID_6002.chk"
 Charge =  1 Multiplicity = 2

 SCF Done:  E(UB3LYP) =  -742.865078285     A.U. after   28 cycles
 Normal termination of Gaussian 16 at Thu Dec 10 22:05:07 2020.
 Gaussian 16:  ES64L-G16RevA.03 25-Dec-2016

 ----------------------------------------------------------------------
 # B3LYP/6-311++G(d,p) empiricaldispersion=gd3bj scf=xqc pop=npa geom=c
 heck
 ----------------------------------------------------------------------

 -----------------------------------
 CID_59224453_JID_6002_Energie_anion
 -----------------------------------
 Structure from the checkpoint file:  "JID_6002.chk"
 Charge = -1 Multiplicity = 2

                         Standard orientation:
 ---------------------------------------------------------------------
 Center     Atomic      Atomic             Coordinates (Angstroms)
 Number     Number       Type             X           Y           Z
 ---------------------------------------------------------------------
      1          6           0        4.331300   -1.602918    0.212462
      2          6           0        3.134257   -0.702518    0.101998
      3          6           0        1.840666   -1.204712   -0.099502
      4          7           0        0.778781   -0.406824   -0.202600
      5          6           0        0.989541    0.909321   -0.104444
      6          6           0        2.277782    1.417437    0.109059
      7          7           0        3.343103    0.622053    0.206126
      8          6           0       -0.167630    1.860351   -0.173191
      9          8           0       -0.044461    3.011719    0.237314
     10          7           0       -1.360203    1.413070   -0.676954
     11          6           0       -1.664471    0.206575   -1.434692
     12          6           0       -1.965417   -1.083906   -0.652554
     13          8           0       -1.732042   -2.144649   -1.198686
     14          6           0       -2.672262   -1.035353    0.702687
     15          6           0       -1.742446   -0.644537    1.864977
     16          6           0       -3.924918   -0.143590    0.663386
     17          1           0        5.060505   -1.360788   -0.568359
     18          1           0        4.830371   -1.452869    1.175986
     19          1           0        4.053207   -2.656348    0.119605
     20          1           0        1.656074   -2.273535   -0.180299
     21          1           0        2.430495    2.488162    0.202142
     22          1           0       -2.053801    2.149827   -0.674775
     23          1           0       -2.562277    0.427166   -2.026145
     24          1           0       -0.868682   -0.035734   -2.140230
     25          1           0       -2.989048   -2.072544    0.861758
     26          1           0       -1.441115    0.404028    1.807645
     27          1           0       -2.269542   -0.792116    2.814677
     28          1           0       -0.839966   -1.261069    1.873307
     29          1           0       -4.590707   -0.414084   -0.164226
     30          1           0       -4.489697   -0.256803    1.595068
     31          1           0       -3.663959    0.915163    0.567699
 ---------------------------------------------------------------------

 SCF Done:  E(UB3LYP) =  -743.200903204     A.U. after   29 cycles

 The electronic state is 2-A.
 Alpha  occ. eigenvalues --  -18.99770 -18.93440 -14.20396 -14.14382 -14.13558
 Alpha  occ. eigenvalues --  -10.14687 -10.11601 -10.09878 -10.08114 -10.07618
 Alpha  occ. eigenvalues --  -10.05358 -10.05251 -10.04880 -10.04448 -10.03727
 Alpha  occ. eigenvalues --  -10.03660  -0.93158  -0.89171  -0.81310  -0.79105
 Alpha  occ. eigenvalues --   -0.74022  -0.70100  -0.63915  -0.61053  -0.59045
 Alpha  occ. eigenvalues --   -0.57558  -0.52233  -0.49868  -0.49170  -0.44914
 Alpha  occ. eigenvalues --   -0.42563  -0.38892  -0.37028  -0.36014  -0.35321
 Alpha  occ. eigenvalues --   -0.34210  -0.32820  -0.32720  -0.31533  -0.30379
 Alpha  occ. eigenvalues --   -0.29928  -0.29119  -0.28896  -0.27812  -0.26955
 Alpha  occ. eigenvalues --   -0.26413  -0.26156  -0.25732  -0.24489  -0.23423
 Alpha  occ. eigenvalues --   -0.22848  -0.22707  -0.17178  -0.15544  -0.14292
 Alpha  occ. eigenvalues --   -0.12439  -0.11687  -0.10994  -0.08338   0.04130
 Alpha virt. eigenvalues --    0.06833   0.08365   0.08807   0.09072   0.10057
 Alpha virt. eigenvalues --    0.10630   0.10997   0.11860   0.12033   0.12203
 Alpha virt. eigenvalues --    0.12504   0.12872   0.13813   0.14205   0.14570

  Beta  occ. eigenvalues --  -18.99771 -18.93181 -14.20359 -14.14017 -14.12850
  Beta  occ. eigenvalues --  -10.14678 -10.11469 -10.09880 -10.08114 -10.07613
  Beta  occ. eigenvalues --  -10.05355 -10.05345 -10.04993 -10.04105 -10.03759
  Beta  occ. eigenvalues --  -10.03439  -0.93156  -0.88758  -0.80563  -0.78925
  Beta  occ. eigenvalues --   -0.73016  -0.70091  -0.63501  -0.60979  -0.59036
  Beta  occ. eigenvalues --   -0.57211  -0.52215  -0.49749  -0.48490  -0.44635
  Beta  occ. eigenvalues --   -0.42485  -0.38828  -0.36691  -0.35997  -0.35193
  Beta  occ. eigenvalues --   -0.34030  -0.32723  -0.32585  -0.31467  -0.30195
  Beta  occ. eigenvalues --   -0.29309  -0.29065  -0.28737  -0.27285  -0.26552
  Beta  occ. eigenvalues --   -0.26273  -0.26024  -0.25684  -0.23914  -0.23114
  Beta  occ. eigenvalues --   -0.22618  -0.22118  -0.15210  -0.14656  -0.13600
  Beta  occ. eigenvalues --   -0.12056  -0.11224  -0.09560  -0.07751
  Beta virt. eigenvalues --    0.06764   0.08347   0.08781   0.09032   0.09995
  Beta virt. eigenvalues --    0.10604   0.10947   0.11494   0.11833   0.12077
  Beta virt. eigenvalues --    0.12233   0.12513   0.12979   0.13767   0.14201

 Mulliken charges and spin densities:
               1          2
     1  C   -0.529510  -0.033151
     2  C    0.001800   0.240879
     3  C   -0.154507  -0.074087
     4  N    0.046873   0.329966
     5  C    0.045136   0.180060
     6  C   -0.222325  -0.057626
     7  N   -0.130589   0.176788
     8  C   -0.386470   0.068268
     9  O   -0.398251   0.088411
    10  N   -0.292932   0.010318
    11  C   -0.166504   0.003250
    12  C   -0.078977  -0.048272
    13  O   -0.232166   0.002051
    14  C    0.296339   0.055403
    15  C   -0.514644  -0.041742
    16  C   -0.676523  -0.035736
    17  H    0.113411   0.022817
    18  H    0.109792   0.027594
    19  H    0.112325  -0.000494
    20  H    0.132906   0.001474
    21  H    0.195532   0.003803
    22  H    0.311911  -0.001647
    23  H    0.124634   0.014085
    24  H    0.250229   0.003594
    25  H    0.197090   0.005281
    26  H    0.218618   0.002451
    27  H    0.120461   0.004490
    28  H    0.156074   0.005404
    29  H    0.123826   0.008238
    30  H    0.101326   0.022089
    31  H    0.125114   0.016039
 Sum of Mulliken charges =  -1.00000   1.00000

 Dipole moment (field-independent basis, Debye):
    X=             -6.4189    Y=             -2.4030    Z=              0.0771  Tot=              6.8544
 Quadrupole moment (field-independent basis, Debye-Ang):
   XX=           -129.3993   YY=           -129.0480   ZZ=           -104.3903
   XY=             -8.4230   XZ=             -2.1252   YZ=             -8.0695

 Summary of Natural Population Analysis:

                                       Natural Population
                Natural  -----------------------------------------------
    Atom  No    Charge         Core      Valence    Rydberg      Total
 -----------------------------------------------------------------------
      C    1   -0.29813      0.99965     2.29356    0.00492     3.29813
      C    2    0.13816      0.99956     1.84712    0.01515     2.86184
      C    3   -0.02224      0.99954     2.01061    0.01209     3.02224
      N    4   -0.13509      0.99967     2.62101    0.01441     3.63509
      C    5    0.05382      0.99949     1.93112    0.01557     2.94618
      C    6    0.01540      0.99956     1.97243    0.01260     2.98460
      N    7   -0.19471      0.99967     2.68229    0.01275     3.69471
      C    8    0.34767      0.99963     1.63016    0.02255     2.65233
      O    9   -0.31239      0.99988     3.30677    0.00573     4.31239
      N   10   -0.32669      0.99967     2.81573    0.01130     3.82669
      C   11   -0.13152      0.99955     2.11969    0.01228     3.13152
      C   12    0.31047      0.99962     1.66650    0.02340     2.68953
      O   13   -0.29565      0.99987     3.28737    0.00842     4.29565
      C   14   -0.15398      0.99956     2.14569    0.00873     3.15398
      C   15   -0.28120      0.99964     2.27625    0.00531     3.28120
      C   16   -0.28470      0.99965     2.28040    0.00466     3.28470
      H   17    0.10219      0.00000     0.39672    0.00109     0.39781
      H   18    0.10219      0.00000     0.39670    0.00110     0.39781
      H   19    0.09214      0.00000     0.40697    0.00088     0.40786
      H   20    0.08242      0.00000     0.41629    0.00129     0.41758
      H   21    0.09387      0.00000     0.40472    0.00141     0.40613
      H   22    0.18537      0.00000     0.31266    0.00197     0.31463
      H   23    0.09593      0.00000     0.40259    0.00148     0.40407
      H   24    0.11538      0.00000     0.38249    0.00213     0.38462
      H   25    0.09829      0.00000     0.39946    0.00226     0.40171
      H   26    0.10905      0.00000     0.39018    0.00077     0.39095
      H   27    0.08866      0.00000     0.41040    0.00094     0.41134
      H   28    0.11206      0.00000     0.38705    0.00089     0.38794
      H   29    0.09555      0.00000     0.40347    0.00098     0.40445
      H   30    0.09721      0.00000     0.40156    0.00123     0.40279
      H   31    0.10051      0.00000     0.39806    0.00143     0.39949
 =======================================================================
   * Total *    0.00000     15.99423    42.79603    0.20974    59.00000

 Normal termination of Gaussian 16 at Thu Dec 10 22:16:19 2020.
