 Gaussian 16, Revision A.03,

 -----------------------------------------------------------
 # opt freq B3LYP/6-31G(d) empiricaldispersion=gd3bj scf=xqc
 -----------------------------------------------------------

 ------------------------------
 CID_70414208_JID_4150_neutraal
 ------------------------------
 Symbolic Z-matrix:
 Charge =  0 Multiplicity = 1

 SCF Done:  E(RB3LYP) =  -638.239991344     A.U. after   13 cycles
 SCF Done:  E(RB3LYP) =  -638.245390153     A.U. after   11 cycles
 SCF Done:  E(RB3LYP) =  -638.246076266     A.U. after   11 cycles
 SCF Done:  E(RB3LYP) =  -638.246704995     A.U. after   10 cycles
 SCF Done:  E(RB3LYP) =  -638.247541015     A.U. after   12 cycles
 SCF Done:  E(RB3LYP) =  -638.248619268     A.U. after   13 cycles
 SCF Done:  E(RB3LYP) =  -638.250383845     A.U. after   10 cycles
 SCF Done:  E(RB3LYP) =  -638.252498703     A.U. after   11 cycles
 SCF Done:  E(RB3LYP) =  -638.253942053     A.U. after   11 cycles
 SCF Done:  E(RB3LYP) =  -638.253754814     A.U. after   11 cycles
 SCF Done:  E(RB3LYP) =  -638.258041158     A.U. after    9 cycles
 SCF Done:  E(RB3LYP) =  -638.258050358     A.U. after   10 cycles
 SCF Done:  E(RB3LYP) =  -638.258044899     A.U. after    9 cycles
 SCF Done:  E(RB3LYP) =  -638.258051405     A.U. after    9 cycles
 SCF Done:  E(RB3LYP) =  -638.258051432     A.U. after    6 cycles
 SCF Done:  E(RB3LYP) =  -638.258051446     A.U. after    6 cycles
 Optimization completed.
    -- Stationary point found.
 Normal termination of Gaussian 16 at Thu Dec 10 09:44:02 2020.

 --------------------------------------------------------------------
 #N Geom=AllCheck Guess=TCheck SCRF=Check GenChk RB3LYP/6-31G(d) Freq
 --------------------------------------------------------------------

 Structure from the checkpoint file:  "JID_4150.chk"
 ------------------------------
 CID_70414208_JID_4150_neutraal
 ------------------------------
 Charge =  0 Multiplicity = 1

 SCF Done:  E(RB3LYP) =  -638.258051446     A.U. after    1 cycles

  Exact polarizability: 152.133   0.127 120.271  -1.550  -0.310 113.991
 Approx polarizability: 180.551   0.580 168.822  -0.004  -2.830 171.097

                      1                      2                      3
                      A                      A                      A
 Frequencies --     25.4611                38.0097                49.2905
 Red. masses --      3.6421                 2.6614                 3.1806
 Frc consts  --      0.0014                 0.0023                 0.0046
 IR Inten    --      0.3814                 0.0325                 0.9364

                      4                      5                      6
                      A                      A                      A
 Frequencies --     85.3212               103.2595               127.3913
 Red. masses --      2.8920                 3.0438                 2.5531
 Frc consts  --      0.0124                 0.0191                 0.0244
 IR Inten    --      0.1759                 1.4814                 0.4743

                      7                      8                      9
                      A                      A                      A
 Frequencies --    164.1943               218.6688               222.5666
 Red. masses --      3.1867                 1.1235                 1.6265
 Frc consts  --      0.0506                 0.0317                 0.0475
 IR Inten    --      0.5709                 0.0565                 0.1138

                     10                     11                     12
                      A                      A                      A
 Frequencies --    231.8106               253.0596               264.9611
 Red. masses --      2.5666                 1.5647                 1.1277
 Frc consts  --      0.0813                 0.0590                 0.0466
 IR Inten    --      0.7600                 1.8684                 0.0927

                     13                     14                     15
                      A                      A                      A
 Frequencies --    278.1478               286.5634               325.7865
 Red. masses --      3.4835                 1.7955                 2.3035
 Frc consts  --      0.1588                 0.0869                 0.1440
 IR Inten    --      3.9635                 2.8199                 7.4011

                     16                     17                     18
                      A                      A                      A
 Frequencies --    336.7740               356.4250               386.9017
 Red. masses --      1.5819                 2.5115                 2.2292
 Frc consts  --      0.1057                 0.1880                 0.1966
 IR Inten    --     41.4299                 0.6601                35.4976

                     19                     20                     21
                      A                      A                      A
 Frequencies --    400.6059               426.9514               427.9622
 Red. masses --      2.0864                 2.9443                 1.8294
 Frc consts  --      0.1973                 0.3162                 0.1974
 IR Inten    --     25.5795                 3.2685                 4.6415

                     22                     23                     24
                      A                      A                      A
 Frequencies --    485.8812               497.9256               531.2871
 Red. masses --      2.8889                 3.2865                 3.5830
 Frc consts  --      0.4018                 0.4801                 0.5959
 IR Inten    --     11.2096                12.8690                10.8945

                     25                     26                     27
                      A                      A                      A
 Frequencies --    577.8222               663.2715               764.6434
 Red. masses --      1.8580                 3.0549                 2.5450
 Frc consts  --      0.3655                 0.7918                 0.8767
 IR Inten    --      1.4869                17.6373                 6.7678

                     28                     29                     30
                      A                      A                      A
 Frequencies --    828.1447               838.9913               885.3830
 Red. masses --      2.6262                 2.3802                 2.0221
 Frc consts  --      1.0612                 0.9871                 0.9339
 IR Inten    --      3.5193                 5.1125                 2.1270

                     31                     32                     33
                      A                      A                      A
 Frequencies --    892.3201               916.7543               931.4827
 Red. masses --      1.9492                 1.5879                 1.9500
 Frc consts  --      0.9144                 0.7863                 0.9969
 IR Inten    --      2.6184                 1.5018                12.2997

                     34                     35                     36
                      A                      A                      A
 Frequencies --    932.4672               939.7777               946.6886
 Red. masses --      2.2767                 1.6247                 1.2107
 Frc consts  --      1.1663                 0.8454                 0.6393
 IR Inten    --      3.1140                 1.4670                 5.3535

                     37                     38                     39
                      A                      A                      A
 Frequencies --    962.0493               979.4920               983.1315
 Red. masses --      1.5991                 1.9394                 1.6219
 Frc consts  --      0.8720                 1.0963                 0.9236
 IR Inten    --      1.3549                 7.6787                14.8624

                     40                     41                     42
                      A                      A                      A
 Frequencies --    984.9458              1001.2482              1029.2110
 Red. masses --      1.5457                 2.8017                 2.1524
 Frc consts  --      0.8835                 1.6548                 1.3433
 IR Inten    --      1.1036                18.8315                12.1444

                     43                     44                     45
                      A                      A                      A
 Frequencies --   1078.4168              1110.9278              1149.9465
 Red. masses --      1.7035                 2.0495                 3.0142
 Frc consts  --      1.1673                 1.4903                 2.3484
 IR Inten    --     10.9464                66.7265               224.7413

                     46                     47                     48
                      A                      A                      A
 Frequencies --   1158.4018              1162.3738              1176.5702
 Red. masses --      2.1836                 1.8382                 2.8647
 Frc consts  --      1.7264                 1.4633                 2.3365
 IR Inten    --      1.8811                 5.5912                19.4527

                     49                     50                     51
                      A                      A                      A
 Frequencies --   1194.6554              1201.1545              1210.3065
 Red. masses --      1.9396                 1.3684                 1.9270
 Frc consts  --      1.6310                 1.1632                 1.6631
 IR Inten    --     89.6034                 4.9545                 2.8814

                     52                     53                     54
                      A                      A                      A
 Frequencies --   1214.1772              1235.4642              1257.5149
 Red. masses --      1.9456                 2.3326                 2.1024
 Frc consts  --      1.6899                 2.0977                 1.9588
 IR Inten    --      4.4874                22.6849                84.6964

                     55                     56                     57
                      A                      A                      A
 Frequencies --   1285.4038              1290.4417              1324.7020
 Red. masses --      1.3634                 1.4968                 1.2096
 Frc consts  --      1.3272                 1.4686                 1.2506
 IR Inten    --     12.5436                32.7066                 9.3866

                     58                     59                     60
                      A                      A                      A
 Frequencies --   1336.4181              1347.5912              1352.9247
 Red. masses --      1.3616                 1.3064                 1.3045
 Frc consts  --      1.4328                 1.3978                 1.4068
 IR Inten    --      0.0400                 2.5337                17.9096

                     61                     62                     63
                      A                      A                      A
 Frequencies --   1366.5812              1377.0278              1387.0114
 Red. masses --      1.3015                 1.4737                 1.3959
 Frc consts  --      1.4320                 1.6464                 1.5822
 IR Inten    --      0.4427                48.3734                 0.2466

                     64                     65                     66
                      A                      A                      A
 Frequencies --   1393.5252              1406.8504              1425.1138
 Red. masses --      1.3257                 1.4410                 1.3194
 Frc consts  --      1.5167                 1.6804                 1.5788
 IR Inten    --      1.0533                13.5776                 5.0826

                     67                     68                     69
                      A                      A                      A
 Frequencies --   1426.6279              1430.6474              1445.8597
 Red. masses --      1.3284                 1.3221                 1.2943
 Frc consts  --      1.5930                 1.5943                 1.5942
 IR Inten    --     21.8525                 6.9251                 7.5499

                     70                     71                     72
                      A                      A                      A
 Frequencies --   1453.6943              1511.8216              1515.5037
 Red. masses --      1.3043                 1.0620                 1.0630
 Frc consts  --      1.6239                 1.4302                 1.4384
 IR Inten    --     30.0472                 0.4533                 0.9880

                     73                     74                     75
                      A                      A                      A
 Frequencies --   1517.7966              1521.4202              1524.3372
 Red. masses --      1.0902                 1.0507                 1.0708
 Frc consts  --      1.4798                 1.4330                 1.4659
 IR Inten    --      3.3946                 0.7186                 0.4662

                     76                     77                     78
                      A                      A                      A
 Frequencies --   1526.9779              1529.6616              1532.7497
 Red. masses --      1.1000                 1.0771                 1.0728
 Frc consts  --      1.5112                 1.4849                 1.4850
 IR Inten    --      2.9684                 5.8325                 5.3116

                     79                     80                     81
                      A                      A                      A
 Frequencies --   1534.8142              1542.8958              1555.8189
 Red. masses --      1.0544                 1.0518                 1.0834
 Frc consts  --      1.4634                 1.4752                 1.5451
 IR Inten    --      1.7148                 9.2526                 2.0690

                     82                     83                     84
                      A                      A                      A
 Frequencies --   1567.9354              2966.7546              2989.9586
 Red. masses --      1.0946                 1.0736                 1.0675
 Frc consts  --      1.5855                 5.5676                 5.6226
 IR Inten    --      1.0618                54.0332                59.2110

                     85                     86                     87
                      A                      A                      A
 Frequencies --   3017.6597              3027.9778              3034.5294
 Red. masses --      1.0760                 1.0617                 1.0377
 Frc consts  --      5.7728                 5.7351                 5.6298
 IR Inten    --     58.5051                66.9300                31.9371

                     88                     89                     90
                      A                      A                      A
 Frequencies --   3039.5260              3050.7245              3051.0270
 Red. masses --      1.0444                 1.0679                 1.0808
 Frc consts  --      5.6848                 5.8558                 5.9275
 IR Inten    --     26.4789                22.4919                10.1963

                     91                     92                     93
                      A                      A                      A
 Frequencies --   3058.6936              3061.7971              3072.9103
 Red. masses --      1.0615                 1.0449                 1.0946
 Frc consts  --      5.8514                 5.7714                 6.0897
 IR Inten    --     16.8488                 5.5414                41.7857

                     94                     95                     96
                      A                      A                      A
 Frequencies --   3075.9502              3085.0575              3095.2701
 Red. masses --      1.0839                 1.1004                 1.1003
 Frc consts  --      6.0422                 6.1705                 6.2109
 IR Inten    --     72.0775                14.2061                21.3975

                     97                     98                     99
                      A                      A                      A
 Frequencies --   3101.7714              3107.8601              3111.5961
 Red. masses --      1.1002                 1.0898                 1.0974
 Frc consts  --      6.2363                 6.2017                 6.2599
 IR Inten    --     67.3318                43.4925                41.8974

                    100                    101                    102
                      A                      A                      A
 Frequencies --   3112.1176              3119.8662              3127.5967
 Red. masses --      1.1008                 1.1046                 1.1013
 Frc consts  --      6.2818                 6.3349                 6.3469
 IR Inten    --     46.4674                45.1622                26.1423

                    103                    104                    105
                      A                      A                      A
 Frequencies --   3158.4592              3172.7447              3714.6978
 Red. masses --      1.0967                 1.0996                 1.0651
 Frc consts  --      6.4462                 6.5214                 8.6593
 IR Inten    --     16.7548                12.5310                10.9577

 - Thermochemistry -
 -------------------
 Temperature   298.150 Kelvin.  Pressure   1.00000 Atm.
 Atom     1 has atomic number  6 and mass  12.00000

 Molecular mass:   201.17288 amu.
 Principal axes and moments of inertia in atomic units:
                           1         2         3
     Eigenvalues --  1349.074495285.481865610.85978
           X            0.99997   0.00433  -0.00636
           Y           -0.00422   0.99984   0.01734
           Z            0.00643  -0.01731   0.99983
 This molecule is an asymmetric top.
 Rotational symmetry number  1.
 Warning -- assumption of classical behavior for rotation
           may cause significant error
 Rotational temperatures (Kelvin)      0.06420     0.01639     0.01544
 Rotational constants (GHZ):           1.33776     0.34145     0.32165
 Zero-point vibrational energy     888344.7 (Joules/Mol)
                                  212.31948 (Kcal/Mol)
 Warning -- explicit consideration of  25 degrees of freedom as
           vibrations may cause significant error
 Vibrational temperatures:     36.63    54.69    70.92   122.76   148.57
          (Kelvin)            183.29   236.24   314.62   320.22   333.52
                              364.10   381.22   400.19   412.30   468.73
                              484.54   512.82   556.67   576.38   614.29
                              615.74   699.07   716.40   764.40   831.36
                              954.30  1100.15  1191.52  1207.12  1273.87
                             1283.85  1319.00  1340.20  1341.61  1352.13
                             1362.07  1384.17  1409.27  1414.51  1417.12
                             1440.57  1480.81  1551.60  1598.38  1654.52
                             1666.68  1672.40  1692.82  1718.84  1728.19
                             1741.36  1746.93  1777.56  1809.28  1849.41
                             1856.66  1905.95  1922.81  1938.88  1946.56
                             1966.21  1981.24  1995.60  2004.97  2024.14
                             2050.42  2052.60  2058.38  2080.27  2091.54
                             2175.17  2180.47  2183.77  2188.98  2193.18
                             2196.98  2200.84  2205.28  2208.26  2219.88
                             2238.48  2255.91  4268.50  4301.88  4341.74
                             4356.58  4366.01  4373.20  4389.31  4389.75
                             4400.78  4405.24  4421.23  4425.61  4438.71
                             4453.40  4462.76  4471.52  4476.89  4477.64
                             4488.79  4499.91  4544.32  4564.87  5344.62

 Zero-point correction=                           0.338353 (Hartree/Particle)
 Thermal correction to Energy=                    0.354465
 Thermal correction to Enthalpy=                  0.355409
 Thermal correction to Gibbs Free Energy=         0.294478
 Sum of electronic and zero-point Energies=           -637.919699
 Sum of electronic and thermal Energies=              -637.903587
 Sum of electronic and thermal Enthalpies=            -637.902643
 Sum of electronic and thermal Free Energies=         -637.963574

                     E (Thermal)             CV                S
                      KCal/Mol        Cal/Mol-Kelvin    Cal/Mol-Kelvin
 Total                  222.430             61.077            128.240
 Electronic               0.000              0.000              0.000
 Translational            0.889              2.981             41.802
 Rotational               0.889              2.981             32.059
 Vibrational            220.652             55.115             54.379
 Vibration     1          0.593              1.985              6.155
 Vibration     2          0.594              1.982              5.360
 Vibration     3          0.595              1.978              4.846
 Vibration     4          0.601              1.959              3.765
 Vibration     5          0.605              1.947              3.392
 Vibration     6          0.611              1.926              2.985
 Vibration     7          0.623              1.886              2.501
 Vibration     8          0.646              1.813              1.970
 Vibration     9          0.648              1.807              1.938
 Vibration    10          0.653              1.792              1.865
 Vibration    11          0.664              1.758              1.709
 Vibration    12          0.671              1.737              1.629
 Vibration    13          0.679              1.714              1.545
 Vibration    14          0.684              1.699              1.494
 Vibration    15          0.710              1.624              1.281
 Vibration    16          0.717              1.602              1.227
 Vibration    17          0.732              1.562              1.138
 Vibration    18          0.755              1.498              1.012
 Vibration    19          0.766              1.469              0.960
 Vibration    20          0.789              1.412              0.869
 Vibration    21          0.789              1.409              0.865
 Vibration    22          0.842              1.281              0.694
 Vibration    23          0.853              1.255              0.663
 Vibration    24          0.886              1.181              0.584
 Vibration    25          0.934              1.079              0.489

 Optimization completed.
    -- Stationary point found.
 Normal termination of Gaussian 16 at Thu Dec 10 09:55:01 2020.

 ----------------------------------------------------------------------
 # B3LYP/6-311++G(d,p) empiricaldispersion=gd3bj scf=xqc pop=npa geom=c
 heck
 ----------------------------------------------------------------------

 --------------------------------------
 CID_70414208_JID_4150_Energie_neutraal
 --------------------------------------
 Structure from the checkpoint file:  "JID_4150.chk"
 Charge =  0 Multiplicity = 1

 SCF Done:  E(RB3LYP) =  -638.447102662     A.U. after   13 cycles
 Normal termination of Gaussian 16 at Thu Dec 10 09:59:36 2020.

 ----------------------------------------------------------------------
 # B3LYP/6-311++G(d,p) empiricaldispersion=gd3bj scf=xqc pop=npa geom=c
 heck
 ----------------------------------------------------------------------

 ------------------------------------
 CID_70414208_JID_4150_Energie_kation
 ------------------------------------
 Structure from the checkpoint file:  "JID_4150.chk"
 Charge =  1 Multiplicity = 2

 SCF Done:  E(UB3LYP) =  -638.167853619     A.U. after   19 cycles
 Normal termination of Gaussian 16 at Thu Dec 10 10:08:19 2020.
 Gaussian 16:  ES64L-G16RevA.03 25-Dec-2016

 ----------------------------------------------------------------------
 # B3LYP/6-311++G(d,p) empiricaldispersion=gd3bj scf=xqc pop=npa geom=c
 heck
 ----------------------------------------------------------------------

 -----------------------------------
 CID_70414208_JID_4150_Energie_anion
 -----------------------------------
 Structure from the checkpoint file:  "JID_4150.chk"
 Charge = -1 Multiplicity = 2

                         Standard orientation:
 ---------------------------------------------------------------------
 Center     Atomic      Atomic             Coordinates (Angstroms)
 Number     Number       Type             X           Y           Z
 ---------------------------------------------------------------------
      1          6           0        4.200106    1.529908   -0.082881
      2          6           0        3.033842    0.539656   -0.184301
      3          6           0        3.447721   -0.754500   -0.888993
      4          6           0        2.485211    0.252284    1.218184
      5          8           0        1.356954   -0.612532    1.237454
      6          6           0        0.117871   -0.005534    0.910556
      7          6           0       -0.602191   -0.743043   -0.235980
      8          6           0       -0.631249   -2.250230    0.031422
      9          7           0       -1.955612   -0.248468   -0.465891
     10          6           0       -2.105449    1.171750   -0.860498
     11          6           0       -3.231932    1.718239    0.026473
     12          6           0       -4.076470    0.467175    0.301193
     13          6           0       -3.005708   -0.610849    0.497386
     14          8           0        0.159648   -0.468206   -1.409831
     15          1           0        5.023828    1.108579    0.508415
     16          1           0        3.894555    2.469961    0.392966
     17          1           0        4.596650    1.770118   -1.075550
     18          1           0        2.229984    0.999778   -0.773213
     19          1           0        4.242976   -1.266717   -0.330670
     20          1           0        2.592970   -1.427740   -0.979030
     21          1           0        3.826753   -0.545312   -1.896192
     22          1           0        3.252252   -0.257972    1.814332
     23          1           0        2.244357    1.197322    1.732112
     24          1           0       -0.528192   -0.032910    1.799299
     25          1           0        0.259116    1.042940    0.626529
     26          1           0       -1.146374   -2.491458    0.966451
     27          1           0       -1.147755   -2.760921   -0.788998
     28          1           0        0.394663   -2.613689    0.103908
     29          1           0       -2.385910    1.234222   -1.921415
     30          1           0       -1.171278    1.728918   -0.751472
     31          1           0       -2.818619    2.100050    0.968721
     32          1           0       -3.792077    2.530184   -0.447557
     33          1           0       -4.737887    0.563385    1.167407
     34          1           0       -4.693804    0.228558   -0.573244
     35          1           0       -2.646896   -0.592880    1.541202
     36          1           0       -3.386511   -1.619900    0.304214
     37          1           0       -0.336840   -0.868475   -2.143332
 ---------------------------------------------------------------------

 SCF Done:  E(UB3LYP) =  -638.432347126     A.U. after   26 cycles

 The electronic state is 2-A.
 Alpha  occ. eigenvalues --  -19.02304 -19.02066 -14.19950 -10.15391 -10.11641
 Alpha  occ. eigenvalues --  -10.11240 -10.09073 -10.08654 -10.07296 -10.06755
 Alpha  occ. eigenvalues --  -10.06601 -10.06488 -10.05757 -10.05543  -0.94423
 Alpha  occ. eigenvalues --   -0.92652  -0.82026  -0.70894  -0.69073  -0.63996
 Alpha  occ. eigenvalues --   -0.62651  -0.60243  -0.58857  -0.55957  -0.51217
 Alpha  occ. eigenvalues --   -0.48460  -0.46999  -0.46222  -0.42439  -0.40477
 Alpha  occ. eigenvalues --   -0.39554  -0.37811  -0.36450  -0.35623  -0.34817
 Alpha  occ. eigenvalues --   -0.32746  -0.32233  -0.31399  -0.30707  -0.30045
 Alpha  occ. eigenvalues --   -0.29450  -0.29223  -0.28810  -0.27051  -0.26342
 Alpha  occ. eigenvalues --   -0.25700  -0.24609  -0.24368  -0.24263  -0.23605
 Alpha  occ. eigenvalues --   -0.23528  -0.22821  -0.21063  -0.18670  -0.16190
 Alpha  occ. eigenvalues --   -0.10826   0.04395
 Alpha virt. eigenvalues --    0.06212   0.07085   0.07540   0.08201   0.08561
 Alpha virt. eigenvalues --    0.08724   0.09625   0.09982   0.10311   0.10670
 Alpha virt. eigenvalues --    0.10763   0.11415   0.11766   0.12880   0.13034

  Beta  occ. eigenvalues --  -19.02298 -19.02052 -14.19948 -10.15387 -10.11629
  Beta  occ. eigenvalues --  -10.11221 -10.09052 -10.08635 -10.07291 -10.06733
  Beta  occ. eigenvalues --  -10.06575 -10.06462 -10.05741 -10.05533  -0.94403
  Beta  occ. eigenvalues --   -0.92630  -0.82006  -0.70875  -0.69045  -0.63964
  Beta  occ. eigenvalues --   -0.62606  -0.60210  -0.58826  -0.55919  -0.51173
  Beta  occ. eigenvalues --   -0.48380  -0.46962  -0.46174  -0.42396  -0.40452
  Beta  occ. eigenvalues --   -0.39530  -0.37784  -0.36419  -0.35600  -0.34788
  Beta  occ. eigenvalues --   -0.32721  -0.32202  -0.31364  -0.30680  -0.30019
  Beta  occ. eigenvalues --   -0.29425  -0.29197  -0.28789  -0.27026  -0.26313
  Beta  occ. eigenvalues --   -0.25680  -0.24579  -0.24336  -0.24223  -0.23576
  Beta  occ. eigenvalues --   -0.23505  -0.22778  -0.21035  -0.18650  -0.16173
  Beta  occ. eigenvalues --   -0.10802
  Beta virt. eigenvalues --    0.06330   0.06966   0.07766   0.08110   0.08705
  Beta virt. eigenvalues --    0.08863   0.09042   0.09971   0.10342   0.10617
  Beta virt. eigenvalues --    0.11020   0.11150   0.11595   0.12024   0.13165

 Mulliken charges and spin densities:
               1          2
     1  C    0.122626  -0.692180
     2  C   -0.568048   0.843947
     3  C   -0.065444  -0.481480
     4  C    0.440809  -0.795340
     5  O   -0.041083   0.027777
     6  C    1.140749  -1.305892
     7  C   -2.777475   1.753569
     8  C    0.647167  -0.963212
     9  N    0.204621   0.036015
    10  C    0.255799  -0.335308
    11  C    0.136794  -0.472075
    12  C    0.722723  -1.158354
    13  C    0.310461  -0.469282
    14  O   -0.092054   0.030378
    15  H    0.021388   0.096367
    16  H   -0.245962   0.379912
    17  H   -0.069538   0.213945
    18  H    0.257887  -0.054644
    19  H    0.056739   0.056803
    20  H    0.122323   0.048124
    21  H   -0.038944   0.158829
    22  H    0.107084   0.051333
    23  H   -0.147074   0.281432
    24  H   -0.243392   0.414697
    25  H    0.443698  -0.287894
    26  H   -0.051738   0.225347
    27  H   -0.131700   0.288620
    28  H    0.124942   0.033519
    29  H   -0.386478   0.544363
    30  H   -0.088747   0.230437
    31  H   -0.177294   0.306527
    32  H   -0.298167   0.465394
    33  H   -0.424047   0.589554
    34  H   -0.010446   0.163452
    35  H    0.093559   0.028784
    36  H   -0.337216   0.489221
    37  H   -0.014525   0.257317
 Sum of Mulliken charges =  -1.00000   1.00000

 Dipole moment (field-independent basis, Debye):
    X=              3.9090    Y=             -1.7874    Z=              0.2740  Tot=              4.3070
 Quadrupole moment (field-independent basis, Debye-Ang):
   XX=           -171.4993   YY=           -131.7652   ZZ=           -128.0436
   XY=             -1.4430   XZ=              2.0433   YZ=             -0.3644

 Summary of Natural Population Analysis:

                                       Natural Population
                Natural  -----------------------------------------------
    Atom  No    Charge         Core      Valence    Rydberg      Total
 -----------------------------------------------------------------------
      C    1   -0.28331      0.99965     2.27896    0.00470     3.28331
      C    2   -0.13629      0.99961     2.12663    0.01004     3.13629
      C    3   -0.28431      0.99964     2.27939    0.00528     3.28431
      C    4   -0.00061      0.99954     1.98796    0.01311     3.00061
      O    5   -0.30648      0.99988     3.29665    0.00995     4.30648
      C    6   -0.02211      0.99948     2.00961    0.01302     3.02211
      C    7    0.22477      0.99955     1.75794    0.01775     2.77523
      C    8   -0.30080      0.99961     2.29346    0.00773     3.30080
      N    9   -0.30239      0.99968     2.78755    0.01515     3.80239
      C   10   -0.08137      0.99962     2.07054    0.01120     3.08137
      C   11   -0.19583      0.99963     2.18853    0.00766     3.19583
      C   12   -0.19254      0.99963     2.18502    0.00788     3.19254
      C   13   -0.08276      0.99961     2.07193    0.01121     3.08276
      O   14   -0.37807      0.99988     3.37069    0.00750     4.37807
      H   15    0.09330      0.00000     0.40567    0.00103     0.40670
      H   16    0.09956      0.00000     0.39934    0.00110     0.40044
      H   17    0.09982      0.00000     0.39925    0.00094     0.40018
      H   18    0.10367      0.00000     0.39377    0.00256     0.39633
      H   19    0.08974      0.00000     0.40937    0.00089     0.41026
      H   20    0.11181      0.00000     0.38686    0.00133     0.38819
      H   21    0.09577      0.00000     0.40340    0.00082     0.40423
      H   22    0.08550      0.00000     0.41336    0.00114     0.41450
      H   23    0.08056      0.00000     0.41827    0.00117     0.41944
      H   24    0.08735      0.00000     0.41084    0.00181     0.41265
      H   25    0.08909      0.00000     0.40885    0.00205     0.41091
      H   26    0.10261      0.00000     0.39644    0.00095     0.39739
      H   27    0.10116      0.00000     0.39762    0.00121     0.39884
      H   28    0.11103      0.00000     0.38771    0.00126     0.38897
      H   29    0.08934      0.00000     0.40892    0.00174     0.41066
      H   30    0.09675      0.00000     0.40156    0.00169     0.40325
      H   31    0.09489      0.00000     0.40349    0.00162     0.40511
      H   32    0.10151      0.00000     0.39713    0.00135     0.39849
      H   33    0.10219      0.00000     0.39643    0.00138     0.39781
      H   34    0.09655      0.00000     0.40199    0.00146     0.40345
      H   35    0.08248      0.00000     0.41561    0.00191     0.41752
      H   36    0.09651      0.00000     0.40178    0.00171     0.40349
      H   37    0.23088      0.00000     0.26570    0.00342     0.26912
 =======================================================================
   * Total *    0.00000     13.99503    41.82823    0.17674    56.00000

 Normal termination of Gaussian 16 at Thu Dec 10 10:20:32 2020.
