 Gaussian 16, Revision A.03,

 -----------------------------------------------------------
 # opt freq B3LYP/6-31G(d) empiricaldispersion=gd3bj scf=xqc
 -----------------------------------------------------------

 ------------------------------
 CID_59454360_JID_6022_neutraal
 ------------------------------
 Symbolic Z-matrix:
 Charge =  0 Multiplicity = 1

 SCF Done:  E(RB3LYP) =  -704.634865765     A.U. after   15 cycles
 SCF Done:  E(RB3LYP) =  -704.639473104     A.U. after   13 cycles
 SCF Done:  E(RB3LYP) =  -704.639702409     A.U. after   13 cycles
 SCF Done:  E(RB3LYP) =  -704.641309632     A.U. after   12 cycles
 SCF Done:  E(RB3LYP) =  -704.641708909     A.U. after   12 cycles
 SCF Done:  E(RB3LYP) =  -704.641891430     A.U. after   12 cycles
 SCF Done:  E(RB3LYP) =  -704.641998315     A.U. after   11 cycles
 SCF Done:  E(RB3LYP) =  -704.642107160     A.U. after   12 cycles
 SCF Done:  E(RB3LYP) =  -704.642168747     A.U. after   11 cycles
 SCF Done:  E(RB3LYP) =  -704.642198240     A.U. after   11 cycles
 SCF Done:  E(RB3LYP) =  -704.642210272     A.U. after   11 cycles
 SCF Done:  E(RB3LYP) =  -704.642215410     A.U. after    9 cycles
 SCF Done:  E(RB3LYP) =  -704.642217827     A.U. after    9 cycles
 SCF Done:  E(RB3LYP) =  -704.642219397     A.U. after    9 cycles
 SCF Done:  E(RB3LYP) =  -704.642220028     A.U. after    8 cycles
 SCF Done:  E(RB3LYP) =  -704.642220087     A.U. after    7 cycles
 Optimization completed.
    -- Stationary point found.
 Normal termination of Gaussian 16 at Thu Dec 10 21:10:14 2020.

 --------------------------------------------------------------------
 #N Geom=AllCheck Guess=TCheck SCRF=Check GenChk RB3LYP/6-31G(d) Freq
 --------------------------------------------------------------------

 Structure from the checkpoint file:  "JID_6022.chk"
 ------------------------------
 CID_59454360_JID_6022_neutraal
 ------------------------------
 Charge =  0 Multiplicity = 1

 SCF Done:  E(RB3LYP) =  -704.642220087     A.U. after    1 cycles

  Exact polarizability: 190.810  -4.452 151.872  -9.857   7.567  95.863
 Approx polarizability: 277.273 -12.633 258.190 -28.543  28.111 156.750

                      1                      2                      3
                      A                      A                      A
 Frequencies --     22.3811                45.6038                65.5989
 Red. masses --      4.3258                 4.4038                 4.9510
 Frc consts  --      0.0013                 0.0054                 0.0126
 IR Inten    --      0.3432                 0.4070                 0.7011

                      4                      5                      6
                      A                      A                      A
 Frequencies --    100.4813               108.0669               154.4719
 Red. masses --      3.3655                 3.5229                 2.6579
 Frc consts  --      0.0200                 0.0242                 0.0374
 IR Inten    --      2.1780                 0.7866                 0.6668

                      7                      8                      9
                      A                      A                      A
 Frequencies --    174.5331               196.4172               204.7989
 Red. masses --      1.6874                 4.0006                 3.1733
 Frc consts  --      0.0303                 0.0909                 0.0784
 IR Inten    --      0.1535                 2.8927                 2.2165

                     10                     11                     12
                      A                      A                      A
 Frequencies --    255.7944               267.7683               348.6607
 Red. masses --      3.9432                 4.1282                 4.5620
 Frc consts  --      0.1520                 0.1744                 0.3268
 IR Inten    --     14.9473                 0.1910                 3.9234

                     13                     14                     15
                      A                      A                      A
 Frequencies --    382.1683               467.5591               486.9780
 Red. masses --      5.8306                 4.0332                 3.4424
 Frc consts  --      0.5017                 0.5195                 0.4810
 IR Inten    --      6.0017                 8.2311                 8.8527

                     16                     17                     18
                      A                      A                      A
 Frequencies --    503.1263               544.3781               574.1809
 Red. masses --      5.0507                 4.9698                 1.6850
 Frc consts  --      0.7533                 0.8677                 0.3273
 IR Inten    --      7.5374                 2.7913                22.1122

                     19                     20                     21
                      A                      A                      A
 Frequencies --    588.2914               594.0270               631.3147
 Red. masses --      1.8503                 4.0211                 4.0041
 Frc consts  --      0.3773                 0.8360                 0.9403
 IR Inten    --     88.8950                 4.9974                 9.5546

                     22                     23                     24
                      A                      A                      A
 Frequencies --    646.7610               663.3701               672.5723
 Red. masses --      3.3460                 2.0287                 3.7031
 Frc consts  --      0.8246                 0.5260                 0.9869
 IR Inten    --     18.5083                 4.2153                18.7175

                     25                     26                     27
                      A                      A                      A
 Frequencies --    737.1467               747.7896               760.3023
 Red. masses --      1.4585                 2.2413                 2.8484
 Frc consts  --      0.4670                 0.7384                 0.9701
 IR Inten    --     16.7147                69.1554                28.9414

                     28                     29                     30
                      A                      A                      A
 Frequencies --    771.7903               785.7820               823.3461
 Red. masses --      1.7412                 2.1777                 1.2742
 Frc consts  --      0.6111                 0.7922                 0.5089
 IR Inten    --     58.8028                72.0604                15.7928

                     31                     32                     33
                      A                      A                      A
 Frequencies --    838.6291               867.7174               883.3920
 Red. masses --      1.9422                 1.4694                 1.3065
 Frc consts  --      0.8048                 0.6518                 0.6007
 IR Inten    --     31.1579                 5.3038                 1.1644

                     34                     35                     36
                      A                      A                      A
 Frequencies --    903.0712               913.6573               934.9142
 Red. masses --      4.4646                 4.8631                 1.3912
 Frc consts  --      2.1453                 2.3918                 0.7164
 IR Inten    --      5.2259                 8.2634                 4.3416

                     37                     38                     39
                      A                      A                      A
 Frequencies --    968.7398               975.3635              1048.9508
 Red. masses --      1.2412                 3.1258                 3.2681
 Frc consts  --      0.6863                 1.7521                 2.1186
 IR Inten    --      0.1698                 2.5319                 4.0626

                     40                     41                     42
                      A                      A                      A
 Frequencies --   1077.5309              1079.8338              1106.0794
 Red. masses --      1.4086                 1.7881                 1.7238
 Frc consts  --      0.9636                 1.2284                 1.2426
 IR Inten    --     20.0560                 8.0382                30.3398

                     43                     44                     45
                      A                      A                      A
 Frequencies --   1124.3814              1143.2195              1161.1911
 Red. masses --      2.0262                 1.3274                 1.3587
 Frc consts  --      1.5093                 1.0222                 1.0794
 IR Inten    --     36.5167                95.4308                36.3436

                     46                     47                     48
                      A                      A                      A
 Frequencies --   1179.6413              1194.0977              1219.9012
 Red. masses --      1.4846                 1.0911                 3.3525
 Frc consts  --      1.2172                 0.9166                 2.9395
 IR Inten    --      9.7655                 1.3758                37.9514

                     49                     50                     51
                      A                      A                      A
 Frequencies --   1258.5236              1293.2432              1298.6114
 Red. masses --      2.5289                 1.4403                 2.0930
 Frc consts  --      2.3600                 1.4192                 2.0796
 IR Inten    --     33.7583                11.1412                48.6472

                     52                     53                     54
                      A                      A                      A
 Frequencies --   1334.0856              1351.1445              1401.3833
 Red. masses --      2.0892                 4.6752                 3.6361
 Frc consts  --      2.1908                 5.0287                 4.2073
 IR Inten    --     24.6289                 4.3180               203.0061

                     55                     56                     57
                      A                      A                      A
 Frequencies --   1457.1577              1459.5257              1468.5303
 Red. masses --      5.1619                 1.8317                 3.6536
 Frc consts  --      6.4576                 2.2989                 4.6423
 IR Inten    --    147.4293               103.7055               188.1069

                     58                     59                     60
                      A                      A                      A
 Frequencies --   1475.0016              1485.7752              1498.8628
 Red. masses --      1.5432                 1.4023                 3.1445
 Frc consts  --      1.9781                 1.8239                 4.1622
 IR Inten    --     10.7665                 6.4132                 2.2150

                     61                     62                     63
                      A                      A                      A
 Frequencies --   1519.6739              1531.2273              1549.8082
 Red. masses --      1.3544                 1.3178                 1.1399
 Frc consts  --      1.8429                 1.8204                 1.6132
 IR Inten    --     32.7517                 3.7638                24.6285

                     64                     65                     66
                      A                      A                      A
 Frequencies --   1559.8111              1599.3234              1648.6762
 Red. masses --      2.4903                 3.8091                 5.1992
 Frc consts  --      3.5698                 5.7404                 8.3263
 IR Inten    --     71.5427                32.6543                 4.6728

                     67                     68                     69
                      A                      A                      A
 Frequencies --   1663.8883              1729.0472              3009.1627
 Red. masses --      5.8504                 7.5588                 1.0544
 Frc consts  --      9.5430                13.3142                 5.6251
 IR Inten    --     15.3020               437.8028                74.7461

                     70                     71                     72
                      A                      A                      A
 Frequencies --   3110.5979              3161.8965              3173.6530
 Red. masses --      1.0831                 1.1012                 1.0880
 Frc consts  --      6.1748                 6.4867                 6.4565
 IR Inten    --     35.0938                10.9467                14.9757

                     73                     74                     75
                      A                      A                      A
 Frequencies --   3195.2800              3210.0514              3226.3375
 Red. masses --      1.0883                 1.0941                 1.0944
 Frc consts  --      6.5466                 6.6423                 6.7117
 IR Inten    --      8.0156                26.5154                 6.2780

                     76                     77                     78
                      A                      A                      A
 Frequencies --   3259.3452              3282.6770              3294.8460
 Red. masses --      1.0906                 1.0999                 1.0988
 Frc consts  --      6.8262                 6.9834                 7.0284
 IR Inten    --      5.2465                 4.5004                 0.7443

                     79                     80                     81
                      A                      A                      A
 Frequencies --   3528.3856              3560.4574              3640.6200
 Red. masses --      1.0744                 1.0747                 1.0802
 Frc consts  --      7.8805                 8.0267                 8.4353
 IR Inten    --      2.5574                56.8599                91.6794

 - Thermochemistry -
 -------------------
 Temperature   298.150 Kelvin.  Pressure   1.00000 Atm.
 Atom     1 has atomic number  6 and mass  12.00000

 Molecular mass:   215.10586 amu.
 Principal axes and moments of inertia in atomic units:
                           1         2         3
     Eigenvalues --  2102.307934795.633235722.89260
           X            0.99991   0.01248  -0.00489
           Y           -0.01265   0.99927  -0.03597
           Z            0.00444   0.03602   0.99934
 This molecule is an asymmetric top.
 Rotational symmetry number  1.
 Warning -- assumption of classical behavior for rotation
           may cause significant error
 Rotational temperatures (Kelvin)      0.04120     0.01806     0.01513
 Rotational constants (GHZ):           0.85846     0.37633     0.31535
 Zero-point vibrational energy     623149.0 (Joules/Mol)
                                  148.93619 (Kcal/Mol)
 Warning -- explicit consideration of  20 degrees of freedom as
           vibrations may cause significant error
 Vibrational temperatures:     32.20    65.61    94.38   144.57   155.48
          (Kelvin)            222.25   251.11   282.60   294.66   368.03
                              385.26   501.65   549.85   672.71   700.65
                              723.89   783.24   826.12   846.42   854.67
                              908.32   930.54   954.44   967.68  1060.59
                             1075.90  1093.91  1110.43  1130.57  1184.61
                             1206.60  1248.45  1271.00  1299.32  1314.55
                             1345.13  1393.80  1403.33  1509.21  1550.33
                             1553.64  1591.40  1617.73  1644.84  1670.70
                             1697.24  1718.04  1755.17  1810.73  1860.69
                             1868.41  1919.45  1944.00  2016.28  2096.52
                             2099.93  2112.89  2122.20  2137.70  2156.53
                             2186.47  2203.09  2229.83  2244.22  2301.07
                             2372.08  2393.96  2487.71  4329.51  4475.46
                             4549.26  4566.18  4597.30  4618.55  4641.98
                             4689.47  4723.04  4740.55  5076.56  5122.70
                             5238.04

 Zero-point correction=                           0.237345 (Hartree/Particle)
 Thermal correction to Energy=                    0.251384
 Thermal correction to Enthalpy=                  0.252329
 Thermal correction to Gibbs Free Energy=         0.195075
 Sum of electronic and zero-point Energies=           -704.404875
 Sum of electronic and thermal Energies=              -704.390836
 Sum of electronic and thermal Enthalpies=            -704.389891
 Sum of electronic and thermal Free Energies=         -704.447146

                     E (Thermal)             CV                S
                      KCal/Mol        Cal/Mol-Kelvin    Cal/Mol-Kelvin
 Total                  157.746             54.102            120.501
 Electronic               0.000              0.000              0.000
 Translational            0.889              2.981             42.001
 Rotational               0.889              2.981             32.423
 Vibrational            155.969             48.141             46.077
 Vibration     1          0.593              1.985              6.411
 Vibration     2          0.595              1.979              4.999
 Vibration     3          0.597              1.971              4.281
 Vibration     4          0.604              1.949              3.445
 Vibration     5          0.606              1.943              3.303
 Vibration     6          0.620              1.898              2.616
 Vibration     7          0.627              1.874              2.386
 Vibration     8          0.636              1.845              2.166
 Vibration     9          0.640              1.833              2.090
 Vibration    10          0.666              1.753              1.690
 Vibration    11          0.673              1.732              1.611
 Vibration    12          0.726              1.578              1.172
 Vibration    13          0.752              1.508              1.031
 Vibration    14          0.825              1.322              0.744
 Vibration    15          0.843              1.279              0.691
 Vibration    16          0.858              1.243              0.650
 Vibration    17          0.900              1.152              0.556
 Vibration    18          0.930              1.087              0.496
 Vibration    19          0.945              1.057              0.470
 Vibration    20          0.952              1.044              0.460

 Optimization completed.
    -- Stationary point found.
 Normal termination of Gaussian 16 at Thu Dec 10 21:19:44 2020.

 ----------------------------------------------------------------------
 # B3LYP/6-311++G(d,p) empiricaldispersion=gd3bj scf=xqc pop=npa geom=c
 heck
 ----------------------------------------------------------------------

 --------------------------------------
 CID_59454360_JID_6022_Energie_neutraal
 --------------------------------------
 Structure from the checkpoint file:  "JID_6022.chk"
 Charge =  0 Multiplicity = 1

 SCF Done:  E(RB3LYP) =  -704.842101526     A.U. after   16 cycles
 Normal termination of Gaussian 16 at Thu Dec 10 21:23:21 2020.

 ----------------------------------------------------------------------
 # B3LYP/6-311++G(d,p) empiricaldispersion=gd3bj scf=xqc pop=npa geom=c
 heck
 ----------------------------------------------------------------------

 ------------------------------------
 CID_59454360_JID_6022_Energie_kation
 ------------------------------------
 Structure from the checkpoint file:  "JID_6022.chk"
 Charge =  1 Multiplicity = 2

 SCF Done:  E(UB3LYP) =  -704.564132793     A.U. after   25 cycles
 Normal termination of Gaussian 16 at Thu Dec 10 21:33:10 2020.
 Gaussian 16:  ES64L-G16RevA.03 25-Dec-2016

 ----------------------------------------------------------------------
 # B3LYP/6-311++G(d,p) empiricaldispersion=gd3bj scf=xqc pop=npa geom=c
 heck
 ----------------------------------------------------------------------

 -----------------------------------
 CID_59454360_JID_6022_Energie_anion
 -----------------------------------
 Structure from the checkpoint file:  "JID_6022.chk"
 Charge = -1 Multiplicity = 2

                         Standard orientation:
 ---------------------------------------------------------------------
 Center     Atomic      Atomic             Coordinates (Angstroms)
 Number     Number       Type             X           Y           Z
 ---------------------------------------------------------------------
      1          6           0       -1.658281   -2.199982    1.561558
      2          7           0       -2.477985   -1.699785    0.447347
      3          6           0       -2.272495   -0.345914    0.085992
      4          6           0       -3.245591    0.636262    0.304069
      5          6           0       -3.037375    1.955052   -0.095123
      6          6           0       -1.842188    2.310327   -0.721895
      7          6           0       -0.876087    1.338999   -0.974364
      8          6           0       -1.075072    0.017130   -0.566971
      9          7           0       -0.162584   -1.010023   -0.885456
     10          6           0        1.212139   -1.051818   -0.842351
     11          8           0        1.819454   -1.969753   -1.402972
     12          6           0        1.958376   -0.047550   -0.072374
     13          6           0        1.677831    0.939712    0.869763
     14          6           0        2.914564    1.460839    1.319464
     15          6           0        3.920932    0.781609    0.647379
     16          7           0        3.330564   -0.118334   -0.184041
     17          1           0       -1.826523   -1.649145    2.499933
     18          1           0       -0.600947   -2.117614    1.303529
     19          1           0       -1.890219   -3.256699    1.722896
     20          1           0       -3.461453   -1.855582    0.648963
     21          1           0       -4.168982    0.357106    0.806843
     22          1           0       -3.803360    2.702298    0.090110
     23          1           0       -1.671299    3.334170   -1.040119
     24          1           0        0.039265    1.593776   -1.496514
     25          1           0       -0.577225   -1.874219   -1.219912
     26          1           0        0.695341    1.247009    1.192341
     27          1           0        3.057734    2.246843    2.048018
     28          1           0        4.995590    0.878889    0.699515
     29          1           0        3.765952   -0.819816   -0.767655
 ---------------------------------------------------------------------

 SCF Done:  E(UB3LYP) =  -704.834981276     A.U. after   32 cycles

 The electronic state is 2-A.
 Alpha  occ. eigenvalues --  -18.95268 -14.23841 -14.21488 -14.20510 -10.13673
 Alpha  occ. eigenvalues --  -10.09323 -10.09261 -10.08648 -10.08385 -10.07685
 Alpha  occ. eigenvalues --  -10.05839 -10.05461 -10.05364 -10.05290 -10.05150
 Alpha  occ. eigenvalues --  -10.04383  -0.91079  -0.86375  -0.82827  -0.79321
 Alpha  occ. eigenvalues --   -0.72496  -0.66423  -0.63189  -0.62959  -0.62064
 Alpha  occ. eigenvalues --   -0.56261  -0.52550  -0.49267  -0.48611  -0.47790
 Alpha  occ. eigenvalues --   -0.45934  -0.42741  -0.40478  -0.39929  -0.36103
 Alpha  occ. eigenvalues --   -0.34628  -0.33593  -0.32717  -0.32224  -0.31700
 Alpha  occ. eigenvalues --   -0.31573  -0.31233  -0.29883  -0.28786  -0.27942
 Alpha  occ. eigenvalues --   -0.27442  -0.27176  -0.25564  -0.24587  -0.23975
 Alpha  occ. eigenvalues --   -0.17798  -0.16962  -0.14494  -0.13813  -0.12352
 Alpha  occ. eigenvalues --   -0.11102  -0.09628   0.04811
 Alpha virt. eigenvalues --    0.06635   0.07450   0.07996   0.09063   0.09520
 Alpha virt. eigenvalues --    0.09809   0.10255   0.10748   0.11071   0.11490
 Alpha virt. eigenvalues --    0.12206   0.12716   0.13468   0.14125   0.14478

  Beta  occ. eigenvalues --  -18.95045 -14.23715 -14.21514 -14.20476 -10.13437
  Beta  occ. eigenvalues --  -10.09335 -10.09203 -10.08573 -10.08370 -10.07666
  Beta  occ. eigenvalues --  -10.05870 -10.05367 -10.05283 -10.05194 -10.05191
  Beta  occ. eigenvalues --  -10.04277  -0.90694  -0.86180  -0.82734  -0.79223
  Beta  occ. eigenvalues --   -0.72366  -0.66276  -0.63047  -0.62699  -0.61923
  Beta  occ. eigenvalues --   -0.56186  -0.52232  -0.49007  -0.48481  -0.47742
  Beta  occ. eigenvalues --   -0.45807  -0.42625  -0.40373  -0.39836  -0.36007
  Beta  occ. eigenvalues --   -0.34495  -0.33479  -0.32584  -0.31998  -0.31596
  Beta  occ. eigenvalues --   -0.31459  -0.30865  -0.29694  -0.28610  -0.27837
  Beta  occ. eigenvalues --   -0.27311  -0.26875  -0.25264  -0.24216  -0.23769
  Beta  occ. eigenvalues --   -0.17367  -0.16675  -0.14046  -0.13516  -0.11853
  Beta  occ. eigenvalues --   -0.10504  -0.09353
  Beta virt. eigenvalues --    0.07271   0.07641   0.08264   0.08717   0.09332
  Beta virt. eigenvalues --    0.09629   0.10234   0.10625   0.10945   0.11304
  Beta virt. eigenvalues --    0.11737   0.12359   0.12727   0.13611   0.14236

 Mulliken charges and spin densities:
               1          2
     1  C   -0.041316  -0.350981
     2  N   -0.177017   0.083945
     3  C    0.126730  -0.254601
     4  C    0.092063  -0.160213
     5  C    0.318979  -0.573660
     6  C   -0.454337   0.053197
     7  C   -0.097833   0.353454
     8  C    0.146787  -0.285682
     9  N   -0.136079  -0.063681
    10  C   -0.313278  -0.144727
    11  O   -0.427062   0.084333
    12  C   -0.500047   0.128018
    13  C    0.675993   0.166136
    14  C   -0.529214  -0.130124
    15  C   -0.029731   0.092081
    16  N   -0.042858   0.045288
    17  H    0.035573   0.088201
    18  H    0.201142   0.001847
    19  H   -0.196407   0.319599
    20  H   -0.216214   0.470903
    21  H   -0.729466   0.875800
    22  H   -0.014287   0.143077
    23  H    0.112802   0.030064
    24  H    0.148026   0.012605
    25  H    0.323150   0.012963
    26  H    0.204179  -0.013253
    27  H    0.107716   0.017875
    28  H    0.119493   0.002850
    29  H    0.292512  -0.005314
 Sum of Mulliken charges =  -1.00000   1.00000

 Dipole moment (field-independent basis, Debye):
    X=              5.1313    Y=              3.0003    Z=              0.0442  Tot=              5.9443
 Quadrupole moment (field-independent basis, Debye-Ang):
   XX=           -151.9871   YY=           -126.0563   ZZ=           -116.1311
   XY=             -2.9200   XZ=              7.0662   YZ=             -2.6424

 Summary of Natural Population Analysis:

                                       Natural Population
                Natural  -----------------------------------------------
    Atom  No    Charge         Core      Valence    Rydberg      Total
 -----------------------------------------------------------------------
      C    1   -0.17821      0.99963     2.17035    0.00822     3.17821
      N    2   -0.33108      0.99971     2.81815    0.01321     3.83108
      C    3    0.07091      0.99944     1.91745    0.01221     2.92909
      C    4   -0.10702      0.99952     2.09714    0.01036     3.10702
      C    5   -0.09209      0.99957     2.08159    0.01093     3.09209
      C    6   -0.11926      0.99957     2.11045    0.00924     3.11926
      C    7   -0.08861      0.99953     2.08100    0.00808     3.08861
      C    8    0.07274      0.99942     1.91632    0.01152     2.92726
      N    9   -0.31555      0.99965     2.80655    0.00934     3.81555
      C   10    0.35148      0.99961     1.62771    0.02120     2.64852
      O   11   -0.32270      0.99989     3.31753    0.00528     4.32270
      C   12    0.01997      0.99953     1.96899    0.01152     2.98003
      C   13   -0.10951      0.99955     2.10201    0.00795     3.10951
      C   14   -0.16431      0.99959     2.15550    0.00922     3.16431
      C   15   -0.00870      0.99961     1.99686    0.01222     3.00870
      N   16   -0.23956      0.99966     2.73213    0.00777     3.73956
      H   17    0.08133      0.00000     0.41737    0.00130     0.41867
      H   18    0.10103      0.00000     0.39749    0.00148     0.39897
      H   19    0.09258      0.00000     0.40643    0.00100     0.40742
      H   20    0.18088      0.00000     0.31307    0.00605     0.31912
      H   21    0.09949      0.00000     0.39887    0.00165     0.40051
      H   22    0.09571      0.00000     0.40348    0.00081     0.40429
      H   23    0.09611      0.00000     0.40307    0.00082     0.40389
      H   24    0.10511      0.00000     0.39349    0.00139     0.39489
      H   25    0.19933      0.00000     0.29786    0.00281     0.30067
      H   26    0.11082      0.00000     0.38823    0.00096     0.38918
      H   27    0.09905      0.00000     0.40013    0.00081     0.40095
      H   28    0.09208      0.00000     0.40705    0.00087     0.40792
      H   29    0.20796      0.00000     0.29025    0.00179     0.29204
 =======================================================================
   * Total *   -0.00000     15.99346    40.81652    0.19002    57.00000

 Normal termination of Gaussian 16 at Thu Dec 10 21:45:59 2020.
