 Gaussian 16, Revision A.03,

 -----------------------------------------------------------
 # opt freq B3LYP/6-31G(d) empiricaldispersion=gd3bj scf=xqc
 -----------------------------------------------------------

 -------------------------------
 CID_114537994_JID_5736_neutraal
 -------------------------------
 Symbolic Z-matrix:
 Charge =  0 Multiplicity = 1

 SCF Done:  E(RB3LYP) =  -635.381542819     A.U. after   15 cycles
 SCF Done:  E(RB3LYP) =  -635.406869416     A.U. after   13 cycles
 SCF Done:  E(RB3LYP) =  -635.408543838     A.U. after   12 cycles
 SCF Done:  E(RB3LYP) =  -635.408881408     A.U. after   12 cycles
 SCF Done:  E(RB3LYP) =  -635.409149874     A.U. after   12 cycles
 SCF Done:  E(RB3LYP) =  -635.409182971     A.U. after   11 cycles
 SCF Done:  E(RB3LYP) =  -635.409253868     A.U. after   10 cycles
 SCF Done:  E(RB3LYP) =  -635.409286433     A.U. after   11 cycles
 SCF Done:  E(RB3LYP) =  -635.409302149     A.U. after   11 cycles
 SCF Done:  E(RB3LYP) =  -635.409311695     A.U. after    9 cycles
 SCF Done:  E(RB3LYP) =  -635.409323900     A.U. after    9 cycles
 SCF Done:  E(RB3LYP) =  -635.409325366     A.U. after    8 cycles
 SCF Done:  E(RB3LYP) =  -635.409325716     A.U. after    7 cycles
 SCF Done:  E(RB3LYP) =  -635.409325964     A.U. after    8 cycles
 Optimization completed.
    -- Stationary point found.
 Normal termination of Gaussian 16 at Thu Dec 10 16:48:02 2020.

 --------------------------------------------------------------------
 #N Geom=AllCheck Guess=TCheck SCRF=Check GenChk RB3LYP/6-31G(d) Freq
 --------------------------------------------------------------------

 Structure from the checkpoint file:  "JID_5736.chk"
 -------------------------------
 CID_114537994_JID_5736_neutraal
 -------------------------------
 Charge =  0 Multiplicity = 1

 SCF Done:  E(RB3LYP) =  -635.409325964     A.U. after    1 cycles

  Exact polarizability: 154.649   0.686 138.508  -1.034   3.216 122.416
 Approx polarizability: 195.879   7.297 200.567   3.637  11.064 190.989

                      1                      2                      3
                      A                      A                      A
 Frequencies --     31.6137                51.6634                65.9306
 Red. masses --      3.7209                 3.0328                 4.1342
 Frc consts  --      0.0022                 0.0048                 0.0106
 IR Inten    --      0.8769                 1.0813                 5.1281

                      4                      5                      6
                      A                      A                      A
 Frequencies --     93.7776               112.1819               135.1370
 Red. masses --      3.1889                 2.7831                 2.5486
 Frc consts  --      0.0165                 0.0206                 0.0274
 IR Inten    --      0.2908                 0.7461                 1.5415

                      7                      8                      9
                      A                      A                      A
 Frequencies --    149.2030               201.7736               212.9210
 Red. masses --      3.9952                 1.5472                 1.1134
 Frc consts  --      0.0524                 0.0371                 0.0297
 IR Inten    --      2.6827                 0.1578                 0.1522

                     10                     11                     12
                      A                      A                      A
 Frequencies --    216.8618               231.1956               235.0172
 Red. masses --      1.8458                 1.3384                 1.8853
 Frc consts  --      0.0511                 0.0422                 0.0614
 IR Inten    --      0.3608                 0.3601                 0.0181

                     13                     14                     15
                      A                      A                      A
 Frequencies --    278.9222               294.0597               311.3794
 Red. masses --      2.3521                 2.6250                 1.3226
 Frc consts  --      0.1078                 0.1337                 0.0756
 IR Inten    --      2.2754                 5.7573                 0.7825

                     16                     17                     18
                      A                      A                      A
 Frequencies --    344.7668               349.3105               360.7457
 Red. masses --      2.7984                 2.7206                 4.3673
 Frc consts  --      0.1960                 0.1956                 0.3349
 IR Inten    --      1.2238                 0.4516                 2.3383

                     19                     20                     21
                      A                      A                      A
 Frequencies --    396.1228               403.1566               426.0744
 Red. masses --      2.4809                 2.9543                 2.2703
 Frc consts  --      0.2294                 0.2829                 0.2428
 IR Inten    --      0.4113                 0.4676                 1.3641

                     22                     23                     24
                      A                      A                      A
 Frequencies --    447.0669               471.8076               494.2743
 Red. masses --      2.2686                 2.0089                 4.8328
 Frc consts  --      0.2671                 0.2635                 0.6956
 IR Inten    --      0.4574                 5.5232                 1.5142

                     25                     26                     27
                      A                      A                      A
 Frequencies --    532.1023               610.5137               666.5945
 Red. masses --      2.4961                 3.2446                 2.9993
 Frc consts  --      0.4164                 0.7125                 0.7852
 IR Inten    --      7.6119                 1.6359                 2.4180

                     28                     29                     30
                      A                      A                      A
 Frequencies --    706.1762               725.6682               780.2727
 Red. masses --      3.4802                 2.4474                 2.2028
 Frc consts  --      1.0225                 0.7593                 0.7902
 IR Inten    --     13.9196                13.0669                 1.6868

                     31                     32                     33
                      A                      A                      A
 Frequencies --    821.9472               828.0136               846.6331
 Red. masses --      2.6267                 1.5751                 2.1935
 Frc consts  --      1.0456                 0.6362                 0.9264
 IR Inten    --      1.6410                 7.4639                 1.5672

                     34                     35                     36
                      A                      A                      A
 Frequencies --    894.0583               905.9351               921.3193
 Red. masses --      2.3836                 1.6696                 2.3705
 Frc consts  --      1.1226                 0.8073                 1.1855
 IR Inten    --      0.1494                 1.5149                 4.7473

                     37                     38                     39
                      A                      A                      A
 Frequencies --    942.5701               959.2134               978.5552
 Red. masses --      2.0931                 1.7302                 1.8814
 Frc consts  --      1.0956                 0.9379                 1.0614
 IR Inten    --      5.5153                 0.6228                 4.6798

                     40                     41                     42
                      A                      A                      A
 Frequencies --   1005.7237              1042.5882              1068.4117
 Red. masses --      2.0921                 1.8297                 2.4696
 Frc consts  --      1.2468                 1.1718                 1.6610
 IR Inten    --      4.8763                22.0357                12.9391

                     43                     44                     45
                      A                      A                      A
 Frequencies --   1081.3428              1084.7210              1111.2815
 Red. masses --      1.9239                 2.0493                 1.6703
 Frc consts  --      1.3254                 1.4207                 1.2153
 IR Inten    --      9.2553                68.0519                 2.1570

                     46                     47                     48
                      A                      A                      A
 Frequencies --   1115.6158              1129.7776              1140.0575
 Red. masses --      1.9868                 1.5733                 1.9468
 Frc consts  --      1.4569                 1.1831                 1.4908
 IR Inten    --      1.9893                20.0015                15.5578

                     49                     50                     51
                      A                      A                      A
 Frequencies --   1151.7572              1164.3034              1193.3067
 Red. masses --      2.1695                 1.4484                 2.7407
 Frc consts  --      1.6956                 1.1569                 2.2994
 IR Inten    --      9.8795                 5.1043                15.2836

                     52                     53                     54
                      A                      A                      A
 Frequencies --   1208.4052              1217.7217              1258.1991
 Red. masses --      3.0529                 2.1180                 1.8081
 Frc consts  --      2.6266                 1.8504                 1.6864
 IR Inten    --     11.7958                 3.6870                 5.6168

                     55                     56                     57
                      A                      A                      A
 Frequencies --   1272.6443              1288.4604              1315.4153
 Red. masses --      1.2882                 1.4768                 1.2544
 Frc consts  --      1.2293                 1.4445                 1.2788
 IR Inten    --     11.0373                 5.4470                23.3615

                     58                     59                     60
                      A                      A                      A
 Frequencies --   1338.6852              1341.4662              1364.4561
 Red. masses --      1.3660                 1.4449                 1.5043
 Frc consts  --      1.4423                 1.5320                 1.6501
 IR Inten    --     12.8259                16.9034                 3.5753

                     61                     62                     63
                      A                      A                      A
 Frequencies --   1368.1148              1387.7377              1401.7514
 Red. masses --      1.3526                 1.2436                 1.2509
 Frc consts  --      1.4917                 1.4111                 1.4482
 IR Inten    --      6.9688                 7.2089                11.4725

                     64                     65                     66
                      A                      A                      A
 Frequencies --   1402.9519              1407.5227              1412.3636
 Red. masses --      1.2556                 1.3688                 1.5104
 Frc consts  --      1.4561                 1.5978                 1.7752
 IR Inten    --      4.9192                 3.5284                 9.7881

                     67                     68                     69
                      A                      A                      A
 Frequencies --   1426.2987              1433.6799              1440.0167
 Red. masses --      1.2850                 1.2996                 1.2827
 Frc consts  --      1.5402                 1.5739                 1.5671
 IR Inten    --      1.9892                10.0744                17.4431

                     70                     71                     72
                      A                      A                      A
 Frequencies --   1443.7922              1447.8628              1496.6659
 Red. masses --      1.2494                 1.3748                 1.1906
 Frc consts  --      1.5345                 1.6980                 1.5713
 IR Inten    --      8.4203                29.8122                 2.8172

                     73                     74                     75
                      A                      A                      A
 Frequencies --   1498.7064              1505.5499              1512.8365
 Red. masses --      1.0842                 1.0827                 1.0515
 Frc consts  --      1.4348                 1.4459                 1.4179
 IR Inten    --      9.7495                 5.4787                 3.0128

                     76                     77                     78
                      A                      A                      A
 Frequencies --   1517.7896              1522.7011              1525.6386
 Red. masses --      1.0620                 1.0569                 1.0502
 Frc consts  --      1.4414                 1.4439                 1.4402
 IR Inten    --      6.0897                 7.2480                 6.4623

                     79                     80                     81
                      A                      A                      A
 Frequencies --   1530.2812              1533.1501              1534.1812
 Red. masses --      1.0583                 1.0584                 1.0755
 Frc consts  --      1.4601                 1.4658                 1.4915
 IR Inten    --      4.0800                 4.2277                16.8499

                     82                     83                     84
                      A                      A                      A
 Frequencies --   1543.1975              1545.5533              1547.8951
 Red. masses --      1.0488                 1.0554                 1.0561
 Frc consts  --      1.4716                 1.4854                 1.4909
 IR Inten    --      1.7063                 7.8881                 6.5328

                     85                     86                     87
                      A                      A                      A
 Frequencies --   2370.7655              2953.9062              2958.0836
 Red. masses --     12.5967                 1.0613                 1.0793
 Frc consts  --     41.7141                 5.4559                 5.5643
 IR Inten    --      7.9155                34.4417                74.9008

                     88                     89                     90
                      A                      A                      A
 Frequencies --   3019.5401              3026.3512              3039.4278
 Red. masses --      1.0730                 1.0750                 1.0827
 Frc consts  --      5.7643                 5.8010                 5.8930
 IR Inten    --     13.2551                32.0681                33.7305

                     91                     92                     93
                      A                      A                      A
 Frequencies --   3044.2032              3045.7257              3053.6667
 Red. masses --      1.0806                 1.0389                 1.0441
 Frc consts  --      5.9004                 5.6779                 5.7361
 IR Inten    --     90.9033                16.0355                28.4087

                     94                     95                     96
                      A                      A                      A
 Frequencies --   3058.4084              3071.0378              3073.4747
 Red. masses --      1.0455                 1.0616                 1.0714
 Frc consts  --      5.7621                 5.8992                 5.9631
 IR Inten    --     13.3813                22.8340                55.4376

                     97                     98                     99
                      A                      A                      A
 Frequencies --   3092.9625              3098.9023              3114.5115
 Red. masses --      1.0691                 1.0929                 1.0982
 Frc consts  --      6.0260                 6.1839                 6.2764
 IR Inten    --      4.8315                 0.7414                30.3637

                    100                    101                    102
                      A                      A                      A
 Frequencies --   3116.1396              3119.4860              3121.6608
 Red. masses --      1.1032                 1.0981                 1.0973
 Frc consts  --      6.3119                 6.2959                 6.3000
 IR Inten    --     23.4941                22.2653                14.7973

                    103                    104                    105
                      A                      A                      A
 Frequencies --   3124.2902              3126.9932              3129.8002
 Red. masses --      1.0972                 1.0978                 1.0968
 Frc consts  --      6.3102                 6.3246                 6.3301
 IR Inten    --     23.2452                23.3566                82.3595

                    106                    107                    108
                      A                      A                      A
 Frequencies --   3136.8666              3147.3676              3167.1242
 Red. masses --      1.0911                 1.1013                 1.0954
 Frc consts  --      6.3254                 6.4275                 6.4734
 IR Inten    --     26.3179                25.9165                41.6756

 - Thermochemistry -
 -------------------
 Temperature   298.150 Kelvin.  Pressure   1.00000 Atm.
 Atom     1 has atomic number  6 and mass  12.00000

 Molecular mass:   209.18920 amu.
 Principal axes and moments of inertia in atomic units:
                           1         2         3
     Eigenvalues --  1965.993744335.702755091.22099
           X            0.99914  -0.03997  -0.01143
           Y            0.03983   0.99913  -0.01215
           Z            0.01191   0.01168   0.99986
 This molecule is an asymmetric top.
 Rotational symmetry number  1.
 Warning -- assumption of classical behavior for rotation
           may cause significant error
 Rotational temperatures (Kelvin)      0.04406     0.01998     0.01701
 Rotational constants (GHZ):           0.91798     0.41625     0.35448
 Zero-point vibrational energy     908718.1 (Joules/Mol)
                                  217.18885 (Kcal/Mol)
 Warning -- explicit consideration of  26 degrees of freedom as
           vibrations may cause significant error
 Vibrational temperatures:     45.49    74.33    94.86   134.92   161.40
          (Kelvin)            194.43   214.67   290.31   306.35   312.02
                              332.64   338.14   401.31   423.09   448.01
                              496.04   502.58   519.03   569.93   580.05
                              613.03   643.23   678.83   711.15   765.58
                              878.39   959.08  1016.03  1044.07  1122.64
                             1182.60  1191.33  1218.12  1286.35  1303.44
                             1325.57  1356.15  1380.09  1407.92  1447.01
                             1500.05  1537.21  1555.81  1560.67  1598.89
                             1605.12  1625.50  1640.29  1657.12  1675.17
                             1716.90  1738.63  1752.03  1810.27  1831.05
                             1853.81  1892.59  1926.07  1930.07  1963.15
                             1968.41  1996.65  2016.81  2018.53  2025.11
                             2032.08  2052.13  2062.75  2071.86  2077.29
                             2083.15  2153.37  2156.30  2166.15  2176.63
                             2183.76  2190.83  2195.05  2201.73  2205.86
                             2207.34  2220.32  2223.71  2227.08  3411.00
                             4250.01  4256.02  4344.44  4354.24  4373.06
                             4379.93  4382.12  4393.55  4400.37  4418.54
                             4422.04  4450.08  4458.63  4481.09  4483.43
                             4488.24  4491.37  4495.16  4499.05  4503.08
                             4513.25  4528.36  4556.79

 Zero-point correction=                           0.346112 (Hartree/Particle)
 Thermal correction to Energy=                    0.362699
 Thermal correction to Enthalpy=                  0.363643
 Thermal correction to Gibbs Free Energy=         0.302534
 Sum of electronic and zero-point Energies=           -635.063214
 Sum of electronic and thermal Energies=              -635.046627
 Sum of electronic and thermal Enthalpies=            -635.045683
 Sum of electronic and thermal Free Energies=         -635.106792

                     E (Thermal)             CV                S
                      KCal/Mol        Cal/Mol-Kelvin    Cal/Mol-Kelvin
 Total                  227.597             63.356            128.614
 Electronic               0.000              0.000              0.000
 Translational            0.889              2.981             41.918
 Rotational               0.889              2.981             32.140
 Vibrational            225.819             57.394             54.556
 Vibration     1          0.594              1.983              5.725
 Vibration     2          0.596              1.977              4.753
 Vibration     3          0.597              1.971              4.271
 Vibration     4          0.603              1.954              3.580
 Vibration     5          0.607              1.939              3.231
 Vibration     6          0.613              1.918              2.872
 Vibration     7          0.618              1.904              2.682
 Vibration     8          0.639              1.837              2.117
 Vibration     9          0.644              1.821              2.018
 Vibration    10          0.646              1.815              1.985
 Vibration    11          0.653              1.793              1.870
 Vibration    12          0.655              1.787              1.840
 Vibration    13          0.679              1.713              1.540
 Vibration    14          0.689              1.685              1.450
 Vibration    15          0.700              1.652              1.355
 Vibration    16          0.723              1.586              1.190
 Vibration    17          0.727              1.577              1.169
 Vibration    18          0.735              1.553              1.119
 Vibration    19          0.763              1.478              0.977
 Vibration    20          0.769              1.463              0.951
 Vibration    21          0.788              1.414              0.872
 Vibration    22          0.806              1.367              0.805
 Vibration    23          0.829              1.313              0.733
 Vibration    24          0.850              1.263              0.673
 Vibration    25          0.887              1.179              0.583
 Vibration    26          0.970              1.010              0.432

                           ! Non-Optimized Parameters !
 Normal termination of Gaussian 16 at Thu Dec 10 17:02:53 2020.

 ----------------------------------------------------------------------
 # B3LYP/6-311++G(d,p) empiricaldispersion=gd3bj scf=xqc pop=npa geom=c
 heck
 ----------------------------------------------------------------------

 ---------------------------------------
 CID_114537994_JID_5736_Energie_neutraal
 ---------------------------------------
 Structure from the checkpoint file:  "JID_5736.chk"
 Charge =  0 Multiplicity = 1

 SCF Done:  E(RB3LYP) =  -635.583868658     A.U. after   14 cycles
 Normal termination of Gaussian 16 at Thu Dec 10 17:10:32 2020.

 ----------------------------------------------------------------------
 # B3LYP/6-311++G(d,p) empiricaldispersion=gd3bj scf=xqc pop=npa geom=c
 heck
 ----------------------------------------------------------------------

 -------------------------------------
 CID_114537994_JID_5736_Energie_kation
 -------------------------------------
 Structure from the checkpoint file:  "JID_5736.chk"
 Charge =  1 Multiplicity = 2

 SCF Done:  E(UB3LYP) =  -635.324972446     A.U. after   19 cycles
 Normal termination of Gaussian 16 at Thu Dec 10 17:23:55 2020.
 Gaussian 16:  ES64L-G16RevA.03 25-Dec-2016

 ----------------------------------------------------------------------
 # B3LYP/6-311++G(d,p) empiricaldispersion=gd3bj scf=xqc pop=npa geom=c
 heck
 ----------------------------------------------------------------------

 ------------------------------------
 CID_114537994_JID_5736_Energie_anion
 ------------------------------------
 Structure from the checkpoint file:  "JID_5736.chk"
 Charge = -1 Multiplicity = 2

                         Standard orientation:
 ---------------------------------------------------------------------
 Center     Atomic      Atomic             Coordinates (Angstroms)
 Number     Number       Type             X           Y           Z
 ---------------------------------------------------------------------
      1          6           0       -3.356366    1.979976    0.289220
      2          6           0       -2.271922    1.331495   -0.576317
      3          6           0       -1.284470    0.437627    0.203688
      4          6           0       -2.047813   -0.727915    0.870714
      5          6           0       -2.723517   -1.608568   -0.085051
      6          7           0       -3.263208   -2.303041   -0.842258
      7          7           0       -0.228603   -0.038255   -0.694781
      8          6           0        0.720192    0.955327   -1.198240
      9          6           0        1.983774    1.155785   -0.328938
     10          7           0        2.632765   -0.122696    0.038233
     11          6           0        1.703786   -1.192640    0.465671
     12          6           0        0.478106   -1.297775   -0.465292
     13          6           0        1.336495   -1.080989    1.950906
     14          6           0        3.564230   -0.582795   -0.986830
     15          6           0        1.762776    2.057977    0.892799
     16          1           0       -4.078741    1.249328    0.668949
     17          1           0       -3.921719    2.715220   -0.292414
     18          1           0       -2.921078    2.503371    1.150001
     19          1           0       -2.720428    0.727459   -1.373226
     20          1           0       -1.708036    2.126007   -1.073987
     21          1           0       -0.892681    1.031841    1.047817
     22          1           0       -1.383229   -1.328281    1.497316
     23          1           0       -2.802202   -0.305485    1.541214
     24          1           0        1.038871    0.617408   -2.194820
     25          1           0        0.219954    1.915844   -1.342396
     26          1           0        2.707767    1.683106   -0.963110
     27          1           0        2.263732   -2.130254    0.358474
     28          1           0       -0.208671   -2.071593   -0.117565
     29          1           0        0.827375   -1.635248   -1.451333
     30          1           0        0.842765   -2.001381    2.286650
     31          1           0        2.241942   -0.936503    2.547263
     32          1           0        0.663217   -0.247237    2.161389
     33          1           0        3.100478   -0.856680   -1.952537
     34          1           0        4.301966    0.202321   -1.184034
     35          1           0        4.104198   -1.461318   -0.617574
     36          1           0        2.702847    2.170005    1.441392
     37          1           0        1.423711    3.050503    0.572311
     38          1           0        1.019649    1.664479    1.587879
 ---------------------------------------------------------------------

 SCF Done:  E(UB3LYP) =  -635.573393588     A.U. after   31 cycles

 The electronic state is 2-A.
 Alpha  occ. eigenvalues --  -14.21906 -14.21055 -14.20523 -10.12441 -10.12036
 Alpha  occ. eigenvalues --  -10.11975 -10.10343 -10.10145 -10.09835 -10.09623
 Alpha  occ. eigenvalues --  -10.09352 -10.07367 -10.06788 -10.06327 -10.05803
 Alpha  occ. eigenvalues --   -0.85155  -0.81858  -0.80778  -0.71874  -0.69312
 Alpha  occ. eigenvalues --   -0.66089  -0.65208  -0.60209  -0.59089  -0.56901
 Alpha  occ. eigenvalues --   -0.53561  -0.51921  -0.49591  -0.44633  -0.41671
 Alpha  occ. eigenvalues --   -0.40907  -0.39433  -0.38551  -0.36606  -0.35957
 Alpha  occ. eigenvalues --   -0.35379  -0.34797  -0.33525  -0.32162  -0.31935
 Alpha  occ. eigenvalues --   -0.31304  -0.30733  -0.30032  -0.28883  -0.28216
 Alpha  occ. eigenvalues --   -0.28045  -0.27427  -0.26829  -0.25693  -0.25284
 Alpha  occ. eigenvalues --   -0.24981  -0.24310  -0.23755  -0.23533  -0.23180
 Alpha  occ. eigenvalues --   -0.22235  -0.14238  -0.09514   0.04039
 Alpha virt. eigenvalues --    0.05984   0.06520   0.07599   0.08047   0.08321
 Alpha virt. eigenvalues --    0.09142   0.09663   0.10034   0.10418   0.10580
 Alpha virt. eigenvalues --    0.11340   0.11553   0.12004   0.12328   0.12406

  Beta  occ. eigenvalues --  -14.21899 -14.21057 -14.20517 -10.12429 -10.12009
  Beta  occ. eigenvalues --  -10.11970 -10.10333 -10.10134 -10.09823 -10.09610
  Beta  occ. eigenvalues --  -10.09329 -10.07355 -10.06750 -10.06299 -10.05774
  Beta  occ. eigenvalues --   -0.85142  -0.81842  -0.80765  -0.71842  -0.69284
  Beta  occ. eigenvalues --   -0.66043  -0.65174  -0.60165  -0.59043  -0.56839
  Beta  occ. eigenvalues --   -0.53506  -0.51870  -0.49540  -0.44596  -0.41615
  Beta  occ. eigenvalues --   -0.40868  -0.39395  -0.38525  -0.36577  -0.35921
  Beta  occ. eigenvalues --   -0.35342  -0.34767  -0.33492  -0.32126  -0.31910
  Beta  occ. eigenvalues --   -0.31269  -0.30702  -0.29998  -0.28846  -0.28190
  Beta  occ. eigenvalues --   -0.28018  -0.27411  -0.26780  -0.25660  -0.25254
  Beta  occ. eigenvalues --   -0.24952  -0.24278  -0.23722  -0.23505  -0.23152
  Beta  occ. eigenvalues --   -0.22206  -0.14217  -0.09496
  Beta virt. eigenvalues --    0.06126   0.06829   0.07317   0.08008   0.08523
  Beta virt. eigenvalues --    0.08861   0.09592   0.09974   0.10240   0.10779
  Beta virt. eigenvalues --    0.10848   0.11472   0.11677   0.12324   0.12529

 Mulliken charges and spin densities:
               1          2
     1  C    0.722319  -1.490839
     2  C   -1.156885   1.156863
     3  C    0.014546  -0.414846
     4  C   -0.015924   0.252691
     5  C    0.230256  -0.692269
     6  N   -0.305202   0.035208
     7  N    0.213807   0.059755
     8  C    0.760827  -1.215651
     9  C   -1.747696   1.723058
    10  N    0.307085  -0.094385
    11  C   -1.738556   1.588219
    12  C    0.840491  -1.254045
    13  C    0.968099  -1.547222
    14  C    0.533634  -0.736711
    15  C    1.062941  -1.666389
    16  H    0.100014   0.038840
    17  H   -0.194326   0.338588
    18  H   -0.498705   0.657157
    19  H    0.135324   0.051028
    20  H   -0.122222   0.258646
    21  H    0.776455  -0.590220
    22  H   -0.013526   0.181206
    23  H   -0.541810   0.763485
    24  H    0.102325   0.081776
    25  H   -0.081061   0.193489
    26  H   -0.340283   0.528839
    27  H   -0.128496   0.310060
    28  H    0.121220   0.037643
    29  H    0.188120  -0.000262
    30  H   -0.089813   0.224426
    31  H    0.006007   0.161376
    32  H   -0.461101   0.616084
    33  H   -0.068050   0.180286
    34  H   -0.117219   0.255342
    35  H   -0.118657   0.253952
    36  H   -0.048771   0.214129
    37  H   -0.138963   0.277501
    38  H   -0.156201   0.263193
 Sum of Mulliken charges =  -1.00000   1.00000

 Dipole moment (field-independent basis, Debye):
    X=              1.7718    Y=             -1.4746    Z=             -1.5322  Tot=              2.7679
 Quadrupole moment (field-independent basis, Debye-Ang):
   XX=           -167.4577   YY=           -150.4943   ZZ=           -138.2018
   XY=             -4.2002   XZ=              0.6768   YZ=             -4.7202

 Summary of Natural Population Analysis:

                                       Natural Population
                Natural  -----------------------------------------------
    Atom  No    Charge         Core      Valence    Rydberg      Total
 -----------------------------------------------------------------------
      C    1   -0.28819      0.99966     2.28348    0.00505     3.28819
      C    2   -0.19518      0.99961     2.18596    0.00961     3.19518
      C    3    0.00722      0.99956     1.97929    0.01393     2.99278
      C    4   -0.25738      0.99952     2.24761    0.01025     3.25738
      C    5    0.16456      0.99966     1.81842    0.01737     2.83544
      N    6   -0.18644      0.99979     2.67593    0.01072     3.68644
      N    7   -0.28961      0.99970     2.77679    0.01312     3.78961
      C    8   -0.08899      0.99958     2.07771    0.01170     3.08899
      C    9   -0.01158      0.99958     1.99854    0.01346     3.01158
      N   10   -0.28842      0.99971     2.77405    0.01466     3.78842
      C   11   -0.01132      0.99957     1.99909    0.01265     3.01132
      C   12   -0.09006      0.99958     2.07915    0.01133     3.09006
      C   13   -0.28939      0.99963     2.28299    0.00677     3.28939
      C   14   -0.17364      0.99963     2.16553    0.00848     3.17364
      C   15   -0.28566      0.99963     2.27960    0.00643     3.28566
      H   16    0.09481      0.00000     0.40393    0.00126     0.40519
      H   17    0.10186      0.00000     0.39735    0.00079     0.39814
      H   18    0.10064      0.00000     0.39782    0.00153     0.39936
      H   19    0.10174      0.00000     0.39683    0.00143     0.39826
      H   20    0.10013      0.00000     0.39849    0.00138     0.39987
      H   21    0.08812      0.00000     0.40857    0.00331     0.41188
      H   22    0.12574      0.00000     0.37231    0.00194     0.37426
      H   23    0.12854      0.00000     0.36972    0.00173     0.37146
      H   24    0.09428      0.00000     0.40459    0.00113     0.40572
      H   25    0.10053      0.00000     0.39809    0.00139     0.39947
      H   26    0.09464      0.00000     0.40344    0.00191     0.40536
      H   27    0.09380      0.00000     0.40451    0.00169     0.40620
      H   28    0.10008      0.00000     0.39846    0.00146     0.39992
      H   29    0.09616      0.00000     0.40265    0.00120     0.40384
      H   30    0.09687      0.00000     0.40208    0.00105     0.40313
      H   31    0.10586      0.00000     0.39278    0.00136     0.39414
      H   32    0.09586      0.00000     0.40226    0.00188     0.40414
      H   33    0.07886      0.00000     0.41978    0.00136     0.42114
      H   34    0.09503      0.00000     0.40390    0.00107     0.40497
      H   35    0.09367      0.00000     0.40527    0.00106     0.40633
      H   36    0.10277      0.00000     0.39583    0.00140     0.39723
      H   37    0.09858      0.00000     0.40031    0.00111     0.40142
      H   38    0.09550      0.00000     0.40256    0.00194     0.40450
 =======================================================================
   * Total *   -0.00000     14.99441    42.80566    0.19994    58.00000

 Normal termination of Gaussian 16 at Thu Dec 10 17:45:13 2020.
