 Gaussian 16, Revision A.03,

 -----------------------------------------------------------
 # opt freq B3LYP/6-31G(d) empiricaldispersion=gd3bj scf=xqc
 -----------------------------------------------------------

 -----------------------------
 CID_13461095_JID_671_neutraal
 -----------------------------
 Symbolic Z-matrix:
 Charge =  0 Multiplicity = 1

 SCF Done:  E(RB3LYP) =  -500.815560802     A.U. after   13 cycles
 SCF Done:  E(RB3LYP) =  -500.817430140     A.U. after   12 cycles
 SCF Done:  E(RB3LYP) =  -500.812315629     A.U. after   12 cycles
 SCF Done:  E(RB3LYP) =  -500.814339883     A.U. after   12 cycles
 SCF Done:  E(RB3LYP) =  -500.817487297     A.U. after    9 cycles
 SCF Done:  E(RB3LYP) =  -500.819462171     A.U. after   11 cycles
 SCF Done:  E(RB3LYP) =  -500.819320055     A.U. after   11 cycles
 SCF Done:  E(RB3LYP) =  -500.820027676     A.U. after   11 cycles
 SCF Done:  E(RB3LYP) =  -500.820087892     A.U. after   10 cycles
 SCF Done:  E(RB3LYP) =  -500.820117925     A.U. after    9 cycles
 SCF Done:  E(RB3LYP) =  -500.820137656     A.U. after   10 cycles
 SCF Done:  E(RB3LYP) =  -500.820140954     A.U. after    8 cycles
 SCF Done:  E(RB3LYP) =  -500.820145546     A.U. after    9 cycles
 SCF Done:  E(RB3LYP) =  -500.820146835     A.U. after    8 cycles
 SCF Done:  E(RB3LYP) =  -500.820147023     A.U. after    7 cycles
 Optimization completed.
    -- Stationary point found.

 1\1\GINC-NODE304\FOpt\RB3LYP\6-31G(d)\C7H14O3\VSC10255\08-Dec-2020\0\\
 # opt freq B3LYP/6-31G(d) empiricaldispersion=gd3bj scf=xqc\\CID_13461
 095_JID_671_neutraal\\0,1\C,0.9402387334,-0.0163113821,-0.1234490459\C
 ,0.166368451,-0.5146830166,-1.0878494927\C,-1.3318422599,-0.3987077845
 ,-1.0941963275\C,-1.8795804238,0.4526925846,-2.2538518537\C,-1.4125613
 238,0.053922396,-3.6738697769\C,-1.5046810418,-1.4289204832,-4.0683056
 049\O,-2.759404869,-2.0281152711,-3.7925439245\C,-3.4039626454,0.57904
 0075,-2.1607789978\O,-3.7132364238,1.1898846541,-0.9078070279\O,-1.933

 Normal termination of Gaussian 16 at Tue Dec  8 12:23:53 2020.

 --------------------------------------------------------------------
 #N Geom=AllCheck Guess=TCheck SCRF=Check GenChk RB3LYP/6-31G(d) Freq
 --------------------------------------------------------------------

 Structure from the checkpoint file:  "JID_671.chk"
 -----------------------------
 CID_13461095_JID_671_neutraal
 -----------------------------
 Charge =  0 Multiplicity = 1

 SCF Done:  E(RB3LYP) =  -500.820147023     A.U. after    1 cycles

  Exact polarizability: 101.770   0.369  82.114  -1.954   4.287  68.490
 Approx polarizability: 138.978   4.765 108.984  -7.009   4.679  99.685

                      1                      2                      3
                      A                      A                      A
 Frequencies --     74.9301                77.1110               105.3989
 Red. masses --      4.2985                 2.9124                 3.6031
 Frc consts  --      0.0142                 0.0102                 0.0236
 IR Inten    --      0.9944                 0.2470                 2.0904

                      4                      5                      6
                      A                      A                      A
 Frequencies --    132.4219               181.0285               193.3864
 Red. masses --      4.5808                 2.6944                 2.3889
 Frc consts  --      0.0473                 0.0520                 0.0526
 IR Inten    --      9.7635                 2.8870                16.9102

                      7                      8                      9
                      A                      A                      A
 Frequencies --    224.5274               238.6173               269.8806
 Red. masses --      1.2830                 3.9032                 2.2451
 Frc consts  --      0.0381                 0.1309                 0.0963
 IR Inten    --     93.9546                 6.8793                15.4836

                     10                     11                     12
                      A                      A                      A
 Frequencies --    298.5996               308.1970               341.3684
 Red. masses --      2.4283                 1.2563                 2.3743
 Frc consts  --      0.1276                 0.0703                 0.1630
 IR Inten    --      9.1197                78.0942                 4.9758

                     13                     14                     15
                      A                      A                      A
 Frequencies --    377.8801               417.4922               484.9615
 Red. masses --      2.5013                 4.0026                 3.0706
 Frc consts  --      0.2104                 0.4110                 0.4255
 IR Inten    --      1.6205                 5.6731                 9.7020

                     16                     17                     18
                      A                      A                      A
 Frequencies --    533.6333               666.1998               691.4336
 Red. masses --      2.6763                 1.4283                 1.5805
 Frc consts  --      0.4490                 0.3735                 0.4452
 IR Inten    --     11.1924                85.7102                19.5200

                     19                     20                     21
                      A                      A                      A
 Frequencies --    734.6592               789.5387               843.2314
 Red. masses --      2.1947                 2.4736                 1.8681
 Frc consts  --      0.6979                 0.9085                 0.7826
 IR Inten    --     44.9990                14.0476                 3.9494

                     22                     23                     24
                      A                      A                      A
 Frequencies --    911.7723               954.6581               959.8172
 Red. masses --      2.3329                 1.9030                 1.3574
 Frc consts  --      1.1427                 1.0218                 0.7368
 IR Inten    --      6.5095                18.7139                35.5283

                     25                     26                     27
                      A                      A                      A
 Frequencies --    990.6285              1013.8843              1034.4315
 Red. masses --      2.1666                 1.7818                 2.0788
 Frc consts  --      1.2527                 1.0791                 1.3106
 IR Inten    --     21.0398                57.4070                50.3938

                     28                     29                     30
                      A                      A                      A
 Frequencies --   1039.1109              1076.3025              1108.6255
 Red. masses --      1.1319                 6.1003                 2.3352
 Frc consts  --      0.7201                 4.1636                 1.6910
 IR Inten    --      6.9537                83.5802                19.3691

                     31                     32                     33
                      A                      A                      A
 Frequencies --   1111.7128              1151.7618              1181.4492
 Red. masses --      2.5227                 2.3863                 1.7485
 Frc consts  --      1.8369                 1.8651                 1.4380
 IR Inten    --     18.2457                51.4147                13.9736

                     34                     35                     36
                      A                      A                      A
 Frequencies --   1216.2104              1230.9838              1268.6951
 Red. masses --      1.2427                 1.2765                 1.1310
 Frc consts  --      1.0830                 1.1397                 1.0726
 IR Inten    --     11.8289                11.9014                44.5418

                     37                     38                     39
                      A                      A                      A
 Frequencies --   1284.2575              1310.0540              1328.5191
 Red. masses --      1.1229                 1.2223                 1.2898
 Frc consts  --      1.0912                 1.2360                 1.3412
 IR Inten    --     43.3261                 8.5832                 4.3389

                     40                     41                     42
                      A                      A                      A
 Frequencies --   1349.4083              1364.8822              1393.8574
 Red. masses --      1.2766                 1.3175                 1.4158
 Frc consts  --      1.3696                 1.4460                 1.6206
 IR Inten    --     21.1675                 1.3422                 1.9916

                     43                     44                     45
                      A                      A                      A
 Frequencies --   1400.1934              1430.9305              1442.5443
 Red. masses --      1.2647                 1.4563                 1.3002
 Frc consts  --      1.4609                 1.7569                 1.5941
 IR Inten    --      0.4924                 0.0630                 6.1019

                     46                     47                     48
                      A                      A                      A
 Frequencies --   1467.0358              1472.3345              1481.9398
 Red. masses --      1.3988                 1.2122                 1.2381
 Frc consts  --      1.7738                 1.5482                 1.6020
 IR Inten    --      0.6603                89.6037                10.7383

                     49                     50                     51
                      A                      A                      A
 Frequencies --   1515.0308              1533.4142              1548.9483
 Red. masses --      1.0855                 1.0861                 1.0878
 Frc consts  --      1.4680                 1.5046                 1.5377
 IR Inten    --      8.4040                 1.5235                 3.1504

                     52                     53                     54
                      A                      A                      A
 Frequencies --   1729.2967              3004.7231              3012.4636
 Red. masses --      4.4766                 1.0719                 1.0682
 Frc consts  --      7.8874                 5.7019                 5.7117
 IR Inten    --      1.2203                57.9220                53.2179

                     55                     56                     57
                      A                      A                      A
 Frequencies --   3032.3337              3045.1386              3061.8248
 Red. masses --      1.0693                 1.0751                 1.0852
 Frc consts  --      5.7928                 5.8735                 5.9939
 IR Inten    --      9.4575                26.9437                27.5933

                     58                     59                     60
                      A                      A                      A
 Frequencies --   3071.9153              3085.4703              3107.9058
 Red. masses --      1.0979                 1.0998                 1.0918
 Frc consts  --      6.1045                 6.1689                 6.2133
 IR Inten    --     37.7787                86.6613                32.8977

                     61                     62                     63
                      A                      A                      A
 Frequencies --   3156.0327              3171.2912              3238.9838
 Red. masses --      1.0587                 1.0917                 1.1157
 Frc consts  --      6.2131                 6.4686                 6.8960
 IR Inten    --     12.5879                 7.9904                16.2084

                     64                     65                     66
                      A                      A                      A
 Frequencies --   3663.3729              3755.8929              3766.9366
 Red. masses --      1.0649                 1.0665                 1.0666
 Frc consts  --      8.4203                 8.8638                 8.9171
 IR Inten    --    149.9705                21.7627                18.0328

 - Thermochemistry -
 -------------------
 Temperature   298.150 Kelvin.  Pressure   1.00000 Atm.
 Atom     1 has atomic number  6 and mass  12.00000

 Molecular mass:   146.09429 amu.
 Principal axes and moments of inertia in atomic units:
                           1         2         3
     Eigenvalues --  1318.367051652.260802272.02603
           X            0.99912  -0.04085   0.00934
           Y            0.04064   0.99893   0.02221
           Z           -0.01024  -0.02181   0.99971
 This molecule is an asymmetric top.
 Rotational symmetry number  1.
 Warning -- assumption of classical behavior for rotation
           may cause significant error
 Rotational temperatures (Kelvin)      0.06570     0.05242     0.03812
 Rotational constants (GHZ):           1.36892     1.09229     0.79433
 Zero-point vibrational energy     553042.4 (Joules/Mol)
                                  132.18031 (Kcal/Mol)
 Warning -- explicit consideration of  16 degrees of freedom as
           vibrations may cause significant error
 Vibrational temperatures:    107.81   110.95   151.65   190.53   260.46
          (Kelvin)            278.24   323.04   343.32   388.30   429.62
                              443.43   491.15   543.69   600.68   697.75
                              767.78   958.51   994.82  1057.01  1135.97
                             1213.22  1311.84  1373.54  1380.96  1425.29
                             1458.75  1488.32  1495.05  1548.56  1595.06
                             1599.51  1657.13  1699.84  1749.86  1771.11
                             1825.37  1847.76  1884.88  1911.44  1941.50
                             1963.76  2005.45  2014.57  2058.79  2075.50
                             2110.74  2118.36  2132.18  2179.79  2206.24
                             2228.59  2488.07  4323.13  4334.26  4362.85
                             4381.28  4405.28  4419.80  4439.30  4471.58
                             4540.83  4562.78  4660.18  5270.78  5403.89
                             5419.78

 Zero-point correction=                           0.210643 (Hartree/Particle)
 Thermal correction to Energy=                    0.222380
 Thermal correction to Enthalpy=                  0.223324
 Thermal correction to Gibbs Free Energy=         0.173518
 Sum of electronic and zero-point Energies=           -500.609504
 Sum of electronic and thermal Energies=              -500.597767
 Sum of electronic and thermal Enthalpies=            -500.596823
 Sum of electronic and thermal Free Energies=         -500.646630

                     E (Thermal)             CV                S
                      KCal/Mol        Cal/Mol-Kelvin    Cal/Mol-Kelvin
 Total                  139.546             43.046            104.827
 Electronic               0.000              0.000              0.000
 Translational            0.889              2.981             40.848
 Rotational               0.889              2.981             29.983
 Vibrational            137.768             37.084             33.997
 Vibration     1          0.599              1.966              4.019
 Vibration     2          0.599              1.964              3.963
 Vibration     3          0.605              1.945              3.352
 Vibration     4          0.613              1.921              2.911
 Vibration     5          0.630              1.866              2.318
 Vibration     6          0.635              1.849              2.195
 Vibration     7          0.649              1.804              1.922
 Vibration     8          0.657              1.781              1.813
 Vibration     9          0.674              1.729              1.597
 Vibration    10          0.692              1.676              1.425
 Vibration    11          0.698              1.658              1.372
 Vibration    12          0.721              1.593              1.206
 Vibration    13          0.748              1.517              1.048
 Vibration    14          0.781              1.432              0.901
 Vibration    15          0.841              1.283              0.697
 Vibration    16          0.889              1.176              0.579

                           ! Non-Optimized Parameters !

 1\1\GINC-NODE304\Freq\RB3LYP\6-31G(d)\C7H14O3\VSC10255\08-Dec-2020\0\\
 #N Geom=AllCheck Guess=TCheck SCRF=Check GenChk RB3LYP/6-31G(d) Freq\\
 CID_13461095_JID_671_neutraal\\0,1\C,0.9402387334,-0.0163113821,-0.123
 4490459\C,0.166368451,-0.5146830166,-1.0878494927\C,-1.3318422599,-0.3
 987077845,-1.0941963275\C,-1.8795804238,0.4526925846,-2.2538518537\C,-
 1.4125613238,0.053922396,-3.6738697769\C,-1.5046810418,-1.4289204832,-
 4.0683056049\O,-2.759404869,-2.0281152711,-3.7925439245\C,-3.403962645
 4,0.579040075,-2.1607789978\O,-3.7132364238,1.1898846541,-0.9078070279

 Normal termination of Gaussian 16 at Tue Dec  8 12:29:20 2020.

 ----------------------------------------------------------------------
 # B3LYP/6-311++G(d,p) empiricaldispersion=gd3bj scf=xqc pop=npa geom=c
 heck
 ----------------------------------------------------------------------

 -------------------------------------
 CID_13461095_JID_671_Energie_neutraal
 -------------------------------------
 Structure from the checkpoint file:  "JID_671.chk"
 Charge =  0 Multiplicity = 1

 SCF Done:  E(RB3LYP) =  -500.998899793     A.U. after   13 cycles
 Normal termination of Gaussian 16 at Tue Dec  8 12:40:40 2020.

 ----------------------------------------------------------------------
 # B3LYP/6-311++G(d,p) empiricaldispersion=gd3bj scf=xqc pop=npa geom=c
 heck
 ----------------------------------------------------------------------

 -----------------------------------
 CID_13461095_JID_671_Energie_kation
 -----------------------------------
 Structure from the checkpoint file:  "JID_671.chk"
 Charge =  1 Multiplicity = 2

 SCF Done:  E(UB3LYP) =  -500.667434033     A.U. after   21 cycles
 Normal termination of Gaussian 16 at Tue Dec  8 12:49:37 2020.
 Gaussian 16:  ES64L-G16RevA.03 25-Dec-2016

 ----------------------------------
 CID_13461095_JID_671_Energie_anion
 ----------------------------------
 Structure from the checkpoint file:  "JID_671.chk"
 Charge = -1 Multiplicity = 2

                         Standard orientation:
 ---------------------------------------------------------------------
 Center     Atomic      Atomic             Coordinates (Angstroms)
 Number     Number       Type             X           Y           Z
 ---------------------------------------------------------------------
      1          6           0        3.277583   -0.428420   -0.267690
      2          6           0        1.994809   -0.745850   -0.091486
      3          6           0        0.945779    0.241288    0.336553
      4          6           0       -0.134851    0.494265   -0.730190
      5          6           0       -0.843030   -0.759598   -1.295774
      6          6           0       -1.377370   -1.794359   -0.292459
      7          8           0       -2.152434   -1.241193    0.757633
      8          6           0       -1.131995    1.554656   -0.250979
      9          8           0       -0.400288    2.753143    0.007777
     10          8           0        0.292860   -0.216623    1.543956
     11          1           0        3.636855    0.586937   -0.111617
     12          1           0        4.014126   -1.161579   -0.584651
     13          1           0        1.657627   -1.768954   -0.250944
     14          1           0        1.418803    1.208809    0.543112
     15          1           0        0.405489    0.956335   -1.567586
     16          1           0       -1.678056   -0.408819   -1.915598
     17          1           0       -0.156658   -1.281092   -1.976518
     18          1           0       -2.026618   -2.495677   -0.829165
     19          1           0       -0.543049   -2.381540    0.119075
     20          1           0       -1.493809   -0.854546    1.363604
     21          1           0       -1.878781    1.716861   -1.043853
     22          1           0       -1.666122    1.209067    0.639034
     23          1           0       -0.980651    3.352921    0.498207
     24          1           0        0.984192   -0.413228    2.194136
 ---------------------------------------------------------------------

 SCF Done:  E(UB3LYP) =  -500.984315387     A.U. after   33 cycles
 SCF Done:  E(UB3LYP) =  -500.984315387     a.u. after    1 cycles

 The electronic state is 2-A.
 Alpha  occ. eigenvalues --  -19.02089 -19.00999 -18.99801 -10.11478 -10.10419
 Alpha  occ. eigenvalues --  -10.09954 -10.06998 -10.06878 -10.06370 -10.06262
 Alpha  occ. eigenvalues --   -0.92270  -0.90886  -0.90143  -0.70628  -0.66751
 Alpha  occ. eigenvalues --   -0.61414  -0.56465  -0.51931  -0.47341  -0.44672
 Alpha  occ. eigenvalues --   -0.42794  -0.40439  -0.38983  -0.35768  -0.34560
 Alpha  occ. eigenvalues --   -0.34371  -0.32775  -0.31450  -0.30336  -0.28334
 Alpha  occ. eigenvalues --   -0.27196  -0.25814  -0.24689  -0.23193  -0.21247
 Alpha  occ. eigenvalues --   -0.20998  -0.18477  -0.17089  -0.16089  -0.15290
 Alpha  occ. eigenvalues --    0.04811
 Alpha virt. eigenvalues --    0.06881   0.07839   0.08229   0.09070   0.09455
 Alpha virt. eigenvalues --    0.10282   0.10580   0.11504   0.12470   0.12699
 Alpha virt. eigenvalues --    0.13786   0.14423   0.15161   0.16055   0.17084

  Beta  occ. eigenvalues --  -19.02028 -19.00962 -18.99792 -10.11460 -10.10409
  Beta  occ. eigenvalues --  -10.09932 -10.06996 -10.06864 -10.06364 -10.06186
  Beta  occ. eigenvalues --   -0.92155  -0.90805  -0.90108  -0.70568  -0.66678
  Beta  occ. eigenvalues --   -0.61366  -0.56356  -0.51887  -0.47229  -0.44598
  Beta  occ. eigenvalues --   -0.42729  -0.40364  -0.38922  -0.35714  -0.34511
  Beta  occ. eigenvalues --   -0.34314  -0.32727  -0.31422  -0.30290  -0.28293
  Beta  occ. eigenvalues --   -0.27144  -0.25771  -0.24644  -0.23159  -0.21220
  Beta  occ. eigenvalues --   -0.20958  -0.18396  -0.17014  -0.15973  -0.15215
  Beta virt. eigenvalues --    0.07258   0.08006   0.08428   0.09112   0.09524
  Beta virt. eigenvalues --    0.10078   0.10645   0.10897   0.11906   0.12667
  Beta virt. eigenvalues --    0.13024   0.14136   0.14672   0.15441   0.16259

 Mulliken charges and spin densities:
               1          2
     1  C    1.490979  -2.200641
     2  C   -3.381108   3.751422
     3  C    3.060494  -3.318546
     4  C   -1.264317   1.600452
     5  C    0.054438  -0.472534
     6  C   -0.000460  -0.462516
     7  O   -0.249738  -0.014786
     8  C    1.591755  -2.249013
     9  O   -0.304909   0.043559
    10  O   -0.451336   0.174828
    11  H   -0.209991   0.317434
    12  H   -0.491160   0.622643
    13  H   -0.378261   0.535678
    14  H    0.240428   0.012143
    15  H   -0.196247   0.433847
    16  H    0.030449   0.117401
    17  H    0.018844   0.112074
    18  H   -0.075283   0.219898
    19  H   -0.008039   0.177882
    20  H    0.323252  -0.047791
    21  H   -0.142299   0.291751
    22  H   -0.190074   0.349056
    23  H   -0.171700   0.429224
    24  H   -0.295716   0.576537
 Sum of Mulliken charges =  -1.00000   1.00000

 Dipole moment (field-independent basis, Debye):
    X=             -1.6146    Y=             -1.5514    Z=             -1.8704  Tot=              2.9175
 Quadrupole moment (field-independent basis, Debye-Ang):
   XX=           -111.2273   YY=           -104.4025   ZZ=            -95.0904
   XY=              6.0137   XZ=              3.6730   YZ=              1.9691

 Summary of Natural Population Analysis:

                                       Natural Population
                Natural  -----------------------------------------------
    Atom  No    Charge         Core      Valence    Rydberg      Total
 -----------------------------------------------------------------------
      C    1   -0.16774      0.99956     2.16169    0.00649     3.16774
      C    2   -0.10510      0.99953     2.09274    0.01282     3.10510
      C    3    0.04653      0.99949     1.93738    0.01659     2.95347
      C    4   -0.12606      0.99956     2.11266    0.01384     3.12606
      C    5   -0.20195      0.99960     2.19430    0.00804     3.20195
      C    6   -0.01051      0.99960     1.99868    0.01223     3.01051
      O    7   -0.38409      0.99990     3.37686    0.00733     4.38409
      C    8   -0.00730      0.99955     1.99401    0.01374     3.00730
      O    9   -0.37442      0.99989     3.36803    0.00649     4.37442
      O   10   -0.38848      0.99988     3.38054    0.00805     4.38848
      H   11    0.09045      0.00000     0.40804    0.00151     0.40955
      H   12    0.09351      0.00000     0.40492    0.00157     0.40649
      H   13    0.09406      0.00000     0.40421    0.00172     0.40594
      H   14    0.09498      0.00000     0.40232    0.00269     0.40502
      H   15    0.10688      0.00000     0.39127    0.00186     0.39312
      H   16    0.09746      0.00000     0.40110    0.00144     0.40254
      H   17    0.10055      0.00000     0.39821    0.00124     0.39945
      H   18    0.08054      0.00000     0.41818    0.00128     0.41946
      H   19    0.07720      0.00000     0.42106    0.00174     0.42280
      H   20    0.24443      0.00000     0.25183    0.00374     0.25557
      H   21    0.07536      0.00000     0.42301    0.00163     0.42464
      H   22    0.08858      0.00000     0.40961    0.00182     0.41142
      H   23    0.23274      0.00000     0.26080    0.00646     0.26726
      H   24    0.24237      0.00000     0.24868    0.00894     0.25763
 =======================================================================
   * Total *    0.00000      9.99657    29.86015    0.14328    40.00000

 Normal termination of Gaussian 16 at Tue Dec  8 13:05:07 2020.
