 Gaussian 16, Revision A.03,

 -----------------------------------------------------------
 # opt freq B3LYP/6-31G(d) empiricaldispersion=gd3bj scf=xqc
 -----------------------------------------------------------

 -------------------------------
 CID_131620359_JID_4369_neutraal
 -------------------------------
 Symbolic Z-matrix:
 Charge =  0 Multiplicity = 1

 SCF Done:  E(RB3LYP) =  -652.103197866     A.U. after   15 cycles
 SCF Done:  E(RB3LYP) =  -652.106536285     A.U. after   12 cycles
 SCF Done:  E(RB3LYP) =  -652.106752052     A.U. after   12 cycles
 SCF Done:  E(RB3LYP) =  -652.107224985     A.U. after   11 cycles
 SCF Done:  E(RB3LYP) =  -652.107273677     A.U. after   11 cycles
 SCF Done:  E(RB3LYP) =  -652.107306955     A.U. after   10 cycles
 SCF Done:  E(RB3LYP) =  -652.107323028     A.U. after   10 cycles
 SCF Done:  E(RB3LYP) =  -652.107336969     A.U. after   10 cycles
 SCF Done:  E(RB3LYP) =  -652.107352597     A.U. after   11 cycles
 SCF Done:  E(RB3LYP) =  -652.107356736     A.U. after   10 cycles
 SCF Done:  E(RB3LYP) =  -652.107792885     A.U. after   13 cycles
 SCF Done:  E(RB3LYP) =  -652.107871529     A.U. after   11 cycles
 SCF Done:  E(RB3LYP) =  -652.107887930     A.U. after   10 cycles
 SCF Done:  E(RB3LYP) =  -652.107893027     A.U. after   11 cycles
 SCF Done:  E(RB3LYP) =  -652.107893233     A.U. after    8 cycles
 Optimization completed.
    -- Stationary point found.
 Normal termination of Gaussian 16 at Thu Dec 10 09:28:55 2020.

 --------------------------------------------------------------------
 #N Geom=AllCheck Guess=TCheck SCRF=Check GenChk RB3LYP/6-31G(d) Freq
 --------------------------------------------------------------------

 Structure from the checkpoint file:  "JID_4369.chk"
 -------------------------------
 CID_131620359_JID_4369_neutraal
 -------------------------------
 Charge =  0 Multiplicity = 1

 SCF Done:  E(RB3LYP) =  -652.107893233     A.U. after    1 cycles

  Exact polarizability: 167.012  -2.382 125.974   4.932   0.550  67.857
 Approx polarizability: 237.945  -0.098 204.325  10.213   4.235 105.370

                      1                      2                      3
                      A                      A                      A
 Frequencies --     33.2615                63.1252               106.5440
 Red. masses --      6.2087                 3.0792                 3.6704
 Frc consts  --      0.0040                 0.0072                 0.0245
 IR Inten    --      2.5655                 5.6567                 1.4875

                      4                      5                      6
                      A                      A                      A
 Frequencies --    126.4523               187.9587               221.9708
 Red. masses --      4.0299                 3.2106                 1.9844
 Frc consts  --      0.0380                 0.0668                 0.0576
 IR Inten    --      0.8342                 1.4516                 0.2748

                      7                      8                      9
                      A                      A                      A
 Frequencies --    234.8000               273.6709               302.5694
 Red. masses --      1.5953                 3.3439                 2.8180
 Frc consts  --      0.0518                 0.1476                 0.1520
 IR Inten    --      0.3628                 1.3901                 2.3525

                     10                     11                     12
                      A                      A                      A
 Frequencies --    328.2492               344.5981               416.5078
 Red. masses --      3.7262                 3.6738                 6.4667
 Frc consts  --      0.2366                 0.2570                 0.6610
 IR Inten    --      0.7347                 4.0136                 3.0909

                     13                     14                     15
                      A                      A                      A
 Frequencies --    425.8278               447.4822               469.8873
 Red. masses --      4.5127                 1.4933                 1.9673
 Frc consts  --      0.4821                 0.1762                 0.2559
 IR Inten    --      3.8695                75.3613                39.8460

                     16                     17                     18
                      A                      A                      A
 Frequencies --    481.4387               502.7127               531.1122
 Red. masses --      3.0619                 3.6187                 3.2246
 Frc consts  --      0.4181                 0.5388                 0.5359
 IR Inten    --      0.4181                10.6729                 7.9846

                     19                     20                     21
                      A                      A                      A
 Frequencies --    589.2964               600.3399               652.2028
 Red. masses --      4.1459                 3.5266                 5.2712
 Frc consts  --      0.8483                 0.7489                 1.3211
 IR Inten    --      3.1556                 4.6626                 0.5334

                     22                     23                     24
                      A                      A                      A
 Frequencies --    687.6472               728.6476               744.3294
 Red. masses --      4.8281                 3.0655                 4.4234
 Frc consts  --      1.3451                 0.9589                 1.4439
 IR Inten    --      0.2642                 0.8032                 3.0588

                     25                     26                     27
                      A                      A                      A
 Frequencies --    785.5902               851.8024               856.8733
 Red. masses --      4.8144                 1.5032                 2.5189
 Frc consts  --      1.7506                 0.6426                 1.0897
 IR Inten    --      6.3399                13.7480                28.4004

                     28                     29                     30
                      A                      A                      A
 Frequencies --    871.1676               905.2324               921.0999
 Red. masses --      1.4391                 1.6090                 2.6657
 Frc consts  --      0.6435                 0.7768                 1.3325
 IR Inten    --      7.4646                21.6877                 2.9133

                     31                     32                     33
                      A                      A                      A
 Frequencies --    988.0910              1052.8508              1062.9762
 Red. masses --      2.0517                 2.3637                 4.5374
 Frc consts  --      1.1802                 1.5438                 3.0207
 IR Inten    --      1.4436                 4.5267                21.7988

                     34                     35                     36
                      A                      A                      A
 Frequencies --   1143.9399              1152.1607              1184.3014
 Red. masses --      3.7622                 1.2798                 2.2903
 Frc consts  --      2.9006                 1.0010                 1.8927
 IR Inten    --     78.0355                30.2859                43.4164

                     37                     38                     39
                      A                      A                      A
 Frequencies --   1188.0046              1204.9567              1211.2350
 Red. masses --      1.2662                 1.4691                 1.6974
 Frc consts  --      1.0529                 1.2567                 1.4672
 IR Inten    --      0.5742                45.9195                17.0066

                     40                     41                     42
                      A                      A                      A
 Frequencies --   1224.8807              1243.8992              1260.5013
 Red. masses --      1.4764                 1.8387                 1.4099
 Frc consts  --      1.3051                 1.6763                 1.3199
 IR Inten    --     19.6320                50.4159                 9.7311

                     43                     44                     45
                      A                      A                      A
 Frequencies --   1279.8568              1300.0705              1327.2380
 Red. masses --      2.1451                 1.7559                 2.0520
 Frc consts  --      2.0703                 1.7486                 2.1298
 IR Inten    --     69.0844               110.9354                34.7903

                     46                     47                     48
                      A                      A                      A
 Frequencies --   1347.0446              1352.0008              1384.1507
 Red. masses --      1.9461                 1.7978                 1.8667
 Frc consts  --      2.0806                 1.9362                 2.1072
 IR Inten    --     84.9927                72.5308                66.1225

                     49                     50                     51
                      A                      A                      A
 Frequencies --   1418.0436              1473.6754              1477.6698
 Red. masses --      3.1352                 1.1007                 1.0865
 Frc consts  --      3.7144                 1.4084                 1.3977
 IR Inten    --     40.4065                 7.5723                13.0069

                     52                     53                     54
                      A                      A                      A
 Frequencies --   1498.8902              1508.5456              1518.0711
 Red. masses --      1.9454                 1.6338                 1.0527
 Frc consts  --      2.5751                 2.1906                 1.4293
 IR Inten    --     16.5601                 4.5000                 7.3023

                     55                     56                     57
                      A                      A                      A
 Frequencies --   1519.8807              1536.4024              1566.3072
 Red. masses --      1.1547                 1.0786                 3.2841
 Frc consts  --      1.5716                 1.5001                 4.7470
 IR Inten    --      1.2001                56.5463               191.9172

                     58                     59                     60
                      A                      A                      A
 Frequencies --   1653.1034              1683.3054              1821.4711
 Red. masses --      7.2107                 6.4640                11.9946
 Frc consts  --     11.6098                10.7914                23.4466
 IR Inten    --     42.5383                 9.0819               227.6643

                     61                     62                     63
                      A                      A                      A
 Frequencies --   2989.4546              3014.8663              3031.2650
 Red. masses --      1.0722                 1.0712                 1.0341
 Frc consts  --      5.6455                 5.7365                 5.5981
 IR Inten    --     19.5552                30.7428                50.3859

                     64                     65                     66
                      A                      A                      A
 Frequencies --   3043.1737              3089.8103              3091.5702
 Red. masses --      1.0662                 1.0929                 1.1069
 Frc consts  --      5.8174                 6.1475                 6.2335
 IR Inten    --     14.2441                24.1767                39.8264

                     67                     68                     69
                      A                      A                      A
 Frequencies --   3110.4782              3117.0731              3162.7536
 Red. masses --      1.0957                 1.0890                 1.1006
 Frc consts  --      6.2461                 6.2344                 6.4867
 IR Inten    --     22.4505                 8.1173                24.7055

                     70                     71                     72
                      A                      A                      A
 Frequencies --   3205.8470              3210.1264              3702.8966
 Red. masses --      1.0906                 1.0896                 1.0647
 Frc consts  --      6.6042                 6.6156                 8.6011
 IR Inten    --      9.5303                 7.4816                90.2288

 - Thermochemistry -
 -------------------
 Temperature   298.150 Kelvin.  Pressure   1.00000 Atm.
 Atom     1 has atomic number  6 and mass  12.00000

 Molecular mass:   192.07864 amu.
 Principal axes and moments of inertia in atomic units:
                           1         2         3
     Eigenvalues --  1205.874214435.651455457.99833
           X            0.99993  -0.01097   0.00457
           Y            0.01100   0.99992  -0.00630
           Z           -0.00450   0.00635   0.99997
 This molecule is an asymmetric top.
 Rotational symmetry number  1.
 Warning -- assumption of classical behavior for rotation
           may cause significant error
 Rotational temperatures (Kelvin)      0.07183     0.01953     0.01587
 Rotational constants (GHZ):           1.49662     0.40687     0.33066
 Zero-point vibrational energy     556534.1 (Joules/Mol)
                                  133.01485 (Kcal/Mol)
 Warning -- explicit consideration of  20 degrees of freedom as
           vibrations may cause significant error
 Vibrational temperatures:     47.86    90.82   153.29   181.94   270.43
          (Kelvin)            319.37   337.82   393.75   435.33   472.28
                              495.80   599.26   612.67   643.83   676.06
                              692.68   723.29   764.15   847.87   863.76
                              938.37   989.37  1048.36  1070.92  1130.29
                             1225.55  1232.85  1253.42  1302.43  1325.26
                             1421.64  1514.82  1529.39  1645.87  1657.70
                             1703.95  1709.27  1733.66  1742.70  1762.33
                             1789.69  1813.58  1841.43  1870.51  1909.60
                             1938.10  1945.23  1991.48  2040.25  2120.29
                             2126.04  2156.57  2170.46  2184.17  2186.77
                             2210.54  2253.57  2378.45  2421.90  2620.69
                             4301.16  4337.72  4361.31  4378.45  4445.55
                             4448.08  4475.28  4484.77  4550.50  4612.50
                             4618.66  5327.64

 Zero-point correction=                           0.211973 (Hartree/Particle)
 Thermal correction to Energy=                    0.224392
 Thermal correction to Enthalpy=                  0.225336
 Thermal correction to Gibbs Free Energy=         0.172858
 Sum of electronic and zero-point Energies=           -651.895921
 Sum of electronic and thermal Energies=              -651.883501
 Sum of electronic and thermal Enthalpies=            -651.882557
 Sum of electronic and thermal Free Energies=         -651.935035

                     E (Thermal)             CV                S
                      KCal/Mol        Cal/Mol-Kelvin    Cal/Mol-Kelvin
 Total                  140.808             48.238            110.450
 Electronic               0.000              0.000              0.000
 Translational            0.889              2.981             41.664
 Rotational               0.889              2.981             31.746
 Vibrational            139.031             42.276             37.040
 Vibration     1          0.594              1.983              5.625
 Vibration     2          0.597              1.972              4.357
 Vibration     3          0.605              1.944              3.331
 Vibration     4          0.611              1.927              2.999
 Vibration     5          0.633              1.856              2.248
 Vibration     6          0.648              1.808              1.943
 Vibration     7          0.655              1.788              1.842
 Vibration     8          0.676              1.722              1.573
 Vibration     9          0.694              1.669              1.403
 Vibration    10          0.711              1.619              1.269
 Vibration    11          0.723              1.586              1.191
 Vibration    12          0.780              1.434              0.904
 Vibration    13          0.788              1.414              0.872
 Vibration    14          0.807              1.366              0.803
 Vibration    15          0.827              1.317              0.738
 Vibration    16          0.838              1.291              0.706
 Vibration    17          0.858              1.244              0.651
 Vibration    18          0.886              1.181              0.585
 Vibration    19          0.947              1.055              0.468
 Vibration    20          0.958              1.031              0.449

 Optimization completed.
    -- Stationary point found.
 Normal termination of Gaussian 16 at Thu Dec 10 09:36:17 2020.

 ----------------------------------------------------------------------
 # B3LYP/6-311++G(d,p) empiricaldispersion=gd3bj scf=xqc pop=npa geom=c
 heck
 ----------------------------------------------------------------------

 ---------------------------------------
 CID_131620359_JID_4369_Energie_neutraal
 ---------------------------------------
 Structure from the checkpoint file:  "JID_4369.chk"
 Charge =  0 Multiplicity = 1

 SCF Done:  E(RB3LYP) =  -652.297157986     A.U. after   15 cycles
 Normal termination of Gaussian 16 at Thu Dec 10 09:39:36 2020.

 ----------------------------------------------------------------------
 # B3LYP/6-311++G(d,p) empiricaldispersion=gd3bj scf=xqc pop=npa geom=c
 heck
 ----------------------------------------------------------------------

 -------------------------------------
 CID_131620359_JID_4369_Energie_kation
 -------------------------------------
 Structure from the checkpoint file:  "JID_4369.chk"
 Charge =  1 Multiplicity = 2

 SCF Done:  E(UB3LYP) =  -652.014289186     A.U. after   23 cycles
 Normal termination of Gaussian 16 at Thu Dec 10 09:46:56 2020.
 Gaussian 16:  ES64L-G16RevA.03 25-Dec-2016

 ----------------------------------------------------------------------
 # B3LYP/6-311++G(d,p) empiricaldispersion=gd3bj scf=xqc pop=npa geom=c
 heck
 ----------------------------------------------------------------------

 ------------------------------------
 CID_131620359_JID_4369_Energie_anion
 ------------------------------------
 Structure from the checkpoint file:  "JID_4369.chk"
 Charge = -1 Multiplicity = 2

                         Standard orientation:
 ---------------------------------------------------------------------
 Center     Atomic      Atomic             Coordinates (Angstroms)
 Number     Number       Type             X           Y           Z
 ---------------------------------------------------------------------
      1          6           0        3.709442   -1.667253    0.173527
      2          8           0        3.264872   -0.320991    0.163925
      3          6           0        1.918838   -0.091269    0.002632
      4          6           0        1.571324    1.273018    0.022784
      5          6           0        0.240820    1.644390   -0.122432
      6          6           0       -0.750957    0.673281   -0.294724
      7          6           0       -2.199700    1.055441   -0.484841
      8          6           0       -3.185017    0.109461    0.202436
      9          8           0       -4.290326    0.481099    0.542164
     10          6           0       -2.709230   -1.322024    0.422585
     11          6           0       -1.512681   -1.699851   -0.464558
     12          6           0       -0.405450   -0.683648   -0.311390
     13          6           0        0.934932   -1.060672   -0.157050
     14          8           0        2.535719    2.220770    0.191116
     15          1           0        4.791144   -1.629547    0.311274
     16          1           0        3.478087   -2.167910   -0.775328
     17          1           0        3.254167   -2.229157    0.999084
     18          1           0       -0.008435    2.700908   -0.098152
     19          1           0       -2.458949    1.022393   -1.557231
     20          1           0       -2.410852    2.075762   -0.152837
     21          1           0       -2.413773   -1.394189    1.478925
     22          1           0       -3.564247   -1.991453    0.285218
     23          1           0       -1.155509   -2.702811   -0.207612
     24          1           0       -1.843365   -1.749292   -1.513178
     25          1           0        1.194285   -2.114060   -0.160103
     26          1           0        3.381394    1.747094    0.278480
 ---------------------------------------------------------------------

 SCF Done:  E(UB3LYP) =  -652.288213448     A.U. after   33 cycles
 SCF Done:  E(UB3LYP) =  -652.288213448     a.u. after    1 cycles

 The electronic state is 2-A.
 Alpha  occ. eigenvalues --  -19.06321 -19.05779 -19.00267 -10.14815 -10.13553
 Alpha  occ. eigenvalues --  -10.13468 -10.11839 -10.08499 -10.08322 -10.08143
 Alpha  occ. eigenvalues --  -10.08004 -10.07847 -10.07559 -10.07518  -0.98653
 Alpha  occ. eigenvalues --   -0.95832  -0.93823  -0.77134  -0.70990  -0.67778
 Alpha  occ. eigenvalues --   -0.64305  -0.63109  -0.59139  -0.54653  -0.51316
 Alpha  occ. eigenvalues --   -0.49914  -0.45425  -0.43289  -0.42240  -0.38436
 Alpha  occ. eigenvalues --   -0.38068  -0.37302  -0.37010  -0.34994  -0.34182
 Alpha  occ. eigenvalues --   -0.32721  -0.32323  -0.31655  -0.31550  -0.29903
 Alpha  occ. eigenvalues --   -0.29386  -0.27673  -0.26999  -0.25011  -0.24813
 Alpha  occ. eigenvalues --   -0.24332  -0.23311  -0.21726  -0.15277  -0.14192
 Alpha  occ. eigenvalues --   -0.11231   0.04390
 Alpha virt. eigenvalues --    0.06091   0.07187   0.07934   0.08619   0.09002
 Alpha virt. eigenvalues --    0.09547   0.09587   0.09948   0.10641   0.11006
 Alpha virt. eigenvalues --    0.12009   0.12085   0.12527   0.13738   0.14845

  Beta  occ. eigenvalues --  -19.06306 -19.05776 -19.00150 -10.14642 -10.13553
  Beta  occ. eigenvalues --  -10.13460 -10.11766 -10.08515 -10.08315 -10.08119
  Beta  occ. eigenvalues --  -10.08008 -10.07857 -10.07531 -10.07505  -0.98632
  Beta  occ. eigenvalues --   -0.95817  -0.93575  -0.77105  -0.70919  -0.67742
  Beta  occ. eigenvalues --   -0.64222  -0.63059  -0.59017  -0.54600  -0.51253
  Beta  occ. eigenvalues --   -0.49830  -0.45373  -0.43117  -0.42178  -0.38337
  Beta  occ. eigenvalues --   -0.37908  -0.37230  -0.36922  -0.34946  -0.34069
  Beta  occ. eigenvalues --   -0.32644  -0.32195  -0.31603  -0.31452  -0.29862
  Beta  occ. eigenvalues --   -0.29221  -0.27622  -0.26909  -0.24898  -0.24728
  Beta  occ. eigenvalues --   -0.24158  -0.23095  -0.21664  -0.15195  -0.14112
  Beta  occ. eigenvalues --   -0.11182
  Beta virt. eigenvalues --    0.07009   0.07366   0.07867   0.08299   0.09178
  Beta virt. eigenvalues --    0.09244   0.09808   0.10089   0.10262   0.10950
  Beta virt. eigenvalues --    0.11736   0.12205   0.12525   0.12737   0.13821

 Mulliken charges and spin densities:
               1          2
     1  C    1.740987  -2.074623
     2  O   -0.351633   0.097046
     3  C    0.127516  -0.341234
     4  C   -0.861584   0.060417
     5  C    0.124403  -0.340760
     6  C    1.053140  -0.054984
     7  C   -0.724359  -0.265694
     8  C    0.049383   0.097724
     9  O   -0.324079   0.044396
    10  C   -0.246968  -0.279672
    11  C   -0.611951   0.446342
    12  C    0.662900  -0.002225
    13  C    0.348875  -0.303759
    14  O   -0.276966   0.014772
    15  H   -1.038882   1.226997
    16  H   -0.476607   0.642938
    17  H   -0.574805   0.752436
    18  H    0.133679   0.021934
    19  H    0.180805   0.001877
    20  H    0.178361   0.011466
    21  H   -0.041718   0.229760
    22  H    0.184406  -0.013788
    23  H   -0.495600   0.673531
    24  H    0.108447   0.021285
    25  H   -0.042717   0.213771
    26  H    0.174968   0.120048
 Sum of Mulliken charges =  -1.00000   1.00000

 Dipole moment (field-independent basis, Debye):
    X=             -5.1604    Y=              5.5373    Z=             -2.7329  Tot=              8.0474
 Quadrupole moment (field-independent basis, Debye-Ang):
   XX=           -176.8831   YY=           -128.2147   ZZ=           -104.9204
   XY=             22.7030   XZ=              3.7831   YZ=              3.3735

 Summary of Natural Population Analysis:

                                       Natural Population
                Natural  -----------------------------------------------
    Atom  No    Charge         Core      Valence    Rydberg      Total
 -----------------------------------------------------------------------
      C    1   -0.09789      0.99960     2.08894    0.00935     3.09789
      O    2   -0.28774      0.99986     3.27632    0.01157     4.28774
      C    3    0.13446      0.99935     1.85375    0.01243     2.86554
      C    4    0.14057      0.99936     1.84541    0.01467     2.85943
      C    5   -0.11904      0.99949     2.11154    0.00801     3.11904
      C    6   -0.02248      0.99947     2.01310    0.00991     3.02248
      C    7   -0.24474      0.99957     2.23602    0.00916     3.24474
      C    8    0.32180      0.99967     1.65646    0.02206     2.67820
      O    9   -0.28697      0.99987     3.27994    0.00715     4.28697
      C   10   -0.23681      0.99959     2.22845    0.00877     3.23681
      C   11   -0.19722      0.99961     2.18825    0.00936     3.19722
      C   12   -0.02185      0.99948     2.01251    0.00986     3.02185
      C   13   -0.12649      0.99948     2.11803    0.00899     3.12649
      O   14   -0.34354      0.99988     3.33713    0.00653     4.34354
      H   15    0.09738      0.00000     0.39907    0.00355     0.40262
      H   16    0.08714      0.00000     0.40996    0.00290     0.41286
      H   17    0.08924      0.00000     0.40715    0.00362     0.41076
      H   18    0.10209      0.00000     0.39679    0.00112     0.39791
      H   19    0.11416      0.00000     0.38491    0.00094     0.38584
      H   20    0.11193      0.00000     0.38690    0.00117     0.38807
      H   21    0.11613      0.00000     0.38233    0.00154     0.38387
      H   22    0.10877      0.00000     0.39030    0.00093     0.39123
      H   23    0.10897      0.00000     0.38940    0.00163     0.39103
      H   24    0.09757      0.00000     0.40135    0.00108     0.40243
      H   25    0.11107      0.00000     0.38707    0.00185     0.38893
      H   26    0.24351      0.00000     0.25348    0.00301     0.25649
 =======================================================================
   * Total *    0.00000     13.99427    36.83457    0.17116    51.00000

 Normal termination of Gaussian 16 at Thu Dec 10 09:57:28 2020.
