 Gaussian 16, Revision A.03,

 -----------------------------------------------------------
 # opt freq B3LYP/6-31G(d) empiricaldispersion=gd3bj scf=xqc
 -----------------------------------------------------------

 -------------------------------
 CID_140344766_JID_7227_neutraal
 -------------------------------
 Symbolic Z-matrix:
 Charge =  0 Multiplicity = 1

 SCF Done:  E(RB3LYP) =  -730.486694404     A.U. after   15 cycles
 SCF Done:  E(RB3LYP) =  -730.490099554     A.U. after   13 cycles
 SCF Done:  E(RB3LYP) =  -730.491203303     A.U. after   13 cycles
 SCF Done:  E(RB3LYP) =  -730.491662207     A.U. after   12 cycles
 SCF Done:  E(RB3LYP) =  -730.491696478     A.U. after   11 cycles
 SCF Done:  E(RB3LYP) =  -730.491700751     A.U. after   11 cycles
 SCF Done:  E(RB3LYP) =  -730.491756459     A.U. after   10 cycles
 SCF Done:  E(RB3LYP) =  -730.491756942     A.U. after    8 cycles
 SCF Done:  E(RB3LYP) =  -730.491757056     A.U. after    8 cycles
 SCF Done:  E(RB3LYP) =  -730.491757102     A.U. after    7 cycles
 SCF Done:  E(RB3LYP) =  -730.491757119     A.U. after    7 cycles
 Optimization completed.
    -- Stationary point found.
 Normal termination of Gaussian 16 at Fri Dec 11 11:52:56 2020.

 --------------------------------------------------------------------
 #N Geom=AllCheck Guess=TCheck SCRF=Check GenChk RB3LYP/6-31G(d) Freq
 --------------------------------------------------------------------

 Structure from the checkpoint file:  "JID_7227.chk"
 -------------------------------
 CID_140344766_JID_7227_neutraal
 -------------------------------
 Charge =  0 Multiplicity = 1

 SCF Done:  E(RB3LYP) =  -730.491757119     A.U. after    1 cycles

  Exact polarizability: 476.678  32.294 164.235   5.034   9.218  76.378
 Approx polarizability: 720.035  95.727 276.151   9.203  21.276 124.637

                      1                      2                      3
                      A                      A                      A
 Frequencies --     30.4768                39.3910                50.7577
 Red. masses --      5.1289                 5.2760                 6.9024
 Frc consts  --      0.0028                 0.0048                 0.0105
 IR Inten    --      0.7841                 0.7572                 0.6200

                      4                      5                      6
                      A                      A                      A
 Frequencies --     66.1758                84.1602               102.2664
 Red. masses --      4.4001                 2.3256                 3.3839
 Frc consts  --      0.0114                 0.0097                 0.0209
 IR Inten    --      0.2709                 0.2740                 0.4329

                      7                      8                      9
                      A                      A                      A
 Frequencies --    120.1297               160.6631               176.7033
 Red. masses --      3.3927                 4.8246                 4.0173
 Frc consts  --      0.0288                 0.0734                 0.0739
 IR Inten    --      0.2484                 0.4799                 0.6963

                     10                     11                     12
                      A                      A                      A
 Frequencies --    233.2082               248.0733               267.6593
 Red. masses --      5.1721                 4.4783                 3.7407
 Frc consts  --      0.1657                 0.1624                 0.1579
 IR Inten    --      0.2260                 0.2853                 0.0566

                     13                     14                     15
                      A                      A                      A
 Frequencies --    283.9540               306.1864               380.2102
 Red. masses --      1.8425                 4.5052                 8.7448
 Frc consts  --      0.0875                 0.2488                 0.7448
 IR Inten    --      0.8424                 2.1454                 1.3425

                     16                     17                     18
                      A                      A                      A
 Frequencies --    407.0297               416.5942               422.1752
 Red. masses --      3.5152                 3.0792                 3.1446
 Frc consts  --      0.3431                 0.3149                 0.3302
 IR Inten    --      3.4967                 5.8122                 0.7535

                     19                     20                     21
                      A                      A                      A
 Frequencies --    451.1554               488.2993               534.3705
 Red. masses --      3.2597                 4.4065                 3.3849
 Frc consts  --      0.3909                 0.6190                 0.5695
 IR Inten    --      3.9984                11.8467                 5.5178

                     22                     23                     24
                      A                      A                      A
 Frequencies --    554.0652               630.5580               634.7513
 Red. masses --      3.3192                 3.8474                 3.5236
 Frc consts  --      0.6003                 0.9013                 0.8365
 IR Inten    --      7.5285                48.0306                23.3660

                     25                     26                     27
                      A                      A                      A
 Frequencies --    651.1618               664.2775               674.9137
 Red. masses --      1.5489                 1.3777                 6.2077
 Frc consts  --      0.3869                 0.3582                 1.6660
 IR Inten    --     75.1657                 0.2140                13.3608

                     28                     29                     30
                      A                      A                      A
 Frequencies --    713.1065               762.8845               796.7141
 Red. masses --      1.7845                 2.5538                 3.6624
 Frc consts  --      0.5347                 0.8757                 1.3697
 IR Inten    --     34.5652                 1.9120                23.0004

                     31                     32                     33
                      A                      A                      A
 Frequencies --    798.1896               857.0420               877.9481
 Red. masses --      5.0608                 1.2450                 1.5911
 Frc consts  --      1.8997                 0.5388                 0.7226
 IR Inten    --     36.5304                 0.8544                 0.2008

                     34                     35                     36
                      A                      A                      A
 Frequencies --    918.3190               926.7340               929.3166
 Red. masses --      1.6713                 1.4057                 1.5417
 Frc consts  --      0.8304                 0.7113                 0.7845
 IR Inten    --     16.4558                11.8424                12.8280

                     37                     38                     39
                      A                      A                      A
 Frequencies --    958.5597               967.6724               969.9869
 Red. masses --      1.4844                 1.3587                 1.7693
 Frc consts  --      0.8036                 0.7496                 0.9808
 IR Inten    --      1.0339                 2.2731                 1.1208

                     40                     41                     42
                      A                      A                      A
 Frequencies --    978.1103               980.9655               993.2030
 Red. masses --      1.1921                 3.2691                 1.2494
 Frc consts  --      0.6720                 1.8535                 0.7262
 IR Inten    --      0.1956                20.9399                 0.2197

                     43                     44                     45
                      A                      A                      A
 Frequencies --   1021.5164              1032.1351              1064.7038
 Red. masses --      5.8416                 1.1065                 1.1131
 Frc consts  --      3.5915                 0.6945                 0.7434
 IR Inten    --      1.1103                 2.2523                66.7649

                     46                     47                     48
                      A                      A                      A
 Frequencies --   1065.5426              1117.1817              1164.4098
 Red. masses --      1.9833                 1.6031                 3.2545
 Frc consts  --      1.3267                 1.1788                 2.5998
 IR Inten    --      4.9860                 2.5507               652.0707

                     49                     50                     51
                      A                      A                      A
 Frequencies --   1184.9590              1194.5272              1208.6937
 Red. masses --      2.3166                 1.0936                 2.2512
 Frc consts  --      1.9165                 0.9194                 1.9378
 IR Inten    --     13.5023                 0.0484                84.8112

                     52                     53                     54
                      A                      A                      A
 Frequencies --   1220.9114              1229.3761              1257.4204
 Red. masses --      1.1406                 2.1260                 1.6076
 Frc consts  --      1.0017                 1.8931                 1.4976
 IR Inten    --      3.9440                 2.9308                 1.7808

                     55                     56                     57
                      A                      A                      A
 Frequencies --   1291.1348              1320.4197              1328.0552
 Red. masses --      1.9520                 1.8986                 1.4173
 Frc consts  --      1.9172                 1.9504                 1.4728
 IR Inten    --      0.8819                25.2686                 2.6121

                     58                     59                     60
                      A                      A                      A
 Frequencies --   1336.5153              1340.6701              1347.6671
 Red. masses --      1.5386                 2.6573                 1.3293
 Frc consts  --      1.6193                 2.8141                 1.4224
 IR Inten    --      1.8731                 4.8026                 2.3362

                     61                     62                     63
                      A                      A                      A
 Frequencies --   1365.5693              1371.6178              1421.9894
 Red. masses --      1.7839                 1.7130                 2.0364
 Frc consts  --      1.9600                 1.8988                 2.4261
 IR Inten    --     31.4203                 0.8449               232.9697

                     64                     65                     66
                      A                      A                      A
 Frequencies --   1474.4580              1495.8986              1545.5351
 Red. masses --      1.3302                 2.2492                 2.2211
 Frc consts  --      1.7039                 2.9653                 3.1260
 IR Inten    --      1.9606                 5.0134                 9.3141

                     67                     68                     69
                      A                      A                      A
 Frequencies --   1611.1436              1636.9000              1648.2540
 Red. masses --      5.4457                 5.3689                 4.0953
 Frc consts  --      8.3286                 8.4757                 6.5552
 IR Inten    --    111.9929                 6.0298               169.4040

                     70                     71                     72
                      A                      A                      A
 Frequencies --   1665.2448              1679.4992              1705.0651
 Red. masses --      5.2740                 4.7094                 4.3434
 Frc consts  --      8.6167                 7.8266                 7.4398
 IR Inten    --     10.2534                14.1711                19.9771

                     73                     74                     75
                      A                      A                      A
 Frequencies --   1792.6221              3142.3246              3149.6397
 Red. masses --      8.9886                 1.0884                 1.0879
 Frc consts  --     17.0184                 6.3322                 6.3584
 IR Inten    --    143.8336                 4.2718                 3.7970

                     76                     77                     78
                      A                      A                      A
 Frequencies --   3157.0626              3157.3533              3163.9891
 Red. masses --      1.0873                 1.0871                 1.0829
 Frc consts  --      6.3850                 6.3853                 6.3873
 IR Inten    --      2.6409                14.5524                50.5572

                     79                     80                     81
                      A                      A                      A
 Frequencies --   3167.9980              3182.3286              3190.3759
 Red. masses --      1.0687                 1.0848                 1.0880
 Frc consts  --      6.3193                 6.4726                 6.5250
 IR Inten    --     12.4206                 2.9045                 5.4330

                     82                     83                     84
                      A                      A                      A
 Frequencies --   3200.2743              3209.8697              3222.7503
 Red. masses --      1.0922                 1.0963                 1.0939
 Frc consts  --      6.5908                 6.6553                 6.6938
 IR Inten    --     27.6252                36.8143                14.7464

                     85                     86                     87
                      A                      A                      A
 Frequencies --   3241.5851              3252.7610              3691.9434
 Red. masses --      1.0892                 1.1158                 1.0639
 Frc consts  --      6.7433                 6.9556                 8.5441
 IR Inten    --     12.5717                13.9031                83.9156

 - Thermochemistry -
 -------------------
 Temperature   298.150 Kelvin.  Pressure   1.00000 Atm.
 Atom     1 has atomic number  6 and mass  12.00000

 Molecular mass:   226.09938 amu.
 Principal axes and moments of inertia in atomic units:
                           1         2         3
     Eigenvalues --  1865.67185********************
           X            1.00000   0.00011   0.00091
           Y           -0.00012   0.99997   0.00712
           Z           -0.00091  -0.00712   0.99997
 This molecule is an asymmetric top.
 Rotational symmetry number  1.
 Warning -- assumption of classical behavior for rotation
           may cause significant error
 Rotational temperatures (Kelvin)      0.04643     0.00772     0.00678
 Rotational constants (GHZ):           0.96734     0.16084     0.14124
 Zero-point vibrational energy     656618.3 (Joules/Mol)
                                  156.93555 (Kcal/Mol)
 Warning -- explicit consideration of  22 degrees of freedom as
           vibrations may cause significant error
 Vibrational temperatures:     43.85    56.67    73.03    95.21   121.09
          (Kelvin)            147.14   172.84   231.16   254.24   335.53
                              356.92   385.10   408.55   440.53   547.04
                              585.62   599.39   607.42   649.11   702.55
                              768.84   797.18   907.23   913.27   936.88
                              955.75   971.05  1026.00  1097.62  1146.29
                             1148.42  1233.09  1263.17  1321.26  1333.36
                             1337.08  1379.15  1392.26  1395.59  1407.28
                             1411.39  1429.00  1469.73  1485.01  1531.87
                             1533.08  1607.38  1675.33  1704.89  1718.66
                             1739.04  1756.62  1768.80  1809.15  1857.66
                             1899.79  1910.78  1922.95  1928.93  1938.99
                             1964.75  1973.45  2045.93  2121.42  2152.26
                             2223.68  2318.08  2355.13  2371.47  2395.92
                             2416.42  2453.21  2579.18  4521.10  4531.63
                             4542.31  4542.73  4552.27  4558.04  4578.66
                             4590.24  4604.48  4618.29  4636.82  4663.92
                             4680.00  5311.88

 Zero-point correction=                           0.250093 (Hartree/Particle)
 Thermal correction to Energy=                    0.266037
 Thermal correction to Enthalpy=                  0.266981
 Thermal correction to Gibbs Free Energy=         0.204762
 Sum of electronic and zero-point Energies=           -730.241664
 Sum of electronic and thermal Energies=              -730.225721
 Sum of electronic and thermal Enthalpies=            -730.224776
 Sum of electronic and thermal Free Energies=         -730.286995

                     E (Thermal)             CV                S
                      KCal/Mol        Cal/Mol-Kelvin    Cal/Mol-Kelvin
 Total                  166.940             59.917            130.951
 Electronic               0.000              0.000              0.000
 Translational            0.889              2.981             42.150
 Rotational               0.889              2.981             33.947
 Vibrational            165.163             53.955             54.854
 Vibration     1          0.594              1.984              5.798
 Vibration     2          0.594              1.981              5.289
 Vibration     3          0.595              1.977              4.788
 Vibration     4          0.598              1.970              4.264
 Vibration     5          0.601              1.960              3.791
 Vibration     6          0.604              1.947              3.411
 Vibration     7          0.609              1.932              3.098
 Vibration     8          0.622              1.891              2.542
 Vibration     9          0.628              1.871              2.363
 Vibration    10          0.654              1.790              1.854
 Vibration    11          0.662              1.766              1.744
 Vibration    12          0.673              1.733              1.611
 Vibration    13          0.682              1.703              1.510
 Vibration    14          0.697              1.662              1.383
 Vibration    15          0.750              1.512              1.038
 Vibration    16          0.772              1.455              0.937
 Vibration    17          0.780              1.434              0.904
 Vibration    18          0.785              1.422              0.885
 Vibration    19          0.810              1.358              0.792
 Vibration    20          0.844              1.276              0.688
 Vibration    21          0.889              1.174              0.578
 Vibration    22          0.909              1.131              0.536

 Optimization completed.
    -- Stationary point found.
 Normal termination of Gaussian 16 at Fri Dec 11 12:01:43 2020.

 ----------------------------------------------------------------------
 # B3LYP/6-311++G(d,p) empiricaldispersion=gd3bj scf=xqc pop=npa geom=c
 heck
 ----------------------------------------------------------------------

 ---------------------------------------
 CID_140344766_JID_7227_Energie_neutraal
 ---------------------------------------
 Structure from the checkpoint file:  "JID_7227.chk"
 Charge =  0 Multiplicity = 1

 SCF Done:  E(RB3LYP) =  -730.698782666     A.U. after   17 cycles
 Normal termination of Gaussian 16 at Fri Dec 11 12:06:34 2020.

 ----------------------------------------------------------------------
 # B3LYP/6-311++G(d,p) empiricaldispersion=gd3bj scf=xqc pop=npa geom=c
 heck
 ----------------------------------------------------------------------

 -------------------------------------
 CID_140344766_JID_7227_Energie_kation
 -------------------------------------
 Structure from the checkpoint file:  "JID_7227.chk"
 Charge =  1 Multiplicity = 2

 SCF Done:  E(UB3LYP) =  -730.433526102     A.U. after   22 cycles
 Normal termination of Gaussian 16 at Fri Dec 11 12:15:31 2020.
 Gaussian 16:  ES64L-G16RevA.03 25-Dec-2016

 ----------------------------------------------------------------------
 # B3LYP/6-311++G(d,p) empiricaldispersion=gd3bj scf=xqc pop=npa geom=c
 heck
 ----------------------------------------------------------------------

 ------------------------------------
 CID_140344766_JID_7227_Energie_anion
 ------------------------------------
 Structure from the checkpoint file:  "JID_7227.chk"
 Charge = -1 Multiplicity = 2

                         Standard orientation:
 ---------------------------------------------------------------------
 Center     Atomic      Atomic             Coordinates (Angstroms)
 Number     Number       Type             X           Y           Z
 ---------------------------------------------------------------------
      1          6           0       -7.315743   -1.010246    0.139567
      2          6           0       -6.234713   -0.216749    0.049298
      3          6           0       -4.871740   -0.693768    0.103310
      4          6           0       -3.780025    0.106767    0.012281
      5          6           0       -2.428322   -0.371931    0.066591
      6          6           0       -1.331291    0.428444   -0.026678
      7          6           0       -0.004290   -0.112814    0.033366
      8          6           0        1.201138    0.529438   -0.032393
      9          6           0        2.451095   -0.270944    0.004246
     10          6           0        3.533441    0.083179    0.827183
     11          6           0        4.668866   -0.719253    0.894898
     12          6           0        4.752972   -1.890076    0.138461
     13          6           0        3.689808   -2.250286   -0.689256
     14          6           0        2.552270   -1.447875   -0.755550
     15          6           0        1.266223    2.005480   -0.166750
     16          8           0        0.334273    2.786669   -0.072826
     17          8           0        2.519659    2.457273   -0.441977
     18          1           0       -7.220503   -2.086629    0.261890
     19          1           0       -8.323630   -0.610358    0.094403
     20          1           0       -6.368890    0.858004   -0.072632
     21          1           0       -4.729885   -1.768090    0.225569
     22          1           0       -3.920255    1.180812   -0.109411
     23          1           0       -2.290336   -1.447122    0.191290
     24          1           0       -1.446175    1.499738   -0.141177
     25          1           0        0.046506   -1.194655    0.152517
     26          1           0        3.478208    0.989140    1.420299
     27          1           0        5.490878   -0.430833    1.544200
     28          1           0        5.642134   -2.512006    0.189917
     29          1           0        3.748438   -3.151575   -1.293208
     30          1           0        1.737868   -1.719395   -1.420995
     31          1           0        2.426051    3.425244   -0.515684
 ---------------------------------------------------------------------

 SCF Done:  E(UB3LYP) =  -730.746476705     A.U. after   22 cycles

 The electronic state is 2-A.
 Alpha  occ. eigenvalues --  -19.04024 -18.97051 -10.16200 -10.07295 -10.07243
 Alpha  occ. eigenvalues --  -10.07234 -10.07027 -10.06374 -10.06336 -10.05702
 Alpha  occ. eigenvalues --  -10.04244 -10.04069 -10.04027 -10.03968 -10.03748
 Alpha  occ. eigenvalues --  -10.03413 -10.02594  -0.97822  -0.88130  -0.75346
 Alpha  occ. eigenvalues --   -0.69691  -0.68506  -0.65654  -0.64260  -0.62238
 Alpha  occ. eigenvalues --   -0.58963  -0.53971  -0.50654  -0.49607  -0.48038
 Alpha  occ. eigenvalues --   -0.43936  -0.43212  -0.41940  -0.41244  -0.36924
 Alpha  occ. eigenvalues --   -0.36030  -0.35409  -0.34720  -0.33716  -0.32883
 Alpha  occ. eigenvalues --   -0.32231  -0.31279  -0.30159  -0.29331  -0.27759
 Alpha  occ. eigenvalues --   -0.26589  -0.25917  -0.25356  -0.24042  -0.23408
 Alpha  occ. eigenvalues --   -0.23285  -0.22429  -0.22188  -0.20435  -0.18878
 Alpha  occ. eigenvalues --   -0.16471  -0.15262  -0.14349  -0.13200  -0.08115
 Alpha  occ. eigenvalues --    0.00302
 Alpha virt. eigenvalues --    0.06968   0.08203   0.08348   0.08835   0.08988
 Alpha virt. eigenvalues --    0.09042   0.09641   0.09867   0.10175   0.10927
 Alpha virt. eigenvalues --    0.11828   0.12056   0.13029   0.13473   0.14141

  Beta  occ. eigenvalues --  -19.03970 -18.96930 -10.16095 -10.07311 -10.07254
  Beta  occ. eigenvalues --  -10.07246 -10.06979 -10.06335 -10.06300 -10.05785
  Beta  occ. eigenvalues --  -10.04294 -10.03845 -10.03778 -10.03725 -10.03431
  Beta  occ. eigenvalues --  -10.03129 -10.02578  -0.97663  -0.87929  -0.75272
  Beta  occ. eigenvalues --   -0.69251  -0.68133  -0.65302  -0.64213  -0.61920
  Beta  occ. eigenvalues --   -0.58597  -0.53418  -0.50420  -0.49527  -0.47770
  Beta  occ. eigenvalues --   -0.43681  -0.42998  -0.41700  -0.41098  -0.36804
  Beta  occ. eigenvalues --   -0.35892  -0.35294  -0.34578  -0.33560  -0.32720
  Beta  occ. eigenvalues --   -0.32091  -0.30874  -0.29974  -0.29144  -0.27611
  Beta  occ. eigenvalues --   -0.26439  -0.25771  -0.25238  -0.23966  -0.23289
  Beta  occ. eigenvalues --   -0.23170  -0.22014  -0.21271  -0.19658  -0.17870
  Beta  occ. eigenvalues --   -0.15853  -0.15133  -0.14046  -0.12154  -0.06486
  Beta virt. eigenvalues --    0.05434   0.06962   0.08195   0.08352   0.08909
  Beta virt. eigenvalues --    0.09054   0.09388   0.09661   0.10173   0.10920
  Beta virt. eigenvalues --    0.11175   0.11823   0.12097   0.13027   0.13479

 Mulliken charges and spin densities:
               1          2
     1  C   -0.635914   0.267872
     2  C    0.125275  -0.082087
     3  C   -0.214140   0.231877
     4  C   -0.092594  -0.036727
     5  C   -0.117907   0.207234
     6  C   -0.050044   0.000430
     7  C   -0.547588   0.182806
     8  C    0.491396   0.088034
     9  C    1.026208   0.024874
    10  C   -0.559757   0.011343
    11  C   -0.065525  -0.014084
    12  C   -0.427383   0.036502
    13  C   -0.218092  -0.012534
    14  C   -0.734814   0.024021
    15  C   -0.132614   0.084663
    16  O   -0.367464   0.046143
    17  O   -0.197623   0.011324
    18  H    0.090427  -0.013297
    19  H    0.106789  -0.013262
    20  H    0.110765   0.002539
    21  H    0.062009  -0.015846
    22  H    0.047861   0.001893
    23  H    0.019808  -0.013719
    24  H    0.166362  -0.002510
    25  H    0.134500  -0.011485
    26  H    0.155446  -0.002124
    27  H    0.135385   0.000534
    28  H    0.117144  -0.002972
    29  H    0.135278   0.001332
    30  H    0.162538  -0.002264
    31  H    0.274270  -0.000510
 Sum of Mulliken charges =  -1.00000   1.00000

 Dipole moment (field-independent basis, Debye):
    X=              6.3578    Y=             -0.9923    Z=             -0.1960  Tot=              6.4378
 Quadrupole moment (field-independent basis, Debye-Ang):
   XX=           -186.4120   YY=           -111.3454   ZZ=           -111.7873
   XY=             -3.2731   XZ=              3.0636   YZ=              1.2595

 Summary of Natural Population Analysis:

                                       Natural Population
                Natural  -----------------------------------------------
    Atom  No    Charge         Core      Valence    Rydberg      Total
 -----------------------------------------------------------------------
      C    1   -0.13146      0.99960     2.12355    0.00830     3.13146
      C    2   -0.12654      0.99957     2.11772    0.00925     3.12654
      C    3   -0.03521      0.99953     2.02595    0.00973     3.03521
      C    4   -0.11601      0.99954     2.10766    0.00881     3.11601
      C    5   -0.02501      0.99954     2.01637    0.00910     3.02501
      C    6   -0.11831      0.99954     2.10844    0.01033     3.11831
      C    7   -0.00511      0.99945     1.99635    0.00932     3.00511
      C    8   -0.10106      0.99945     2.08076    0.02085     3.10106
      C    9   -0.01211      0.99950     2.00180    0.01080     3.01211
      C   10   -0.08336      0.99952     2.07492    0.00892     3.08336
      C   11   -0.11150      0.99957     2.10254    0.00939     3.11150
      C   12   -0.10908      0.99957     2.09982    0.00968     3.10908
      C   13   -0.11096      0.99957     2.10210    0.00928     3.11096
      C   14   -0.09445      0.99953     2.08612    0.00880     3.09445
      C   15    0.48935      0.99967     1.48613    0.02486     2.51065
      O   16   -0.34673      0.99989     3.32314    0.02370     4.34673
      O   17   -0.36437      0.99989     3.34870    0.01578     4.36437
      H   18    0.08120      0.00000     0.41767    0.00113     0.41880
      H   19    0.08223      0.00000     0.41675    0.00102     0.41777
      H   20    0.08831      0.00000     0.41016    0.00153     0.41169
      H   21    0.08270      0.00000     0.41558    0.00172     0.41730
      H   22    0.08925      0.00000     0.40930    0.00145     0.41075
      H   23    0.08100      0.00000     0.41724    0.00176     0.41900
      H   24    0.10938      0.00000     0.38883    0.00179     0.39062
      H   25    0.08882      0.00000     0.41055    0.00064     0.41118
      H   26    0.10177      0.00000     0.39686    0.00137     0.39823
      H   27    0.09388      0.00000     0.40509    0.00103     0.40612
      H   28    0.09299      0.00000     0.40600    0.00101     0.40701
      H   29    0.09441      0.00000     0.40457    0.00102     0.40559
      H   30    0.10124      0.00000     0.39732    0.00144     0.39876
      H   31    0.23153      0.00000     0.26493    0.00354     0.26847
 =======================================================================
   * Total *    0.01682     16.99294    42.76289    0.22735    59.98318

 Normal termination of Gaussian 16 at Fri Dec 11 12:24:11 2020.
