 Gaussian 16, Revision A.03,

 -----------------------------------------------------------
 # opt freq B3LYP/6-31G(d) empiricaldispersion=gd3bj scf=xqc
 -----------------------------------------------------------

 ------------------------------
 CID_90921299_JID_2037_neutraal
 ------------------------------
 Symbolic Z-matrix:
 Charge =  0 Multiplicity = 1

 SCF Done:  E(RB3LYP) =  -461.661832697     A.U. after   27 cycles
 SCF Done:  E(RB3LYP) =  -461.711586174     A.U. after   18 cycles
 SCF Done:  E(RB3LYP) =  -461.735244753     A.U. after   16 cycles
 SCF Done:  E(RB3LYP) =  -461.737840111     A.U. after   15 cycles
 SCF Done:  E(RB3LYP) =  -461.738425090     A.U. after   14 cycles
 SCF Done:  E(RB3LYP) =  -461.738488399     A.U. after   12 cycles
 SCF Done:  E(RB3LYP) =  -461.738517806     A.U. after   11 cycles
 SCF Done:  E(RB3LYP) =  -461.738530732     A.U. after   10 cycles
 SCF Done:  E(RB3LYP) =  -461.738533907     A.U. after   10 cycles
 SCF Done:  E(RB3LYP) =  -461.738534561     A.U. after    8 cycles
 Optimization completed.
    -- Stationary point found.
 Normal termination of Gaussian 16 at Wed Dec  9 16:44:20 2020.

 --------------------------------------------------------------------
 #N Geom=AllCheck Guess=TCheck SCRF=Check GenChk RB3LYP/6-31G(d) Freq
 --------------------------------------------------------------------

 Structure from the checkpoint file:  "JID_2037.chk"
 ------------------------------
 CID_90921299_JID_2037_neutraal
 ------------------------------
 Charge =  0 Multiplicity = 1

 SCF Done:  E(RB3LYP) =  -461.738534561     A.U. after    3 cycles

  Exact polarizability: 327.074 -34.884 118.114   0.000   0.000  41.194
 Approx polarizability: 672.325-176.383 245.384   0.000  -0.000  66.768

                      1                      2                      3
                      A                      A                      A
 Frequencies --     47.7869                64.0936               112.0826
 Red. masses --      5.5471                 4.5115                 2.9698
 Frc consts  --      0.0075                 0.0109                 0.0220
 IR Inten    --      1.1098                 1.9053                 0.0040

                      4                      5                      6
                      A                      A                      A
 Frequencies --    145.1042               145.4743               192.6162
 Red. masses --      5.3026                 3.9984                 2.6412
 Frc consts  --      0.0658                 0.0499                 0.0577
 IR Inten    --      0.0000                 0.0000                 0.0000

                      7                      8                      9
                      A                      A                      A
 Frequencies --    282.9820               300.2134               400.5271
 Red. masses --      4.8526                 6.2823                 4.7479
 Frc consts  --      0.2290                 0.3336                 0.4488
 IR Inten    --      3.5384                 0.0000                 0.2100

                     10                     11                     12
                      A                      A                      A
 Frequencies --    451.0218               525.2861               542.5759
 Red. masses --      3.9717                 3.3057                 1.4382
 Frc consts  --      0.4760                 0.5374                 0.2495
 IR Inten    --      0.0000                 0.0000                68.4112

                     13                     14                     15
                      A                      A                      A
 Frequencies --    553.9457               566.3548               572.2673
 Red. masses --      1.6553                 1.5079                 4.5418
 Frc consts  --      0.2993                 0.2850                 0.8763
 IR Inten    --      0.0000                 0.2572                 7.9803

                     16                     17                     18
                      A                      A                      A
 Frequencies --    598.9271               601.9873               610.1355
 Red. masses --      1.2232                 1.2400                 1.5856
 Frc consts  --      0.2585                 0.2648                 0.3478
 IR Inten    --      0.0000                48.5112                 0.0000

                     19                     20                     21
                      A                      A                      A
 Frequencies --    694.0812               748.1371               773.5659
 Red. masses --      2.4435                 2.4336                 2.9823
 Frc consts  --      0.6936                 0.8025                 1.0515
 IR Inten    --    103.9760                 0.0000                 1.6186

                     22                     23                     24
                      A                      A                      A
 Frequencies --    793.3637               793.8520               858.4924
 Red. masses --      2.5141                 2.5293                 1.4147
 Frc consts  --      0.9324                 0.9391                 0.6143
 IR Inten    --      0.0000                 8.3660                 0.0000

                     25                     26                     27
                      A                      A                      A
 Frequencies --    858.7650               859.7298               895.1527
 Red. masses --      1.4187                 2.9608                 6.8676
 Frc consts  --      0.6165                 1.2894                 3.2423
 IR Inten    --      1.7808                 5.1155                 0.0000

                     28                     29                     30
                      A                      A                      A
 Frequencies --    938.4988               948.2867              1023.2451
 Red. masses --      3.4578                 4.5623                 1.8111
 Frc consts  --      1.7944                 2.4172                 1.1173
 IR Inten    --     45.3428                 0.0000                 0.0000

                     31                     32                     33
                      A                      A                      A
 Frequencies --   1077.3763              1096.2164              1145.5633
 Red. masses --      1.2408                 1.5073                 1.4468
 Frc consts  --      0.8486                 1.0672                 1.1186
 IR Inten    --      2.7985                 0.0000                 6.9275

                     34                     35                     36
                      A                      A                      A
 Frequencies --   1158.7851              1172.2247              1203.0673
 Red. masses --      1.7009                 1.6450                 1.5736
 Frc consts  --      1.3457                 1.3318                 1.3419
 IR Inten    --      0.0000                 0.0000                 4.0545

                     37                     38                     39
                      A                      A                      A
 Frequencies --   1243.3430              1252.5939              1272.8325
 Red. masses --      2.2491                 1.6965                 2.5246
 Frc consts  --      2.0485                 1.5683                 2.4098
 IR Inten    --      0.0000                42.4231                 0.0000

                     40                     41                     42
                      A                      A                      A
 Frequencies --   1291.5500              1538.6607              1552.5527
 Red. masses --      5.1731                 7.0767                 7.5977
 Frc consts  --      5.0843                 9.8711                10.7901
 IR Inten    --      5.0458                21.2324                 0.0000

                     43                     44                     45
                      A                      A                      A
 Frequencies --   1581.8640              1606.1037              1658.1396
 Red. masses --      6.1201                 6.0934                 7.3701
 Frc consts  --      9.0229                 9.2609                11.9390
 IR Inten    --      3.5918                 0.0000                 2.2800

                     46                     47                     48
                      A                      A                      A
 Frequencies --   1716.8093              3228.0688              3228.2084
 Red. masses --      9.6543                 1.0839                 1.0840
 Frc consts  --     16.7654                 6.6549                 6.6558
 IR Inten    --      0.0000                49.4665                 0.0001

                     49                     50                     51
                      A                      A                      A
 Frequencies --   3247.3307              3247.5302              3253.4070
 Red. masses --      1.0962                 1.0965                 1.0984
 Frc consts  --      6.8110                 6.8135                 6.8501
 IR Inten    --     18.4091                 0.0003                 0.0008

                     52                     53                     54
                      A                      A                      A
 Frequencies --   3253.5069              3264.4807              3264.6421
 Red. masses --      1.0955                 1.1151                 1.1151
 Frc consts  --      6.8324                 7.0018                 7.0019
 IR Inten    --     23.2123                25.6044                 0.0001

 - Thermochemistry -
 -------------------
 Temperature   298.150 Kelvin.  Pressure   1.00000 Atm.
 Atom     1 has atomic number  6 and mass  12.00000

 Molecular mass:   152.06260 amu.
 Principal axes and moments of inertia in atomic units:
                           1         2         3
     Eigenvalues --   366.963944794.245135161.20907
           X            1.00000   0.00063  -0.00000
           Y           -0.00063   1.00000   0.00000
           Z            0.00000  -0.00000   1.00000
 This molecule is an asymmetric top.
 Rotational symmetry number  1.
 Rotational temperatures (Kelvin)      0.23603     0.01807     0.01678
 Rotational constants (GHZ):           4.91803     0.37644     0.34967
 Zero-point vibrational energy     385517.0 (Joules/Mol)
                                   92.14077 (Kcal/Mol)
 Warning -- explicit consideration of  18 degrees of freedom as
           vibrations may cause significant error
 Vibrational temperatures:     68.75    92.22   161.26   208.77   209.31
          (Kelvin)            277.13   407.15   431.94   576.27   648.92
                              755.77   780.65   797.00   814.86   823.37
                              861.72   866.13   877.85   998.63  1076.40
                             1112.99  1141.47  1142.18  1235.18  1235.57
                             1236.96  1287.93  1350.29  1364.37  1472.22
                             1550.10  1577.21  1648.21  1667.23  1686.57
                             1730.95  1788.89  1802.20  1831.32  1858.25
                             2213.79  2233.78  2275.95  2310.83  2385.69
                             2470.11  4644.47  4644.67  4672.18  4672.47
                             4680.93  4681.07  4696.86  4697.09

 Zero-point correction=                           0.146836 (Hartree/Particle)
 Thermal correction to Energy=                    0.157776
 Thermal correction to Enthalpy=                  0.158721
 Thermal correction to Gibbs Free Energy=         0.109745
 Sum of electronic and zero-point Energies=           -461.591699
 Sum of electronic and thermal Energies=              -461.580758
 Sum of electronic and thermal Enthalpies=            -461.579814
 Sum of electronic and thermal Free Energies=         -461.628789

                     E (Thermal)             CV                S
                      KCal/Mol        Cal/Mol-Kelvin    Cal/Mol-Kelvin
 Total                   99.006             41.955            103.077
 Electronic               0.000              0.000              0.000
 Translational            0.889              2.981             40.967
 Rotational               0.889              2.981             30.586
 Vibrational             97.229             35.994             31.525
 Vibration     1          0.595              1.978              4.907
 Vibration     2          0.597              1.971              4.327
 Vibration     3          0.607              1.939              3.233
 Vibration     4          0.616              1.908              2.735
 Vibration     5          0.617              1.908              2.731
 Vibration     6          0.635              1.850              2.203
 Vibration     7          0.682              1.705              1.516
 Vibration     8          0.693              1.673              1.416
 Vibration     9          0.766              1.469              0.961
 Vibration    10          0.810              1.359              0.793
 Vibration    11          0.880              1.194              0.598
 Vibration    12          0.898              1.156              0.560
 Vibration    13          0.909              1.131              0.536
 Vibration    14          0.922              1.104              0.511
 Vibration    15          0.928              1.091              0.500
 Vibration    16          0.957              1.034              0.452
 Vibration    17          0.960              1.028              0.446
 Vibration    18          0.969              1.010              0.433

 Optimization completed.
    -- Stationary point found.
 Normal termination of Gaussian 16 at Wed Dec  9 16:47:45 2020.

 ----------------------------------------------------------------------
 # B3LYP/6-311++G(d,p) empiricaldispersion=gd3bj scf=xqc pop=npa geom=c
 heck
 ----------------------------------------------------------------------

 --------------------------------------
 CID_90921299_JID_2037_Energie_neutraal
 --------------------------------------
 Structure from the checkpoint file:  "JID_2037.chk"
 Charge =  0 Multiplicity = 1

 SCF Done:  E(RB3LYP) =  -461.860242833     A.U. after   14 cycles
 Normal termination of Gaussian 16 at Wed Dec  9 16:49:03 2020.

 ----------------------------------------------------------------------
 # B3LYP/6-311++G(d,p) empiricaldispersion=gd3bj scf=xqc pop=npa geom=c
 heck
 ----------------------------------------------------------------------

 ------------------------------------
 CID_90921299_JID_2037_Energie_kation
 ------------------------------------
 Structure from the checkpoint file:  "JID_2037.chk"
 Charge =  1 Multiplicity = 2

 SCF Done:  E(UB3LYP) =  -461.633852110     A.U. after   30 cycles
 Normal termination of Gaussian 16 at Wed Dec  9 16:52:12 2020.
 Gaussian 16:  ES64L-G16RevA.03 25-Dec-2016

 ----------------------------------------------------------------------
 # B3LYP/6-311++G(d,p) empiricaldispersion=gd3bj scf=xqc pop=npa geom=c
 heck
 ----------------------------------------------------------------------

 -----------------------------------
 CID_90921299_JID_2037_Energie_anion
 -----------------------------------
 Structure from the checkpoint file:  "JID_2037.chk"
 Charge = -1 Multiplicity = 2

                         Standard orientation:
 ---------------------------------------------------------------------
 Center     Atomic      Atomic             Coordinates (Angstroms)
 Number     Number       Type             X           Y           Z
 ---------------------------------------------------------------------
      1          6           0       -4.485744    0.006583    0.000051
      2          6           0       -3.590110   -0.994876    0.000073
      3          6           0       -2.422773    0.069776   -0.000001
      4          6           0       -3.366530    1.056811    0.000021
      5          6           0       -1.032061   -0.009774   -0.000042
      6          6           0        0.106624    1.024973   -0.000114
      7          6           0        1.032062    0.009787   -0.000040
      8          6           0       -0.106620   -1.024959   -0.000113
      9          6           0        2.422773   -0.069781    0.000003
     10          6           0        3.366528   -1.056817    0.000028
     11          6           0        4.485743   -0.006590    0.000040
     12          6           0        3.590108    0.994868    0.000080
     13          1           0       -5.567851    0.062720    0.000070
     14          1           0       -3.633284   -2.076733    0.000114
     15          1           0       -3.334010    2.139419    0.000003
     16          1           0        0.156047    2.106184   -0.000148
     17          1           0       -0.156046   -2.106170   -0.000143
     18          1           0        3.334005   -2.139425    0.000010
     19          1           0        5.567850   -0.062728    0.000046
     20          1           0        3.633285    2.076726    0.000129
 ---------------------------------------------------------------------

 SCF Done:  E(UB3LYP) =  -461.911514156     A.U. after   33 cycles
 SCF Done:  E(UB3LYP) =  -461.911514156     a.u. after    2 cycles

 The electronic state is 2-A.
 Alpha  occ. eigenvalues --  -10.04936 -10.04936 -10.04115 -10.04115 -10.03824
 Alpha  occ. eigenvalues --  -10.03824 -10.03462 -10.03458 -10.03074 -10.03071
 Alpha  occ. eigenvalues --  -10.01952 -10.01952  -0.74027  -0.72747  -0.71354
 Alpha  occ. eigenvalues --   -0.57483  -0.53391  -0.51454  -0.48216  -0.48215
 Alpha  occ. eigenvalues --   -0.43954  -0.41173  -0.37471  -0.37226  -0.37026
 Alpha  occ. eigenvalues --   -0.30552  -0.28696  -0.26287  -0.25863  -0.25037
 Alpha  occ. eigenvalues --   -0.23187  -0.22388  -0.21415  -0.21344  -0.19591
 Alpha  occ. eigenvalues --   -0.17908  -0.16130  -0.09174  -0.04593  -0.03922
 Alpha  occ. eigenvalues --    0.00648
 Alpha virt. eigenvalues --    0.05068   0.08829   0.08940   0.09983   0.10412
 Alpha virt. eigenvalues --    0.10947   0.11706   0.11815   0.13582   0.14355
 Alpha virt. eigenvalues --    0.14813   0.16126   0.16762   0.16925   0.17481

  Beta  occ. eigenvalues --  -10.04975 -10.04975 -10.04116 -10.04116 -10.03715
  Beta  occ. eigenvalues --  -10.03715 -10.03587 -10.03585 -10.02397 -10.02396
  Beta  occ. eigenvalues --  -10.01855 -10.01855  -0.73652  -0.72649  -0.70885
  Beta  occ. eigenvalues --   -0.57505  -0.53296  -0.50696  -0.47963  -0.47027
  Beta  occ. eigenvalues --   -0.43901  -0.41153  -0.37170  -0.37094  -0.36348
  Beta  occ. eigenvalues --   -0.30432  -0.28507  -0.26266  -0.25768  -0.23942
  Beta  occ. eigenvalues --   -0.23085  -0.22084  -0.21227  -0.21086  -0.18151
  Beta  occ. eigenvalues --   -0.17717  -0.15838  -0.09161  -0.03843  -0.00667
  Beta virt. eigenvalues --    0.06301   0.07028   0.08830   0.08935   0.10000
  Beta virt. eigenvalues --    0.10433   0.10947   0.11807   0.11906   0.13616
  Beta virt. eigenvalues --    0.14405   0.14962   0.16125   0.16832   0.17353

 Mulliken charges and spin densities:
               1          2
     1  C    0.252788  -0.034277
     2  C   -1.030788   0.076645
     3  C    1.036238   0.001079
     4  C   -0.852288   0.081106
     5  C    1.216684  -0.053678
     6  C   -1.392213   0.471826
     7  C    1.216673  -0.053682
     8  C   -1.392218   0.471815
     9  C    1.036239   0.001085
    10  C   -0.852288   0.081079
    11  C    0.252787  -0.034263
    12  C   -1.030782   0.076621
    13  H    0.103301   0.000849
    14  H    0.068236  -0.005051
    15  H    0.056977  -0.003383
    16  H    0.041070  -0.035097
    17  H    0.041069  -0.035096
    18  H    0.056978  -0.003381
    19  H    0.103301   0.000849
    20  H    0.068236  -0.005049
 Sum of Mulliken charges =  -1.00000   1.00000

 Dipole moment (field-independent basis, Debye):
    X=              0.0000    Y=              0.0000    Z=             -0.0000  Tot=              0.0000
 Quadrupole moment (field-independent basis, Debye-Ang):
   XX=           -118.6748   YY=            -74.7880   ZZ=            -84.2936
   XY=              1.0995   XZ=             -0.0001   YZ=              0.0000

 Summary of Natural Population Analysis:

                                       Natural Population
                Natural  -----------------------------------------------
    Atom  No    Charge         Core      Valence    Rydberg      Total
 -----------------------------------------------------------------------
      C    1   -0.11824      0.99956     2.10883    0.00985     3.11824
      C    2   -0.10226      0.99954     2.08669    0.01603     3.10226
      C    3   -0.01231      0.99935     2.00238    0.01058     3.01231
      C    4   -0.14505      0.99954     2.13019    0.01532     3.14505
      C    5   -0.09624      0.99951     2.08596    0.01077     3.09624
      C    6    0.12607      0.99949     1.86316    0.01128     2.87393
      C    7   -0.09624      0.99951     2.08597    0.01077     3.09624
      C    8    0.12606      0.99949     1.86317    0.01128     2.87394
      C    9   -0.01230      0.99935     2.00237    0.01058     3.01230
      C   10   -0.14507      0.99954     2.13020    0.01532     3.14507
      C   11   -0.11824      0.99956     2.10882    0.00985     3.11824
      C   12   -0.10227      0.99954     2.08670    0.01603     3.10227
      H   13    0.08595      0.00000     0.41285    0.00121     0.41405
      H   14    0.08939      0.00000     0.40959    0.00102     0.41061
      H   15    0.08955      0.00000     0.40944    0.00101     0.41045
      H   16    0.08316      0.00000     0.41595    0.00088     0.41684
      H   17    0.08316      0.00000     0.41595    0.00088     0.41684
      H   18    0.08955      0.00000     0.40944    0.00101     0.41045
      H   19    0.08594      0.00000     0.41285    0.00121     0.41406
      H   20    0.08939      0.00000     0.40959    0.00102     0.41061
 =======================================================================
   * Total *    0.00000     11.99398    27.85011    0.15591    40.00000

 Normal termination of Gaussian 16 at Wed Dec  9 16:58:38 2020.
