 Gaussian 16, Revision A.03,

 -----------------------------------------------------------
 # opt freq B3LYP/6-31G(d) empiricaldispersion=gd3bj scf=xqc
 -----------------------------------------------------------

 -------------------------------
 CID_107779035_JID_6127_neutraal
 -------------------------------
 Symbolic Z-matrix:
 Charge =  0 Multiplicity = 1

 SCF Done:  E(RB3LYP) =  -1140.28565733     A.U. after   15 cycles
 SCF Done:  E(RB3LYP) =  -1140.29092346     A.U. after   13 cycles
 SCF Done:  E(RB3LYP) =  -1140.29205530     A.U. after   14 cycles
 SCF Done:  E(RB3LYP) =  -1140.29353369     A.U. after   14 cycles
 SCF Done:  E(RB3LYP) =  -1140.29560836     A.U. after   13 cycles
 SCF Done:  E(RB3LYP) =  -1140.29863290     A.U. after   16 cycles
 SCF Done:  E(RB3LYP) =  -1140.29965975     A.U. after   13 cycles
 SCF Done:  E(RB3LYP) =  -1140.30046679     A.U. after   13 cycles
 SCF Done:  E(RB3LYP) =  -1140.30071454     A.U. after   12 cycles
 SCF Done:  E(RB3LYP) =  -1140.30094055     A.U. after   12 cycles
 SCF Done:  E(RB3LYP) =  -1140.30167055     A.U. after   11 cycles
 SCF Done:  E(RB3LYP) =  -1140.30167463     A.U. after   11 cycles
 SCF Done:  E(RB3LYP) =  -1140.30167508     A.U. after    9 cycles
 SCF Done:  E(RB3LYP) =  -1140.30167526     A.U. after    9 cycles
 SCF Done:  E(RB3LYP) =  -1140.30167530     A.U. after    7 cycles
 Optimization completed.
    -- Stationary point found.
 Normal termination of Gaussian 16 at Thu Dec 10 21:17:15 2020.

 --------------------------------------------------------------------
 #N Geom=AllCheck Guess=TCheck SCRF=Check GenChk RB3LYP/6-31G(d) Freq
 --------------------------------------------------------------------

 Structure from the checkpoint file:  "JID_6127.chk"
 -------------------------------
 CID_107779035_JID_6127_neutraal
 -------------------------------
 Charge =  0 Multiplicity = 1

 SCF Done:  E(RB3LYP) =  -1140.30167530     A.U. after    1 cycles

  Exact polarizability: 154.623  11.306 133.996  18.898  -8.556 100.223
 Approx polarizability: 216.239  19.456 231.077  36.276 -32.313 175.292

                      1                      2                      3
                      A                      A                      A
 Frequencies --     11.6300                30.1139                39.9778
 Red. masses --      5.4487                 5.5895                 7.7709
 Frc consts  --      0.0004                 0.0030                 0.0073
 IR Inten    --      0.4974                 1.6217                 1.5629

                      4                      5                      6
                      A                      A                      A
 Frequencies --     64.8861                68.8081               107.6985
 Red. masses --      5.4962                 9.2461                 5.8861
 Frc consts  --      0.0136                 0.0258                 0.0402
 IR Inten    --      1.3309                 1.1352                 0.9632

                      7                      8                      9
                      A                      A                      A
 Frequencies --    133.9658               168.9548               183.0114
 Red. masses --      1.0750                 4.6377                 5.5479
 Frc consts  --      0.0114                 0.0780                 0.1095
 IR Inten    --      0.1517                 0.7685                 0.1802

                     10                     11                     12
                      A                      A                      A
 Frequencies --    222.1494               230.9345               312.6701
 Red. masses --      4.7290                 3.5361                 5.9218
 Frc consts  --      0.1375                 0.1111                 0.3411
 IR Inten    --      1.7792                 2.3494                 3.3559

                     13                     14                     15
                      A                      A                      A
 Frequencies --    330.9299               360.9806               384.8718
 Red. masses --      2.9592                 6.8639                 4.0092
 Frc consts  --      0.1909                 0.5270                 0.3499
 IR Inten    --      0.7549                 1.9316                 2.3627

                     16                     17                     18
                      A                      A                      A
 Frequencies --    424.8475               487.7360               510.8474
 Red. masses --      7.8634                 8.8148                 6.4645
 Frc consts  --      0.8362                 1.2355                 0.9940
 IR Inten    --      4.8047                 9.5768                 2.3164

                     19                     20                     21
                      A                      A                      A
 Frequencies --    582.0866               621.7241               623.0492
 Red. masses --      1.8474                 4.0659                 6.9651
 Frc consts  --      0.3688                 0.9260                 1.5930
 IR Inten    --     36.9222                 2.4913                 5.9331

                     22                     23                     24
                      A                      A                      A
 Frequencies --    665.7452               672.0028               687.4933
 Red. masses --      4.2829                 2.3548                 4.2379
 Frc consts  --      1.1184                 0.6265                 1.1802
 IR Inten    --      3.9378                78.9053                39.4947

                     25                     26                     27
                      A                      A                      A
 Frequencies --    690.5611               730.9051               737.0994
 Red. masses --      4.4483                 4.4475                 1.3655
 Frc consts  --      1.2498                 1.3999                 0.4371
 IR Inten    --     12.7264                 5.6291                27.4516

                     28                     29                     30
                      A                      A                      A
 Frequencies --    756.3599               786.9730               837.6538
 Red. masses --      4.1977                 4.1868                 1.6351
 Frc consts  --      1.4149                 1.5277                 0.6760
 IR Inten    --     26.5159                33.6085                13.4320

                     31                     32                     33
                      A                      A                      A
 Frequencies --    847.0868               894.1093               912.5495
 Red. masses --      1.2829                 1.8228                 6.2886
 Frc consts  --      0.5424                 0.8586                 3.0855
 IR Inten    --      3.6678                 3.2963                 8.6360

                     34                     35                     36
                      A                      A                      A
 Frequencies --    971.0544               984.3303              1018.7713
 Red. masses --      1.8484                 9.1136                10.2239
 Frc consts  --      1.0269                 5.2026                 6.2520
 IR Inten    --     11.8854                33.9210                31.1299

                     37                     38                     39
                      A                      A                      A
 Frequencies --   1025.3716              1050.9685              1079.9176
 Red. masses --      4.4247                 1.9828                 1.4766
 Frc consts  --      2.7409                 1.2904                 1.0146
 IR Inten    --     10.0702                 0.6884                 1.6204

                     40                     41                     42
                      A                      A                      A
 Frequencies --   1125.7926              1131.1378              1153.9504
 Red. masses --      2.3727                 1.3955                 1.6874
 Frc consts  --      1.7718                 1.0520                 1.3239
 IR Inten    --     21.7224                20.8575                 4.2886

                     43                     44                     45
                      A                      A                      A
 Frequencies --   1165.4299              1187.2231              1223.6451
 Red. masses --      2.9419                 2.5279                 1.9620
 Frc consts  --      2.3543                 2.0993                 1.7309
 IR Inten    --     14.5674               305.6966                 2.3584

                     46                     47                     48
                      A                      A                      A
 Frequencies --   1265.3706              1272.3792              1307.1993
 Red. masses --      1.5685                 3.6493                 2.1581
 Frc consts  --      1.4797                 3.4809                 2.1727
 IR Inten    --     16.4170                15.7417                16.1935

                     49                     50                     51
                      A                      A                      A
 Frequencies --   1364.0082              1413.8240              1442.4624
 Red. masses --      2.2329                 2.1677                 1.4341
 Frc consts  --      2.4477                 2.5529                 1.7581
 IR Inten    --     26.4812                 0.8268                 4.9068

                     52                     53                     54
                      A                      A                      A
 Frequencies --   1472.2077              1492.2463              1506.6802
 Red. masses --      4.8402                 1.3104                 1.0630
 Frc consts  --      6.1809                 1.7192                 1.4217
 IR Inten    --     37.2659                12.6377                 5.8226

                     55                     56                     57
                      A                      A                      A
 Frequencies --   1511.7458              1514.2812              1566.8882
 Red. masses --      1.1422                 5.4896                 4.2907
 Frc consts  --      1.5380                 7.4165                 6.2066
 IR Inten    --      6.0952                98.1193                18.3079

                     58                     59                     60
                      A                      A                      A
 Frequencies --   1628.8073              1643.0570              1855.5253
 Red. masses --      6.4815                 7.7906                10.3549
 Frc consts  --     10.1314                12.3916                21.0053
 IR Inten    --     27.5034                 7.6229               274.4931

                     61                     62                     63
                      A                      A                      A
 Frequencies --   3050.5773              3096.8007              3104.5851
 Red. masses --      1.0383                 1.0578                 1.1007
 Frc consts  --      5.6927                 5.9771                 6.2505
 IR Inten    --     21.8068                 9.0568                12.2088

                     64                     65                     66
                      A                      A                      A
 Frequencies --   3149.9663              3153.8162              3281.9743
 Red. masses --      1.1001                 1.1087                 1.0912
 Frc consts  --      6.4311                 6.4976                 6.9250
 IR Inten    --      5.1633                 1.4509                 0.5762

                     67                     68                     69
                      A                      A                      A
 Frequencies --   3309.8396              3310.7929              3695.3957
 Red. masses --      1.1061                 1.0990                 1.0641
 Frc consts  --      7.1392                 7.0976                 8.5616
 IR Inten    --      0.8445                 2.6646                79.7599

 - Thermochemistry -
 -------------------
 Temperature   298.150 Kelvin.  Pressure   1.00000 Atm.
 Atom     1 has atomic number  6 and mass  12.00000

 Molecular mass:   239.02523 amu.
 Principal axes and moments of inertia in atomic units:
                           1         2         3
     Eigenvalues --  2119.765295821.439756664.23335
           X            0.99980  -0.00709   0.01868
           Y            0.00666   0.99972   0.02292
           Z           -0.01884  -0.02279   0.99956
 This molecule is an asymmetric top.
 Rotational symmetry number  1.
 Warning -- assumption of classical behavior for rotation
           may cause significant error
 Rotational temperatures (Kelvin)      0.04086     0.01488     0.01300
 Rotational constants (GHZ):           0.85139     0.31002     0.27081
 Zero-point vibrational energy     476403.4 (Joules/Mol)
                                  113.86316 (Kcal/Mol)
 Warning -- explicit consideration of  19 degrees of freedom as
           vibrations may cause significant error
 Vibrational temperatures:     16.73    43.33    57.52    93.36    99.00
          (Kelvin)            154.95   192.75   243.09   263.31   319.62
                              332.26   449.86   476.13   519.37   553.74
                              611.26   701.74   735.00   837.49   894.52
                              896.43   957.86   966.86   989.15   993.56
                             1051.61  1060.52  1088.23  1132.28  1205.20
                             1218.77  1286.42  1312.96  1397.13  1416.23
                             1465.78  1475.28  1512.11  1553.76  1619.76
                             1627.45  1660.28  1676.79  1708.15  1760.55
                             1820.59  1830.67  1880.77  1962.50  2034.18
                             2075.38  2118.18  2147.01  2167.78  2175.07
                             2178.71  2254.40  2343.49  2363.99  2669.69
                             4389.10  4455.61  4466.81  4532.10  4537.64
                             4722.03  4762.12  4763.49  5316.85

 Zero-point correction=                           0.181452 (Hartree/Particle)
 Thermal correction to Energy=                    0.196346
 Thermal correction to Enthalpy=                  0.197290
 Thermal correction to Gibbs Free Energy=         0.135824
 Sum of electronic and zero-point Energies=          -1140.120223
 Sum of electronic and thermal Energies=             -1140.105329
 Sum of electronic and thermal Enthalpies=           -1140.104385
 Sum of electronic and thermal Free Energies=        -1140.165851

                     E (Thermal)             CV                S
                      KCal/Mol        Cal/Mol-Kelvin    Cal/Mol-Kelvin
 Total                  123.209             53.755            129.366
 Electronic               0.000              0.000              0.000
 Translational            0.889              2.981             42.315
 Rotational               0.889              2.981             32.775
 Vibrational            121.431             47.793             54.276
 Vibration     1          0.593              1.987              7.711
 Vibration     2          0.594              1.984              5.822
 Vibration     3          0.594              1.981              5.260
 Vibration     4          0.597              1.971              4.303
 Vibration     5          0.598              1.969              4.187
 Vibration     6          0.606              1.943              3.310
 Vibration     7          0.613              1.919              2.888
 Vibration     8          0.625              1.881              2.447
 Vibration     9          0.631              1.863              2.297
 Vibration    10          0.648              1.807              1.942
 Vibration    11          0.653              1.794              1.872
 Vibration    12          0.701              1.650              1.348
 Vibration    13          0.713              1.614              1.256
 Vibration    14          0.735              1.553              1.118
 Vibration    15          0.754              1.502              1.020
 Vibration    16          0.787              1.416              0.876
 Vibration    17          0.844              1.277              0.690
 Vibration    18          0.866              1.226              0.632
 Vibration    19          0.939              1.070              0.482

                           ! Non-Optimized Parameters !
 Normal termination of Gaussian 16 at Thu Dec 10 21:24:42 2020.

 ----------------------------------------------------------------------
 # B3LYP/6-311++G(d,p) empiricaldispersion=gd3bj scf=xqc pop=npa geom=c
 heck
 ----------------------------------------------------------------------

 ---------------------------------------
 CID_107779035_JID_6127_Energie_neutraal
 ---------------------------------------
 Structure from the checkpoint file:  "JID_6127.chk"
 Charge =  0 Multiplicity = 1

 SCF Done:  E(RB3LYP) =  -1140.54161824     A.U. after   16 cycles
 Normal termination of Gaussian 16 at Thu Dec 10 21:27:41 2020.

 ----------------------------------------------------------------------
 # B3LYP/6-311++G(d,p) empiricaldispersion=gd3bj scf=xqc pop=npa geom=c
 heck
 ----------------------------------------------------------------------

 -------------------------------------
 CID_107779035_JID_6127_Energie_kation
 -------------------------------------
 Structure from the checkpoint file:  "JID_6127.chk"
 Charge =  1 Multiplicity = 2

 SCF Done:  E(UB3LYP) =  -1140.23640290     A.U. after   28 cycles
 Normal termination of Gaussian 16 at Thu Dec 10 21:34:26 2020.
 Gaussian 16:  ES64L-G16RevA.03 25-Dec-2016

 ----------------------------------------------------------------------
 # B3LYP/6-311++G(d,p) empiricaldispersion=gd3bj scf=xqc pop=npa geom=c
 heck
 ----------------------------------------------------------------------

 ------------------------------------
 CID_107779035_JID_6127_Energie_anion
 ------------------------------------
 Structure from the checkpoint file:  "JID_6127.chk"
 Charge = -1 Multiplicity = 2

                         Standard orientation:
 ---------------------------------------------------------------------
 Center     Atomic      Atomic             Coordinates (Angstroms)
 Number     Number       Type             X           Y           Z
 ---------------------------------------------------------------------
      1          6           0        3.756321   -0.489735    1.110028
      2          6           0        2.686948   -0.830446    0.138910
      3          6           0        1.906145   -0.078494   -0.702553
      4          6           0        1.018280   -0.994549   -1.374836
      5          6           0        1.322435   -2.225817   -0.896038
      6          8           0        2.337758   -2.141447    0.022615
      7         16           0        1.936092    1.676486   -0.872272
      8          6           0        0.786181    2.158397    0.517519
      9          6           0       -0.427928    1.311562    0.560306
     10          6           0       -1.589638    1.260946   -0.151079
     11          6           0       -2.251461    0.112457    0.365158
     12          7           0       -1.550706   -0.483777    1.313039
     13          8           0       -0.401434    0.272855    1.435236
     14          6           0       -3.565672   -0.450674   -0.032636
     15          8           0       -4.081489   -1.443342    0.422958
     16          8           0       -4.132373    0.309210   -1.004871
     17          1           0        3.437770   -0.693990    2.139582
     18          1           0        4.663758   -1.074432    0.921191
     19          1           0        3.999384    0.572172    1.022952
     20          1           0        0.263690   -0.738255   -2.103383
     21          1           0        0.945416   -3.219109   -1.081890
     22          1           0        1.319887    2.087620    1.467737
     23          1           0        0.529519    3.204030    0.330333
     24          1           0       -1.927056    1.921756   -0.933189
     25          1           0       -4.984272   -0.117224   -1.214428
 ---------------------------------------------------------------------

 SCF Done:  E(UB3LYP) =  -1140.55081456     A.U. after   33 cycles
 SCF Done:  E(UB3LYP) =  -1140.55081456     a.u. after    1 cycles

 The electronic state is 2-A.
 Alpha  occ. eigenvalues --  -88.73078 -19.08311 -19.03544 -19.02548 -18.95046
 Alpha  occ. eigenvalues --  -14.17423 -10.13656 -10.12444 -10.11415 -10.09272
 Alpha  occ. eigenvalues --  -10.08503 -10.08436 -10.08004 -10.06459 -10.04146
 Alpha  occ. eigenvalues --  -10.03371  -7.81692  -5.78091  -5.77733  -5.77053
 Alpha  occ. eigenvalues --   -1.00750  -0.98443  -0.96070  -0.86764  -0.72433
 Alpha  occ. eigenvalues --   -0.70710  -0.68072  -0.67508  -0.62793  -0.58926
 Alpha  occ. eigenvalues --   -0.55011  -0.53342  -0.48658  -0.46082  -0.43645
 Alpha  occ. eigenvalues --   -0.41217  -0.40122  -0.37766  -0.36429  -0.34245
 Alpha  occ. eigenvalues --   -0.33943  -0.33383  -0.33065  -0.31005  -0.30727
 Alpha  occ. eigenvalues --   -0.30419  -0.30256  -0.29312  -0.29070  -0.27663
 Alpha  occ. eigenvalues --   -0.27204  -0.25677  -0.23428  -0.22860  -0.18635
 Alpha  occ. eigenvalues --   -0.16951  -0.14954  -0.14442  -0.13277  -0.12833
 Alpha  occ. eigenvalues --   -0.12163  -0.10998   0.05007
 Alpha virt. eigenvalues --    0.07152   0.08462   0.09006   0.09442   0.09873
 Alpha virt. eigenvalues --    0.10933   0.11166   0.11670   0.11967   0.12900
 Alpha virt. eigenvalues --    0.13111   0.13845   0.15000   0.15391   0.15696

  Beta  occ. eigenvalues --  -88.73041 -19.08299 -19.03105 -19.02453 -18.94829
  Beta  occ. eigenvalues --  -14.16582 -10.13386 -10.12389 -10.11422 -10.09232
  Beta  occ. eigenvalues --  -10.08450 -10.08375 -10.07998 -10.06456 -10.04114
  Beta  occ. eigenvalues --  -10.03450  -7.81653  -5.78026  -5.77688  -5.77027
  Beta  occ. eigenvalues --   -1.00723  -0.97608  -0.95761  -0.86410  -0.72181
  Beta  occ. eigenvalues --   -0.70027  -0.68036  -0.67286  -0.62489  -0.58862
  Beta  occ. eigenvalues --   -0.54810  -0.52706  -0.48619  -0.45897  -0.43586
  Beta  occ. eigenvalues --   -0.40938  -0.39994  -0.37570  -0.36300  -0.34154
  Beta  occ. eigenvalues --   -0.33662  -0.33219  -0.31814  -0.30951  -0.30621
  Beta  occ. eigenvalues --   -0.30134  -0.29409  -0.29192  -0.28827  -0.27257
  Beta  occ. eigenvalues --   -0.26686  -0.25450  -0.23120  -0.22559  -0.17548
  Beta  occ. eigenvalues --   -0.16883  -0.13740  -0.13405  -0.13016  -0.12338
  Beta  occ. eigenvalues --   -0.11808  -0.09123
  Beta virt. eigenvalues --    0.07222   0.08499   0.08980   0.09516   0.09854
  Beta virt. eigenvalues --    0.10974   0.11180   0.11739   0.12034   0.12768
  Beta virt. eigenvalues --    0.12864   0.13042   0.13895   0.15055   0.15572

 Mulliken charges and spin densities:
               1          2
     1  C    0.026210  -0.586666
     2  C   -0.521607   0.433695
     3  C    0.520031  -0.119789
     4  C    0.005893   0.013019
     5  C   -0.370362   0.070652
     6  O   -0.026402   0.005672
     7  S   -0.229808  -0.050654
     8  C   -0.863658   0.072664
     9  C    0.111214   0.053102
    10  C   -0.662227   0.041903
    11  C    0.237522  -0.037591
    12  N   -0.482452   0.408680
    13  O    0.238364   0.083394
    14  C    0.297801   0.194220
    15  O   -0.387458   0.077173
    16  O   -0.216360   0.015023
    17  H    0.176936   0.003627
    18  H   -0.003030   0.147498
    19  H    0.007052   0.144561
    20  H    0.171566   0.006066
    21  H    0.153827   0.017718
    22  H    0.213482   0.002303
    23  H    0.192644  -0.000621
    24  H    0.155567   0.004508
    25  H    0.255253  -0.000157
 Sum of Mulliken charges =  -1.00000   1.00000

 Dipole moment (field-independent basis, Debye):
    X=              4.3601    Y=              2.3737    Z=             -2.6485  Tot=              5.6267
 Quadrupole moment (field-independent basis, Debye-Ang):
   XX=           -147.1752   YY=           -113.5781   ZZ=           -113.0776
   XY=            -10.7787   XZ=             14.5921   YZ=              8.3934

 Summary of Natural Population Analysis:

                                       Natural Population
                Natural  -----------------------------------------------
    Atom  No    Charge         Core      Valence    Rydberg      Total
 -----------------------------------------------------------------------
      C    1   -0.30734      0.99963     2.30308    0.00464     3.30734
      C    2    0.16599      0.99937     1.81792    0.01672     2.83401
      C    3   -0.15248      0.99933     2.13742    0.01573     3.15248
      C    4   -0.13602      0.99950     2.12665    0.00987     3.13602
      C    5    0.05597      0.99951     1.93122    0.01329     2.94403
      O    6   -0.23633      0.99986     3.22909    0.00738     4.23633
      S    7    0.10420      4.99956     2.87501    0.02123     7.89580
      C    8   -0.24967      0.99952     2.24202    0.00813     3.24967
      C    9    0.15472      0.99949     1.83103    0.01476     2.84528
      C   10   -0.17657      0.99945     2.16937    0.00776     3.17657
      C   11   -0.00294      0.99955     1.98867    0.01472     3.00294
      N   12    0.06702      0.99968     2.41857    0.01473     3.43298
      O   13   -0.13777      0.99985     3.12656    0.01136     4.13777
      C   14    0.42318      0.99967     1.55366    0.02349     2.57682
      O   15   -0.29849      0.99987     3.29182    0.00680     4.29849
      O   16   -0.35305      0.99988     3.34559    0.00757     4.35305
      H   17    0.10751      0.00000     0.39127    0.00122     0.39249
      H   18    0.10388      0.00000     0.39463    0.00149     0.39612
      H   19    0.11307      0.00000     0.38550    0.00143     0.38693
      H   20    0.11434      0.00000     0.38487    0.00078     0.38566
      H   21    0.09383      0.00000     0.40532    0.00085     0.40617
      H   22    0.10454      0.00000     0.39314    0.00232     0.39546
      H   23    0.10617      0.00000     0.39285    0.00098     0.39383
      H   24    0.10948      0.00000     0.38962    0.00090     0.39052
      H   25    0.22674      0.00000     0.26785    0.00541     0.27326
 =======================================================================
   * Total *    0.00000     19.99371    41.79270    0.21359    62.00000

 Normal termination of Gaussian 16 at Thu Dec 10 21:42:21 2020.
