 Gaussian 16, Revision A.03,

 -----------------------------------------------------------
 # opt freq B3LYP/6-31G(d) empiricaldispersion=gd3bj scf=xqc
 -----------------------------------------------------------

 -------------------------------
 CID_129928119_JID_2099_neutraal
 -------------------------------
 Symbolic Z-matrix:
 Charge =  0 Multiplicity = 1

 SCF Done:  E(RB3LYP) =  -500.260965123     A.U. after   14 cycles
 SCF Done:  E(RB3LYP) =  -500.264609935     A.U. after   12 cycles
 SCF Done:  E(RB3LYP) =  -500.264977864     A.U. after   11 cycles
 SCF Done:  E(RB3LYP) =  -500.265084207     A.U. after   11 cycles
 SCF Done:  E(RB3LYP) =  -500.265117029     A.U. after   10 cycles
 SCF Done:  E(RB3LYP) =  -500.265129740     A.U. after   10 cycles
 SCF Done:  E(RB3LYP) =  -500.265130795     A.U. after    8 cycles
 SCF Done:  E(RB3LYP) =  -500.265130970     A.U. after    7 cycles
 SCF Done:  E(RB3LYP) =  -500.265131077     A.U. after    7 cycles
 SCF Done:  E(RB3LYP) =  -500.265131124     A.U. after    7 cycles
 SCF Done:  E(RB3LYP) =  -500.265402818     A.U. after   10 cycles
 SCF Done:  E(RB3LYP) =  -500.265412523     A.U. after    9 cycles
 SCF Done:  E(RB3LYP) =  -500.265420027     A.U. after   10 cycles
 SCF Done:  E(RB3LYP) =  -500.265420429     A.U. after    7 cycles
 SCF Done:  E(RB3LYP) =  -500.265420693     A.U. after    7 cycles
 Optimization completed.
    -- Stationary point found.
 Normal termination of Gaussian 16 at Wed Dec  9 17:12:01 2020.

 --------------------------------------------------------------------
 #N Geom=AllCheck Guess=TCheck SCRF=Check GenChk RB3LYP/6-31G(d) Freq
 --------------------------------------------------------------------

 Structure from the checkpoint file:  "JID_2099.chk"
 -------------------------------
 CID_129928119_JID_2099_neutraal
 -------------------------------
 Charge =  0 Multiplicity = 1

 SCF Done:  E(RB3LYP) =  -500.265420693     A.U. after    1 cycles

  Exact polarizability: 157.074  -2.690 126.949  -4.003   1.025  73.499
 Approx polarizability: 213.613  -2.352 197.557 -10.993   2.490 111.812

                      1                      2                      3
                      A                      A                      A
 Frequencies --     52.8437                55.6239                67.8660
 Red. masses --      2.1148                 1.2778                 2.3017
 Frc consts  --      0.0035                 0.0023                 0.0062
 IR Inten    --      0.1450                 0.1755                 0.5171

                      4                      5                      6
                      A                      A                      A
 Frequencies --     87.9226               171.7208               178.2763
 Red. masses --      2.0373                 2.3469                 1.1862
 Frc consts  --      0.0093                 0.0408                 0.0222
 IR Inten    --      2.2063                 1.9678                 1.1408

                      7                      8                      9
                      A                      A                      A
 Frequencies --    191.9490               199.3849               236.8051
 Red. masses --      1.3395                 1.7709                 3.2917
 Frc consts  --      0.0291                 0.0415                 0.1088
 IR Inten    --      0.1073                 0.5812                 2.1456

                     10                     11                     12
                      A                      A                      A
 Frequencies --    258.1998               280.5556               284.5046
 Red. masses --      1.1673                 2.8092                 2.4862
 Frc consts  --      0.0458                 0.1303                 0.1186
 IR Inten    --      0.5632                 1.1039                 1.4557

                     13                     14                     15
                      A                      A                      A
 Frequencies --    334.3606               352.7781               406.2037
 Red. masses --      2.9231                 2.8512                 4.1278
 Frc consts  --      0.1925                 0.2091                 0.4013
 IR Inten    --      0.8991                 0.9765                 0.3252

                     16                     17                     18
                      A                      A                      A
 Frequencies --    509.9134               538.1930               542.9043
 Red. masses --      3.5773                 3.5163                 4.1386
 Frc consts  --      0.5480                 0.6001                 0.7187
 IR Inten    --      2.7637                 1.1993                 5.9161

                     19                     20                     21
                      A                      A                      A
 Frequencies --    572.2290               596.0236               621.5562
 Red. masses --      3.6482                 4.0217                 4.1014
 Frc consts  --      0.7038                 0.8418                 0.9336
 IR Inten    --      9.1309                 1.7024                 2.0927

                     22                     23                     24
                      A                      A                      A
 Frequencies --    748.7028               771.9174               809.2061
 Red. masses --      2.4412                 2.6602                 1.3598
 Frc consts  --      0.8063                 0.9339                 0.5246
 IR Inten    --     33.9223                20.1484                 7.1807

                     25                     26                     27
                      A                      A                      A
 Frequencies --    842.9423               886.5256               933.8045
 Red. masses --      1.6377                 1.2761                 2.1206
 Frc consts  --      0.6856                 0.5909                 1.0895
 IR Inten    --     12.1130                 5.5187                 1.4348

                     28                     29                     30
                      A                      A                      A
 Frequencies --    956.6409               981.0419              1039.9072
 Red. masses --      2.0680                 3.0820                 1.8035
 Frc consts  --      1.1151                 1.7476                 1.1491
 IR Inten    --     10.3980                 3.2711                 9.0236

                     31                     32                     33
                      A                      A                      A
 Frequencies --   1051.2066              1058.4573              1063.8777
 Red. masses --      1.8364                 1.6277                 1.5502
 Frc consts  --      1.1956                 1.0744                 1.0338
 IR Inten    --      1.5496                 1.9431                 8.1506

                     34                     35                     36
                      A                      A                      A
 Frequencies --   1075.8690              1076.2771              1076.9442
 Red. masses --      2.5891                 1.6170                 1.6181
 Frc consts  --      1.7657                 1.1036                 1.1057
 IR Inten    --      7.1365                 3.5008                 1.6941

                     37                     38                     39
                      A                      A                      A
 Frequencies --   1148.1035              1186.0546              1207.5829
 Red. masses --      1.8702                 1.7921                 2.3948
 Frc consts  --      1.4525                 1.4853                 2.0576
 IR Inten    --      5.4208                34.9554                33.5761

                     40                     41                     42
                      A                      A                      A
 Frequencies --   1284.3380              1306.0674              1319.3260
 Red. masses --      2.0957                 1.8737                 2.1156
 Frc consts  --      2.0368                 1.8832                 2.1697
 IR Inten    --     68.7519                 9.2083                 0.9059

                     43                     44                     45
                      A                      A                      A
 Frequencies --   1366.9769              1390.6538              1421.4583
 Red. masses --      4.1170                 1.4803                 1.6415
 Frc consts  --      4.5326                 1.6868                 1.9542
 IR Inten    --      6.7644                35.7738                 7.7357

                     46                     47                     48
                      A                      A                      A
 Frequencies --   1433.2750              1436.5712              1440.4885
 Red. masses --      1.5368                 1.3134                 1.4534
 Frc consts  --      1.8601                 1.5970                 1.7769
 IR Inten    --     13.4677                 5.9087                 0.1032

                     49                     50                     51
                      A                      A                      A
 Frequencies --   1444.1254              1478.6114              1503.1837
 Red. masses --      1.4900                 1.9420                 1.2416
 Frc consts  --      1.8308                 2.5016                 1.6530
 IR Inten    --      3.7165                18.5984                35.3861

                     52                     53                     54
                      A                      A                      A
 Frequencies --   1507.1735              1512.4275              1517.6023
 Red. masses --      1.0456                 1.0724                 1.1013
 Frc consts  --      1.3994                 1.4452                 1.4944
 IR Inten    --      4.4525                13.2293                10.0761

                     55                     56                     57
                      A                      A                      A
 Frequencies --   1521.6434              1524.0111              1528.9897
 Red. masses --      1.0518                 1.0936                 1.3368
 Frc consts  --      1.4349                 1.4965                 1.8413
 IR Inten    --      4.3954                18.9998                58.2221

                     58                     59                     60
                      A                      A                      A
 Frequencies --   1531.0583              1539.4898              1555.5970
 Red. masses --      1.0760                 1.2257                 1.0864
 Frc consts  --      1.4861                 1.7116                 1.5489
 IR Inten    --     13.6459                25.5967                 7.7502

                     61                     62                     63
                      A                      A                      A
 Frequencies --   1630.1445              1654.6605              2973.9689
 Red. masses --      5.4367                 5.1910                 1.0754
 Frc consts  --      8.5121                 8.3738                 5.6039
 IR Inten    --     13.7346                25.6877                60.7407

                     64                     65                     66
                      A                      A                      A
 Frequencies --   3030.5704              3042.5165              3047.4691
 Red. masses --      1.0440                 1.0422                 1.0387
 Frc consts  --      5.6496                 5.6840                 5.6833
 IR Inten    --     24.7758                23.2558                27.4316

                     67                     68                     69
                      A                      A                      A
 Frequencies --   3052.4883              3081.8822              3099.1440
 Red. masses --      1.0360                 1.0971                 1.0896
 Frc consts  --      5.6874                 6.1396                 6.1662
 IR Inten    --     27.5589                22.1106                 8.4704

                     70                     71                     72
                      A                      A                      A
 Frequencies --   3101.9195              3110.3383              3119.8703
 Red. masses --      1.0923                 1.1008                 1.0954
 Frc consts  --      6.1923                 6.2747                 6.2818
 IR Inten    --     15.9769                16.9868                50.0066

                     73                     74                     75
                      A                      A                      A
 Frequencies --   3132.6667              3134.1046              3136.6301
 Red. masses --      1.1028                 1.1035                 1.1033
 Frc consts  --      6.3763                 6.3860                 6.3954
 IR Inten    --     17.6681                28.8414                 7.8459

                     76                     77                     78
                      A                      A                      A
 Frequencies --   3159.4912              3183.2835              3533.3542
 Red. masses --      1.0970                 1.0908                 1.0732
 Frc consts  --      6.4517                 6.5122                 7.8944
 IR Inten    --      7.7435                21.7488                 1.5168

 - Thermochemistry -
 -------------------
 Temperature   298.150 Kelvin.  Pressure   1.00000 Atm.
 Atom     1 has atomic number  6 and mass  12.00000

 Molecular mass:   164.13135 amu.
 Principal axes and moments of inertia in atomic units:
                           1         2         3
     Eigenvalues --  1120.705562942.604703876.25286
           X            0.99997  -0.00758   0.00108
           Y            0.00758   0.99997   0.00215
           Z           -0.00110  -0.00214   1.00000
 This molecule is an asymmetric top.
 Rotational symmetry number  1.
 Warning -- assumption of classical behavior for rotation
           may cause significant error
 Rotational temperatures (Kelvin)      0.07729     0.02943     0.02234
 Rotational constants (GHZ):           1.61036     0.61331     0.46559
 Zero-point vibrational energy     647433.6 (Joules/Mol)
                                  154.74035 (Kcal/Mol)
 Warning -- explicit consideration of  20 degrees of freedom as
           vibrations may cause significant error
 Vibrational temperatures:     76.03    80.03    97.64   126.50   247.07
          (Kelvin)            256.50   276.17   286.87   340.71   371.49
                              403.66   409.34   481.07   507.57   584.44
                              733.65   774.34   781.12   823.31   857.54
                              894.28  1077.22  1110.62  1164.27  1212.81
                             1275.51  1343.54  1376.39  1411.50  1496.19
                             1512.45  1522.88  1530.68  1547.94  1548.52
                             1549.48  1651.86  1706.47  1737.44  1847.88
                             1879.14  1898.22  1966.77  2000.84  2045.16
                             2062.16  2066.91  2072.54  2077.77  2127.39
                             2162.75  2168.49  2176.05  2183.49  2189.31
                             2192.71  2199.88  2202.85  2214.98  2238.16
                             2345.41  2380.69  4278.88  4360.31  4377.50
                             4384.63  4391.85  4434.14  4458.98  4462.97
                             4475.08  4488.80  4507.21  4509.28  4512.91
                             4545.80  4580.03  5083.71

 Zero-point correction=                           0.246594 (Hartree/Particle)
 Thermal correction to Energy=                    0.259878
 Thermal correction to Enthalpy=                  0.260822
 Thermal correction to Gibbs Free Energy=         0.206760
 Sum of electronic and zero-point Energies=           -500.018826
 Sum of electronic and thermal Energies=              -500.005543
 Sum of electronic and thermal Enthalpies=            -500.004598
 Sum of electronic and thermal Free Energies=         -500.058660

                     E (Thermal)             CV                S
                      KCal/Mol        Cal/Mol-Kelvin    Cal/Mol-Kelvin
 Total                  163.076             48.826            113.783
 Electronic               0.000              0.000              0.000
 Translational            0.889              2.981             41.195
 Rotational               0.889              2.981             30.925
 Vibrational            161.298             42.864             41.662
 Vibration     1          0.596              1.976              4.708
 Vibration     2          0.596              1.975              4.607
 Vibration     3          0.598              1.970              4.214
 Vibration     4          0.601              1.958              3.706
 Vibration     5          0.626              1.877              2.417
 Vibration     6          0.629              1.869              2.346
 Vibration     7          0.634              1.851              2.209
 Vibration     8          0.638              1.841              2.139
 Vibration     9          0.656              1.784              1.827
 Vibration    10          0.667              1.749              1.674
 Vibration    11          0.680              1.710              1.530
 Vibration    12          0.683              1.702              1.506
 Vibration    13          0.716              1.607              1.239
 Vibration    14          0.729              1.570              1.154
 Vibration    15          0.771              1.457              0.940
 Vibration    16          0.865              1.228              0.634
 Vibration    17          0.893              1.166              0.569
 Vibration    18          0.898              1.155              0.559
 Vibration    19          0.928              1.091              0.500
 Vibration    20          0.954              1.040              0.457

 Optimization completed.
    -- Stationary point found.
 Normal termination of Gaussian 16 at Wed Dec  9 17:18:32 2020.

 ----------------------------------------------------------------------
 # B3LYP/6-311++G(d,p) empiricaldispersion=gd3bj scf=xqc pop=npa geom=c
 heck
 ----------------------------------------------------------------------

 ---------------------------------------
 CID_129928119_JID_2099_Energie_neutraal
 ---------------------------------------
 Structure from the checkpoint file:  "JID_2099.chk"
 Charge =  0 Multiplicity = 1

 SCF Done:  E(RB3LYP) =  -500.401137822     A.U. after   14 cycles
 Normal termination of Gaussian 16 at Wed Dec  9 17:20:59 2020.

 ----------------------------------------------------------------------
 # B3LYP/6-311++G(d,p) empiricaldispersion=gd3bj scf=xqc pop=npa geom=c
 heck
 ----------------------------------------------------------------------

 -------------------------------------
 CID_129928119_JID_2099_Energie_kation
 -------------------------------------
 Structure from the checkpoint file:  "JID_2099.chk"
 Charge =  1 Multiplicity = 2

 SCF Done:  E(UB3LYP) =  -500.118713623     A.U. after   22 cycles
 Normal termination of Gaussian 16 at Wed Dec  9 17:26:04 2020.
 Gaussian 16:  ES64L-G16RevA.03 25-Dec-2016

 ----------------------------------------------------------------------
 # B3LYP/6-311++G(d,p) empiricaldispersion=gd3bj scf=xqc pop=npa geom=c
 heck
 ----------------------------------------------------------------------

 ------------------------------------
 CID_129928119_JID_2099_Energie_anion
 ------------------------------------
 Structure from the checkpoint file:  "JID_2099.chk"
 Charge = -1 Multiplicity = 2

                         Standard orientation:
 ---------------------------------------------------------------------
 Center     Atomic      Atomic             Coordinates (Angstroms)
 Number     Number       Type             X           Y           Z
 ---------------------------------------------------------------------
      1          6           0        4.054272   -0.059683    0.265127
      2          6           0        2.592241    0.096316    0.666682
      3          7           0        1.715713   -0.189922   -0.479251
      4          6           0        0.319968   -0.065215   -0.253575
      5          6           0       -0.511508   -1.200129   -0.142679
      6          7           0       -1.834106   -1.117897    0.036350
      7          6           0       -2.403461    0.094490    0.130364
      8          6           0       -1.654342    1.265340    0.022057
      9          6           0       -0.273953    1.206105   -0.181781
     10          6           0        0.537668    2.461614   -0.355059
     11          6           0       -3.894022    0.119661    0.354681
     12          6           0        0.062232   -2.594281   -0.239902
     13          1           0        4.268398   -1.087550   -0.054306
     14          1           0        4.715286    0.170334    1.107313
     15          1           0        4.297085    0.609637   -0.566367
     16          1           0        2.362438   -0.552392    1.529637
     17          1           0        2.405700    1.123739    0.991984
     18          1           0        1.933474   -1.116282   -0.833986
     19          1           0       -2.147558    2.232486    0.077625
     20          1           0       -0.082585    3.275410   -0.743275
     21          1           0        0.965036    2.805189    0.596122
     22          1           0        1.370481    2.283657   -1.042424
     23          1           0       -4.277420    1.143256    0.405157
     24          1           0       -4.413418   -0.408229   -0.452942
     25          1           0       -4.150243   -0.393839    1.288521
     26          1           0       -0.729712   -3.315515   -0.030860
     27          1           0        0.457744   -2.809130   -1.242681
     28          1           0        0.879487   -2.751339    0.475292
 ---------------------------------------------------------------------

 SCF Done:  E(UB3LYP) =  -500.386138631     A.U. after   33 cycles
 SCF Done:  E(UB3LYP) =  -500.386138631     a.u. after    1 cycles

 The electronic state is 2-A.
 Alpha  occ. eigenvalues --  -14.20862 -14.19656 -10.10693 -10.10429 -10.10109
 Alpha  occ. eigenvalues --  -10.09308 -10.08712 -10.06963 -10.06925 -10.06536
 Alpha  occ. eigenvalues --  -10.06532 -10.05621  -0.84569  -0.81416  -0.70946
 Alpha  occ. eigenvalues --   -0.68868  -0.64249  -0.62075  -0.60121  -0.57321
 Alpha  occ. eigenvalues --   -0.51366  -0.49614  -0.47439  -0.42578  -0.39736
 Alpha  occ. eigenvalues --   -0.35972  -0.35221  -0.34796  -0.33278  -0.32358
 Alpha  occ. eigenvalues --   -0.31820  -0.31583  -0.30735  -0.30329  -0.28248
 Alpha  occ. eigenvalues --   -0.27734  -0.26999  -0.26853  -0.25790  -0.25143
 Alpha  occ. eigenvalues --   -0.24426  -0.18417  -0.16414  -0.15107  -0.11390
 Alpha  occ. eigenvalues --    0.04533
 Alpha virt. eigenvalues --    0.06354   0.07199   0.07425   0.08186   0.08743
 Alpha virt. eigenvalues --    0.08855   0.09217   0.10547   0.10820   0.11112
 Alpha virt. eigenvalues --    0.11579   0.11630   0.12070   0.13956   0.14256

  Beta  occ. eigenvalues --  -14.20853 -14.19632 -10.10693 -10.10417 -10.10101
  Beta  occ. eigenvalues --  -10.09279 -10.08684 -10.06950 -10.06919 -10.06506
  Beta  occ. eigenvalues --  -10.06500 -10.05573  -0.84538  -0.81387  -0.70898
  Beta  occ. eigenvalues --   -0.68836  -0.64197  -0.62029  -0.60074  -0.57278
  Beta  occ. eigenvalues --   -0.51260  -0.49574  -0.47377  -0.42547  -0.39700
  Beta  occ. eigenvalues --   -0.35932  -0.35177  -0.34741  -0.33230  -0.32317
  Beta  occ. eigenvalues --   -0.31773  -0.31541  -0.30693  -0.30299  -0.28208
  Beta  occ. eigenvalues --   -0.27693  -0.26959  -0.26792  -0.25733  -0.25097
  Beta  occ. eigenvalues --   -0.24377  -0.18370  -0.16316  -0.15068  -0.11346
  Beta virt. eigenvalues --    0.06613   0.07276   0.07636   0.07948   0.08736
  Beta virt. eigenvalues --    0.08905   0.09280   0.09709   0.10915   0.11140
  Beta virt. eigenvalues --    0.11471   0.11824   0.12216   0.12355   0.14414

 Mulliken charges and spin densities:
               1          2
     1  C    1.878560  -2.385797
     2  C   -0.980552   0.734204
     3  N   -0.087022   0.106481
     4  C   -0.060535  -0.082496
     5  C   -1.363641   1.224292
     6  N   -0.004843   0.080955
     7  C   -0.398873   0.642003
     8  C   -1.428819   0.696737
     9  C    0.591401   0.118502
    10  C    1.469579  -2.050728
    11  C    0.908536  -1.469380
    12  C    0.880842  -1.559754
    13  H   -0.472085   0.608635
    14  H   -0.424847   0.559902
    15  H   -0.185099   0.327384
    16  H   -0.317606   0.462391
    17  H    0.111242   0.036795
    18  H    0.203951   0.031740
    19  H   -0.403038   0.556156
    20  H   -0.050735   0.180420
    21  H   -0.398961   0.585093
    22  H   -0.002317   0.183162
    23  H   -0.209808   0.357817
    24  H    0.035682   0.113753
    25  H    0.085340   0.063336
    26  H    0.051723   0.120631
    27  H   -0.297860   0.455833
    28  H   -0.130215   0.301932
 Sum of Mulliken charges =  -1.00000   1.00000

 Dipole moment (field-independent basis, Debye):
    X=             -4.6645    Y=              0.0388    Z=             -1.2025  Tot=              4.8172
 Quadrupole moment (field-independent basis, Debye-Ang):
   XX=           -149.1866   YY=           -123.8395   ZZ=           -103.1394
   XY=              4.5898   XZ=             -4.6525   YZ=             -2.6054

 Summary of Natural Population Analysis:

                                       Natural Population
                Natural  -----------------------------------------------
    Atom  No    Charge         Core      Valence    Rydberg      Total
 -----------------------------------------------------------------------
      C    1   -0.28577      0.99967     2.28143    0.00467     3.28577
      C    2   -0.08412      0.99962     2.07447    0.01003     3.08412
      N    3   -0.33332      0.99970     2.82217    0.01145     3.83332
      C    4    0.06170      0.99938     1.92738    0.01154     2.93830
      C    5    0.10297      0.99950     1.88493    0.01259     2.89703
      N    6   -0.24878      0.99965     2.73798    0.01115     3.74878
      C    7    0.10349      0.99954     1.88459    0.01237     2.89651
      C    8   -0.12311      0.99946     2.11484    0.00881     3.12311
      C    9    0.00606      0.99948     1.98491    0.00955     2.99394
      C   10   -0.30062      0.99963     2.29480    0.00618     3.30062
      C   11   -0.29470      0.99964     2.28964    0.00542     3.29470
      C   12   -0.30577      0.99964     2.29932    0.00682     3.30577
      H   13    0.09674      0.00000     0.40095    0.00231     0.40326
      H   14    0.10204      0.00000     0.39631    0.00165     0.39796
      H   15    0.09909      0.00000     0.39936    0.00155     0.40091
      H   16    0.08125      0.00000     0.41696    0.00178     0.41875
      H   17    0.09342      0.00000     0.40464    0.00194     0.40658
      H   18    0.18014      0.00000     0.31559    0.00427     0.31986
      H   19    0.10047      0.00000     0.39850    0.00103     0.39953
      H   20    0.10219      0.00000     0.39685    0.00095     0.39781
      H   21    0.10877      0.00000     0.38938    0.00185     0.39123
      H   22    0.11215      0.00000     0.38646    0.00139     0.38785
      H   23    0.09848      0.00000     0.40056    0.00096     0.40152
      H   24    0.10412      0.00000     0.39436    0.00152     0.39588
      H   25    0.10386      0.00000     0.39471    0.00144     0.39614
      H   26    0.11090      0.00000     0.38765    0.00145     0.38910
      H   27    0.10243      0.00000     0.39623    0.00134     0.39757
      H   28    0.10592      0.00000     0.39257    0.00151     0.39408
 =======================================================================
   * Total *   -0.00000     11.99492    32.86756    0.13752    45.00000

 Normal termination of Gaussian 16 at Wed Dec  9 17:33:21 2020.
