 Gaussian 16, Revision A.03,

 -----------------------------------------------------------
 # opt freq B3LYP/6-31G(d) empiricaldispersion=gd3bj scf=xqc
 -----------------------------------------------------------

 -------------------------------
 CID_138341258_JID_9433_neutraal
 -------------------------------
 Symbolic Z-matrix:
 Charge =  0 Multiplicity = 1

 SCF Done:  E(RB3LYP) =  -1259.39488020     A.U. after   15 cycles
 SCF Done:  E(RB3LYP) =  -1259.40338645     A.U. after   13 cycles
 SCF Done:  E(RB3LYP) =  -1259.40428366     A.U. after   13 cycles
 SCF Done:  E(RB3LYP) =  -1259.40487474     A.U. after   13 cycles
 SCF Done:  E(RB3LYP) =  -1259.40591421     A.U. after   13 cycles
 SCF Done:  E(RB3LYP) =  -1259.40649635     A.U. after   13 cycles
 SCF Done:  E(RB3LYP) =  -1259.40778159     A.U. after   13 cycles
 SCF Done:  E(RB3LYP) =  -1259.40931051     A.U. after   13 cycles
 SCF Done:  E(RB3LYP) =  -1259.41065915     A.U. after   12 cycles
 SCF Done:  E(RB3LYP) =  -1259.41131525     A.U. after   13 cycles
 SCF Done:  E(RB3LYP) =  -1259.42072101     A.U. after   12 cycles
 SCF Done:  E(RB3LYP) =  -1259.42072849     A.U. after   11 cycles
 SCF Done:  E(RB3LYP) =  -1259.42072883     A.U. after   10 cycles
 SCF Done:  E(RB3LYP) =  -1259.42072897     A.U. after   10 cycles
 SCF Done:  E(RB3LYP) =  -1259.42072905     A.U. after    9 cycles
 Optimization completed on the basis of negligible forces.
    -- Stationary point found.
 Normal termination of Gaussian 16 at Sat Dec 12 10:20:24 2020.

 --------------------------------------------------------------------
 #N Geom=AllCheck Guess=TCheck SCRF=Check GenChk RB3LYP/6-31G(d) Freq
 --------------------------------------------------------------------

 Structure from the checkpoint file:  "JID_9433.chk"
 -------------------------------
 CID_138341258_JID_9433_neutraal
 -------------------------------
 Charge =  0 Multiplicity = 1

 SCF Done:  E(RB3LYP) =  -1259.42072905     A.U. after    1 cycles

  Exact polarizability: 226.320   7.503 133.901  -5.469   7.489 149.321
 Approx polarizability: 325.369  13.793 187.250  -9.420   4.788 257.567

                      1                      2                      3
                      A                      A                      A
 Frequencies --     19.5628                31.2285                44.7325
 Red. masses --      4.8212                 4.9648                 3.9224
 Frc consts  --      0.0011                 0.0029                 0.0046
 IR Inten    --      0.2278                 2.5764                 0.5542

                      4                      5                      6
                      A                      A                      A
 Frequencies --     45.5473                56.8153                65.1258
 Red. masses --      4.2139                 5.6220                 3.3336
 Frc consts  --      0.0052                 0.0107                 0.0083
 IR Inten    --      1.4171                 1.3611                 1.8377

                      7                      8                      9
                      A                      A                      A
 Frequencies --     85.2741               106.9222               122.9710
 Red. masses --      4.8462                 3.5458                 3.3717
 Frc consts  --      0.0208                 0.0239                 0.0300
 IR Inten    --      2.8835                 2.2322                 0.1224

                     10                     11                     12
                      A                      A                      A
 Frequencies --    163.7951               168.8739               194.9085
 Red. masses --      2.1471                 1.3418                 2.6645
 Frc consts  --      0.0339                 0.0225                 0.0596
 IR Inten    --      1.3147                 0.9402                 1.4862

                     13                     14                     15
                      A                      A                      A
 Frequencies --    205.3373               218.9262               247.0528
 Red. masses --      1.4495                 3.1687                 4.1894
 Frc consts  --      0.0360                 0.0895                 0.1507
 IR Inten    --      0.3158                 0.1670                 1.0078

                     16                     17                     18
                      A                      A                      A
 Frequencies --    259.2481               276.0569               307.4113
 Red. masses --      2.7046                 4.3158                 3.6079
 Frc consts  --      0.1071                 0.1938                 0.2009
 IR Inten    --      1.4614                 3.1207                 0.1957

                     19                     20                     21
                      A                      A                      A
 Frequencies --    344.0514               367.0071               381.0917
 Red. masses --      4.2813                 4.1164                 4.3272
 Frc consts  --      0.2986                 0.3267                 0.3703
 IR Inten    --      4.7545                 4.3730                 1.1927

                     22                     23                     24
                      A                      A                      A
 Frequencies --    410.9325               431.0291               442.6421
 Red. masses --      5.1266                 3.1810                 2.7444
 Frc consts  --      0.5101                 0.3482                 0.3168
 IR Inten    --      6.9126                 1.5659                 6.5926

                     25                     26                     27
                      A                      A                      A
 Frequencies --    459.4491               480.5384               518.6071
 Red. masses --      5.1422                 4.4502                 3.3564
 Frc consts  --      0.6395                 0.6055                 0.5319
 IR Inten    --      4.5568                 7.5588                13.3590

                     28                     29                     30
                      A                      A                      A
 Frequencies --    521.7971               529.2444               556.1691
 Red. masses --      3.5103                 3.8352                 2.8680
 Frc consts  --      0.5631                 0.6329                 0.5227
 IR Inten    --      5.3986                21.1072                58.5196

                     31                     32                     33
                      A                      A                      A
 Frequencies --    588.1951               646.3060               655.6062
 Red. masses --      4.1785                 2.3473                 6.2270
 Frc consts  --      0.8518                 0.5777                 1.5770
 IR Inten    --     18.8443                28.8689                 4.8495

                     34                     35                     36
                      A                      A                      A
 Frequencies --    686.3178               727.6319               741.4144
 Red. masses --      4.1979                 4.6006                 4.8515
 Frc consts  --      1.1650                 1.4351                 1.5713
 IR Inten    --     39.2287                54.9284                77.1179

                     37                     38                     39
                      A                      A                      A
 Frequencies --    775.2386               798.5466               822.2991
 Red. masses --      3.4422                 3.0825                 1.2606
 Frc consts  --      1.2189                 1.1581                 0.5022
 IR Inten    --     33.5914                16.9711                 0.9545

                     40                     41                     42
                      A                      A                      A
 Frequencies --    830.5272               847.1330               854.4415
 Red. masses --      1.2241                 1.6983                 2.5224
 Frc consts  --      0.4975                 0.7181                 1.0850
 IR Inten    --      2.4542                41.0185                 6.5377

                     43                     44                     45
                      A                      A                      A
 Frequencies --    920.6174               924.4256               952.2463
 Red. masses --      2.2708                 2.3618                 1.3017
 Frc consts  --      1.1339                 1.1891                 0.6954
 IR Inten    --     25.4820                35.6495                 0.3119

                     46                     47                     48
                      A                      A                      A
 Frequencies --    952.9555               979.4164              1003.5281
 Red. masses --      1.3657                 1.2374                 1.1542
 Frc consts  --      0.7307                 0.6993                 0.6848
 IR Inten    --      5.5480                 0.2039                43.0282

                     49                     50                     51
                      A                      A                      A
 Frequencies --   1018.2432              1033.2663              1035.4705
 Red. masses --      1.7602                 2.6975                 1.3171
 Frc consts  --      1.0752                 1.6968                 0.8320
 IR Inten    --      2.2957                 2.8992                 1.9280

                     52                     53                     54
                      A                      A                      A
 Frequencies --   1073.7704              1094.6698              1109.9817
 Red. masses --      4.1930                 2.1159                 5.2064
 Frc consts  --      2.8483                 1.4938                 3.7793
 IR Inten    --     48.9070                 3.7641                68.0766

                     55                     56                     57
                      A                      A                      A
 Frequencies --   1127.1009              1130.0497              1146.1731
 Red. masses --      8.5427                 2.1287                 1.3029
 Frc consts  --      6.3940                 1.6017                 1.0085
 IR Inten    --    190.9139                32.4529                 7.6887

                     58                     59                     60
                      A                      A                      A
 Frequencies --   1205.7345              1206.6231              1245.6163
 Red. masses --      1.5853                 1.1810                 3.2075
 Frc consts  --      1.3579                 1.0131                 2.9321
 IR Inten    --      2.4446                26.1984               115.7210

                     61                     62                     63
                      A                      A                      A
 Frequencies --   1260.8226              1285.3853              1291.7563
 Red. masses --      1.8650                 1.5032                 2.5597
 Frc consts  --      1.7467                 1.4633                 2.5165
 IR Inten    --    120.2618                10.7729               213.3834

                     64                     65                     66
                      A                      A                      A
 Frequencies --   1322.0389              1331.1890              1340.2165
 Red. masses --      1.8350                 1.5922                 1.6016
 Frc consts  --      1.8896                 1.6623                 1.6949
 IR Inten    --     23.1030                43.8275                21.2444

                     67                     68                     69
                      A                      A                      A
 Frequencies --   1346.9710              1362.0727              1372.7355
 Red. masses --      2.8733                 3.5354                 1.5454
 Frc consts  --      3.0714                 3.8645                 1.7158
 IR Inten    --    132.9541                30.4476                29.7600

                     70                     71                     72
                      A                      A                      A
 Frequencies --   1410.5936              1422.3596              1435.3331
 Red. masses --      1.3235                 1.2929                 1.1963
 Frc consts  --      1.5515                 1.5411                 1.4521
 IR Inten    --     43.9702                 0.3216                12.2332

                     73                     74                     75
                      A                      A                      A
 Frequencies --   1444.5291              1470.0255              1485.8540
 Red. masses --      1.2947                 3.1907                 1.0788
 Frc consts  --      1.5918                 4.0624                 1.4033
 IR Inten    --     24.2417                 0.6836                10.7541

                     76                     77                     78
                      A                      A                      A
 Frequencies --   1490.5873              1506.6066              1517.0378
 Red. masses --      1.0609                 1.0525                 1.0436
 Frc consts  --      1.3887                 1.4076                 1.4150
 IR Inten    --     14.8617                18.0575                 4.9731

                     79                     80                     81
                      A                      A                      A
 Frequencies --   1532.2800              1547.7867              1561.2873
 Red. masses --      1.0525                 1.1282                 2.3568
 Frc consts  --      1.4559                 1.5924                 3.3848
 IR Inten    --      2.7235                13.4470               204.5418

                     82                     83                     84
                      A                      A                      A
 Frequencies --   1632.3151              1671.9385              1692.2507
 Red. masses --      6.7811                 5.9519                 4.3084
 Frc consts  --     10.6453                 9.8027                 7.2693
 IR Inten    --     14.6898                55.1378                 1.2536

                     85                     86                     87
                      A                      A                      A
 Frequencies --   1827.6369              3052.4977              3063.0635
 Red. masses --     10.8507                 1.0674                 1.0361
 Frc consts  --     21.3544                 5.8600                 5.7272
 IR Inten    --    187.7547                40.9124                14.6593

                     88                     89                     90
                      A                      A                      A
 Frequencies --   3063.7342              3066.5807              3113.9800
 Red. masses --      1.0579                 1.0369                 1.1043
 Frc consts  --      5.8503                 5.7451                 6.3092
 IR Inten    --     14.1648                 2.5472                 6.8141

                     91                     92                     93
                      A                      A                      A
 Frequencies --   3116.8710              3132.6489              3133.7318
 Red. masses --      1.0988                 1.1013                 1.0989
 Frc consts  --      6.2893                 6.3678                 6.3580
 IR Inten    --     13.4559                29.5564                 3.9496

                     94                     95                     96
                      A                      A                      A
 Frequencies --   3146.9895              3170.4658              3177.0502
 Red. masses --      1.1034                 1.1045                 1.0579
 Frc consts  --      6.4386                 6.5411                 6.2914
 IR Inten    --     42.0420                15.8640                 2.9392

                     97                     98                     99
                      A                      A                      A
 Frequencies --   3198.9226              3221.0720              3222.0763
 Red. masses --      1.0885                 1.0939                 1.0962
 Frc consts  --      6.5630                 6.6870                 6.7055
 IR Inten    --     10.6786                 5.3083                 0.5096

                    100                    101                    102
                      A                      A                      A
 Frequencies --   3227.9835              3241.7038              3270.1132
 Red. masses --      1.0879                 1.0942                 1.1168
 Frc consts  --      6.6791                 6.7746                 7.0365
 IR Inten    --      9.8819                 3.7653                 1.1245

 - Thermochemistry -
 -------------------
 Temperature   298.150 Kelvin.  Pressure   1.00000 Atm.
 Atom     1 has atomic number  6 and mass  12.00000

 Molecular mass:   283.08783 amu.
 Principal axes and moments of inertia in atomic units:
                           1         2         3
     Eigenvalues --  2958.491799407.72739**********
           X            0.99994   0.00809  -0.00771
           Y           -0.00764   0.99839   0.05625
           Z            0.00815  -0.05619   0.99839
 This molecule is an asymmetric top.
 Rotational symmetry number  1.
 Warning -- assumption of classical behavior for rotation
           may cause significant error
 Rotational temperatures (Kelvin)      0.02928     0.00921     0.00822
 Rotational constants (GHZ):           0.61002     0.19184     0.17135
 Zero-point vibrational energy     755902.3 (Joules/Mol)
                                  180.66498 (Kcal/Mol)
 Warning -- explicit consideration of  31 degrees of freedom as
           vibrations may cause significant error
 Vibrational temperatures:     28.15    44.93    64.36    65.53    81.74
          (Kelvin)             93.70   122.69   153.84   176.93   235.66
                              242.97   280.43   295.43   314.99   355.45
                              373.00   397.18   442.30   495.01   528.04
                              548.31   591.24   620.15   636.86   661.04
                              691.39   746.16   750.75   761.46   800.20
                              846.28   929.89   943.27   987.46  1046.90
                             1066.73  1115.40  1148.93  1183.10  1194.94
                             1218.84  1229.35  1324.56  1330.04  1370.07
                             1371.09  1409.16  1443.85  1465.02  1486.64
                             1489.81  1544.92  1574.99  1597.02  1621.65
                             1625.89  1649.09  1734.78  1736.06  1792.16
                             1814.04  1849.38  1858.55  1902.12  1915.28
                             1928.27  1937.99  1959.72  1975.06  2029.53
                             2046.46  2065.12  2078.36  2115.04  2137.81
                             2144.62  2167.67  2182.68  2204.61  2226.92
                             2246.34  2348.54  2405.55  2434.77  2629.56
                             4391.86  4407.07  4408.03  4412.13  4480.32
                             4484.48  4507.18  4508.74  4527.82  4561.59
                             4571.07  4602.54  4634.40  4635.85  4644.35
                             4664.09  4704.96

 Zero-point correction=                           0.287908 (Hartree/Particle)
 Thermal correction to Energy=                    0.307813
 Thermal correction to Enthalpy=                  0.308757
 Thermal correction to Gibbs Free Energy=         0.237196
 Sum of electronic and zero-point Energies=          -1259.132821
 Sum of electronic and thermal Energies=             -1259.112916
 Sum of electronic and thermal Enthalpies=           -1259.111972
 Sum of electronic and thermal Free Energies=        -1259.183533

                     E (Thermal)             CV                S
                      KCal/Mol        Cal/Mol-Kelvin    Cal/Mol-Kelvin
 Total                  193.156             73.195            150.614
 Electronic               0.000              0.000              0.000
 Translational            0.889              2.981             42.820
 Rotational               0.889              2.981             34.038
 Vibrational            191.378             67.233             73.756
 Vibration     1          0.593              1.986              6.678
 Vibration     2          0.594              1.983              5.750
 Vibration     3          0.595              1.980              5.038
 Vibration     4          0.595              1.979              5.002
 Vibration     5          0.596              1.975              4.565
 Vibration     6          0.597              1.971              4.296
 Vibration     7          0.601              1.959              3.766
 Vibration     8          0.606              1.944              3.324
 Vibration     9          0.610              1.930              3.053
 Vibration    10          0.623              1.887              2.506
 Vibration    11          0.625              1.881              2.448
 Vibration    12          0.636              1.847              2.181
 Vibration    13          0.640              1.832              2.085
 Vibration    14          0.647              1.812              1.968
 Vibration    15          0.661              1.768              1.752
 Vibration    16          0.668              1.747              1.667
 Vibration    17          0.678              1.718              1.558
 Vibration    18          0.697              1.660              1.376
 Vibration    19          0.723              1.587              1.193
 Vibration    20          0.740              1.540              1.092
 Vibration    21          0.751              1.510              1.035
 Vibration    22          0.775              1.446              0.923
 Vibration    23          0.792              1.403              0.855
 Vibration    24          0.802              1.377              0.818
 Vibration    25          0.817              1.340              0.768
 Vibration    26          0.837              1.293              0.709
 Vibration    27          0.874              1.209              0.613
 Vibration    28          0.877              1.202              0.606
 Vibration    29          0.884              1.185              0.589
 Vibration    30          0.912              1.126              0.532
 Vibration    31          0.945              1.057              0.470

 Optimization completed on the basis of negligible forces.
    -- Stationary point found.
 Normal termination of Gaussian 16 at Sat Dec 12 10:39:08 2020.

 ----------------------------------------------------------------------
 # B3LYP/6-311++G(d,p) empiricaldispersion=gd3bj scf=xqc pop=npa geom=c
 heck
 ----------------------------------------------------------------------

 ---------------------------------------
 CID_138341258_JID_9433_Energie_neutraal
 ---------------------------------------
 Structure from the checkpoint file:  "JID_9433.chk"
 Charge =  0 Multiplicity = 1

 SCF Done:  E(RB3LYP) =  -1259.69225950     A.U. after   17 cycles
 Normal termination of Gaussian 16 at Sat Dec 12 10:48:32 2020.

 ----------------------------------------------------------------------
 # B3LYP/6-311++G(d,p) empiricaldispersion=gd3bj scf=xqc pop=npa geom=c
 heck
 ----------------------------------------------------------------------

 -------------------------------------
 CID_138341258_JID_9433_Energie_kation
 -------------------------------------
 Structure from the checkpoint file:  "JID_9433.chk"
 Charge =  1 Multiplicity = 2

 SCF Done:  E(UB3LYP) =  -1259.40208825     A.U. after   24 cycles
 Normal termination of Gaussian 16 at Sat Dec 12 11:08:07 2020.
 Gaussian 16:  ES64L-G16RevA.03 25-Dec-2016

 ----------------------------------------------------------------------
 # B3LYP/6-311++G(d,p) empiricaldispersion=gd3bj scf=xqc pop=npa geom=c
 heck
 ----------------------------------------------------------------------

 ------------------------------------
 CID_138341258_JID_9433_Energie_anion
 ------------------------------------
 Structure from the checkpoint file:  "JID_9433.chk"
 Charge = -1 Multiplicity = 2

                         Standard orientation:
 ---------------------------------------------------------------------
 Center     Atomic      Atomic             Coordinates (Angstroms)
 Number     Number       Type             X           Y           Z
 ---------------------------------------------------------------------
      1          6           0       -5.457461   -0.557816    0.949595
      2          6           0       -5.186886    0.816614    0.350216
      3          8           0       -4.260814    0.762366   -0.739015
      4          6           0       -2.930412    0.629105   -0.482418
      5          6           0       -2.348082    0.637378    0.792163
      6          6           0       -0.964746    0.525838    0.924301
      7          6           0       -0.150233    0.387566   -0.199217
      8          6           0       -0.738181    0.357470   -1.471477
      9          6           0       -2.111779    0.491443   -1.613799
     10          7           0        1.267771    0.262732   -0.030360
     11          6           0        2.171077    1.050902   -0.877039
     12          6           0        3.306693    1.763413   -0.127944
     13          8           0        4.284128    2.109333   -0.758829
     14          6           0        3.111778    2.065353    1.338339
     15         16           0        1.846497   -1.253689    0.460911
     16          8           0        3.294562   -1.089158    0.610019
     17          8           0        0.997069   -1.706732    1.560773
     18          6           0        1.566063   -2.314915   -0.941329
     19          6           0        0.542631   -3.163206   -0.959079
     20          1           0       -5.828256   -1.238408    0.176999
     21          1           0       -6.215081   -0.481268    1.737463
     22          1           0       -4.553789   -0.994691    1.384353
     23          1           0       -6.097767    1.227075   -0.093117
     24          1           0       -4.837683    1.530259    1.107049
     25          1           0       -2.953318    0.736918    1.684496
     26          1           0       -0.506830    0.529403    1.906330
     27          1           0       -0.114854    0.230244   -2.351532
     28          1           0       -2.579966    0.481721   -2.592395
     29          1           0        2.620470    0.478120   -1.695735
     30          1           0        1.558961    1.837127   -1.331317
     31          1           0        2.091869    2.410019    1.540079
     32          1           0        3.262070    1.145756    1.913167
     33          1           0        3.842277    2.813675    1.651231
     34          1           0        2.278700   -2.180275   -1.749036
     35          1           0        0.356530   -3.798030   -1.820684
     36          1           0       -0.123996   -3.249099   -0.106867
 ---------------------------------------------------------------------

 SCF Done:  E(UB3LYP) =  -1259.69607913     A.U. after   33 cycles
 SCF Done:  E(UB3LYP) =  -1259.69607913     a.u. after    1 cycles

 The electronic state is 2-A.
 Alpha  occ. eigenvalues --  -88.94081 -19.06026 -19.00979 -19.00159 -19.00139
 Alpha  occ. eigenvalues --  -14.23939 -10.15829 -10.14128 -10.13829 -10.11643
 Alpha  occ. eigenvalues --  -10.10722 -10.07943 -10.07895 -10.07609 -10.07538
 Alpha  occ. eigenvalues --  -10.07472 -10.07208 -10.06760 -10.04748  -8.00257
 Alpha  occ. eigenvalues --   -5.96550  -5.96538  -5.96307  -1.00446  -0.97672
 Alpha  occ. eigenvalues --   -0.94521  -0.89652  -0.84099  -0.75354  -0.68824
 Alpha  occ. eigenvalues --   -0.67578  -0.66030  -0.65536  -0.63388  -0.61046
 Alpha  occ. eigenvalues --   -0.56659  -0.53695  -0.52284  -0.49327  -0.46775
 Alpha  occ. eigenvalues --   -0.44448  -0.43305  -0.42213  -0.40629  -0.39806
 Alpha  occ. eigenvalues --   -0.38601  -0.36767  -0.36618  -0.36145  -0.35366
 Alpha  occ. eigenvalues --   -0.35030  -0.33942  -0.33028  -0.32736  -0.32409
 Alpha  occ. eigenvalues --   -0.31489  -0.30991  -0.29810  -0.29454  -0.28943
 Alpha  occ. eigenvalues --   -0.28540  -0.27543  -0.26391  -0.25684  -0.23837
 Alpha  occ. eigenvalues --   -0.23471  -0.22862  -0.21369  -0.20342  -0.19745
 Alpha  occ. eigenvalues --   -0.18428  -0.16962  -0.15963  -0.15144  -0.11818
 Alpha  occ. eigenvalues --    0.03903
 Alpha virt. eigenvalues --    0.05186   0.07150   0.07669   0.07699   0.08010
 Alpha virt. eigenvalues --    0.08080   0.08788   0.08937   0.09579   0.09662
 Alpha virt. eigenvalues --    0.10735   0.10966   0.11622   0.12076   0.12439

  Beta  occ. eigenvalues --  -88.94060 -19.06024 -19.00916 -19.00152 -19.00114
  Beta  occ. eigenvalues --  -14.23893 -10.15745 -10.14115 -10.13797 -10.11649
  Beta  occ. eigenvalues --  -10.10707 -10.07913 -10.07907 -10.07519 -10.07482
  Beta  occ. eigenvalues --  -10.07459 -10.07213 -10.06629 -10.04337  -8.00236
  Beta  occ. eigenvalues --   -5.96524  -5.96484  -5.96296  -1.00355  -0.97653
  Beta  occ. eigenvalues --   -0.94391  -0.89611  -0.83991  -0.75269  -0.68775
  Beta  occ. eigenvalues --   -0.67104  -0.65838  -0.65414  -0.63302  -0.60925
  Beta  occ. eigenvalues --   -0.56494  -0.53422  -0.52110  -0.49062  -0.46522
  Beta  occ. eigenvalues --   -0.44391  -0.43144  -0.42005  -0.40551  -0.39701
  Beta  occ. eigenvalues --   -0.38473  -0.36681  -0.36557  -0.36074  -0.35187
  Beta  occ. eigenvalues --   -0.34888  -0.33895  -0.32929  -0.32686  -0.32257
  Beta  occ. eigenvalues --   -0.31433  -0.30907  -0.29764  -0.29400  -0.28907
  Beta  occ. eigenvalues --   -0.28382  -0.27294  -0.26345  -0.25411  -0.23715
  Beta  occ. eigenvalues --   -0.23410  -0.22771  -0.21245  -0.19873  -0.19686
  Beta  occ. eigenvalues --   -0.18111  -0.16346  -0.15367  -0.14630  -0.11607
  Beta virt. eigenvalues --    0.06052   0.07314   0.07779   0.07982   0.08115
  Beta virt. eigenvalues --    0.08310   0.08853   0.09132   0.09583   0.09667
  Beta virt. eigenvalues --    0.09937   0.10798   0.10953   0.11700   0.12000

 Mulliken charges and spin densities:
               1          2
     1  C    0.388607  -0.764289
     2  C   -0.169497  -0.064749
     3  O   -0.105958   0.004153
     4  C   -0.795708   0.292059
     5  C    0.414665  -0.205272
     6  C    0.106503  -0.221362
     7  C   -0.710510  -0.003876
     8  C    0.359345  -0.076763
     9  C   -0.299817   0.156395
    10  N    0.240595   0.052322
    11  C   -0.176146  -0.016282
    12  C   -0.150888   0.057579
    13  O   -0.278545   0.021956
    14  C   -0.376269  -0.006854
    15  S   -0.086342   0.035580
    16  O   -0.110935   0.008107
    17  O   -0.139203  -0.008936
    18  C   -0.309648   0.103558
    19  C   -0.324120   0.384762
    20  H    0.097709   0.048599
    21  H   -0.343808   0.474700
    22  H    0.026664   0.110000
    23  H   -0.346141   0.536174
    24  H    0.080912   0.038992
    25  H    0.145617   0.036519
    26  H    0.179059   0.007893
    27  H    0.163516  -0.008988
    28  H    0.177899   0.000453
    29  H    0.237014   0.028755
    30  H    0.143710   0.021452
    31  H    0.129941   0.001358
    32  H    0.194443   0.002852
    33  H    0.169217   0.001446
    34  H    0.216020  -0.013584
    35  H    0.100602  -0.015301
    36  H    0.151494  -0.019407
 Sum of Mulliken charges =  -1.00000   1.00000

 Dipole moment (field-independent basis, Debye):
    X=             -0.3231    Y=              2.4162    Z=             -1.4847  Tot=              2.8543
 Quadrupole moment (field-independent basis, Debye-Ang):
   XX=           -227.9152   YY=           -150.7521   ZZ=           -136.1774
   XY=              1.0510   XZ=              7.3526   YZ=              8.9934

 Summary of Natural Population Analysis:

                                       Natural Population
                Natural  -----------------------------------------------
    Atom  No    Charge         Core      Valence    Rydberg      Total
 -----------------------------------------------------------------------
      C    1   -0.30181      0.99966     2.29724    0.00492     3.30181
      C    2   -0.01298      0.99959     2.00063    0.01276     3.01298
      O    3   -0.27831      0.99986     3.26938    0.00907     4.27831
      C    4    0.16417      0.99939     1.82273    0.01371     2.83583
      C    5   -0.14044      0.99952     2.13228    0.00864     3.14044
      C    6   -0.08435      0.99952     2.07673    0.00810     3.08435
      C    7    0.05857      0.99945     1.92951    0.01246     2.94143
      C    8   -0.07829      0.99952     2.07171    0.00706     3.07829
      C    9   -0.12168      0.99954     2.11404    0.00810     3.12168
      N   10   -0.37000      0.99967     2.85489    0.01544     3.87000
      C   11   -0.13255      0.99956     2.11959    0.01340     3.13255
      C   12    0.30831      0.99970     1.67214    0.01985     2.69169
      O   13   -0.28821      0.99987     3.28058    0.00776     4.28821
      C   14   -0.34034      0.99961     2.33634    0.00438     3.34034
      S   15    1.11363      4.99916     1.78584    0.10138     6.88637
      O   16   -0.46855      0.99991     3.46324    0.00540     4.46855
      O   17   -0.46564      0.99990     3.45892    0.00682     4.46564
      C   18   -0.22593      0.99946     2.21447    0.01200     3.22593
      C   19   -0.08014      0.99956     2.07212    0.00846     3.08014
      H   20    0.10124      0.00000     0.39793    0.00083     0.39876
      H   21    0.10300      0.00000     0.39529    0.00170     0.39700
      H   22    0.10369      0.00000     0.39527    0.00103     0.39631
      H   23    0.09179      0.00000     0.40680    0.00140     0.40821
      H   24    0.08239      0.00000     0.41630    0.00131     0.41761
      H   25    0.10140      0.00000     0.39720    0.00140     0.39860
      H   26    0.10982      0.00000     0.38921    0.00098     0.39018
      H   27    0.10266      0.00000     0.39632    0.00102     0.39734
      H   28    0.10256      0.00000     0.39623    0.00121     0.39744
      H   29    0.10705      0.00000     0.39164    0.00130     0.39295
      H   30    0.11459      0.00000     0.38440    0.00100     0.38541
      H   31    0.10796      0.00000     0.39120    0.00084     0.39204
      H   32    0.12524      0.00000     0.37365    0.00111     0.37476
      H   33    0.10366      0.00000     0.39521    0.00113     0.39634
      H   34    0.10243      0.00000     0.39636    0.00121     0.39757
      H   35    0.08656      0.00000     0.41227    0.00117     0.41344
      H   36    0.09849      0.00000     0.40031    0.00120     0.40151
 =======================================================================
   * Total *    0.00000     22.99244    51.70798    0.29958    75.00000

 Normal termination of Gaussian 16 at Sat Dec 12 11:34:48 2020.
