 Gaussian 16, Revision A.03,

 -----------------------------------------------------------
 # opt freq B3LYP/6-31G(d) empiricaldispersion=gd3bj scf=xqc
 -----------------------------------------------------------

 -------------------------------
 CID_130492278_JID_4730_neutraal
 -------------------------------
 Symbolic Z-matrix:
 Charge =  0 Multiplicity = 1

 SCF Done:  E(RB3LYP) =  -994.717769448     A.U. after   14 cycles
 SCF Done:  E(RB3LYP) =  -994.722966845     A.U. after   13 cycles
 SCF Done:  E(RB3LYP) =  -994.723026772     A.U. after   13 cycles
 SCF Done:  E(RB3LYP) =  -994.723775209     A.U. after   12 cycles
 SCF Done:  E(RB3LYP) =  -994.724367456     A.U. after   11 cycles
 SCF Done:  E(RB3LYP) =  -994.724399835     A.U. after   12 cycles
 SCF Done:  E(RB3LYP) =  -994.724451626     A.U. after   11 cycles
 SCF Done:  E(RB3LYP) =  -994.724484078     A.U. after   11 cycles
 SCF Done:  E(RB3LYP) =  -994.724510240     A.U. after   11 cycles
 SCF Done:  E(RB3LYP) =  -994.724531739     A.U. after   10 cycles
 SCF Done:  E(RB3LYP) =  -994.724685741     A.U. after   12 cycles
 SCF Done:  E(RB3LYP) =  -994.724688091     A.U. after   10 cycles
 SCF Done:  E(RB3LYP) =  -994.724687985     A.U. after    9 cycles
 SCF Done:  E(RB3LYP) =  -994.724688387     A.U. after    9 cycles
 SCF Done:  E(RB3LYP) =  -994.724688475     A.U. after    8 cycles
 SCF Done:  E(RB3LYP) =  -994.724688478     A.U. after    8 cycles
 Optimization completed.
    -- Stationary point found.
 Normal termination of Gaussian 16 at Thu Dec 10 10:41:50 2020.

 --------------------------------------------------------------------
 #N Geom=AllCheck Guess=TCheck SCRF=Check GenChk RB3LYP/6-31G(d) Freq
 --------------------------------------------------------------------

 Structure from the checkpoint file:  "JID_4730.chk"
 -------------------------------
 CID_130492278_JID_4730_neutraal
 -------------------------------
 Charge =  0 Multiplicity = 1

 SCF Done:  E(RB3LYP) =  -994.724688478     A.U. after    1 cycles

  Exact polarizability: 151.952   1.892 120.131  -7.718  -3.036 116.507
 Approx polarizability: 211.193   9.100 176.524  -7.289  -9.415 178.868

                      1                      2                      3
                      A                      A                      A
 Frequencies --     23.0681                51.8331                61.2254
 Red. masses --      7.9761                 3.6518                 3.6669
 Frc consts  --      0.0025                 0.0058                 0.0081
 IR Inten    --      2.5515                 0.1155                 0.1102

                      4                      5                      6
                      A                      A                      A
 Frequencies --     85.1249               126.5542               140.1858
 Red. masses --      3.7698                 3.0805                 2.8424
 Frc consts  --      0.0161                 0.0291                 0.0329
 IR Inten    --      1.3216                 0.6051                 0.5625

                      7                      8                      9
                      A                      A                      A
 Frequencies --    182.1454               197.7945               208.1678
 Red. masses --      1.6253                 3.3074                 1.9496
 Frc consts  --      0.0318                 0.0762                 0.0498
 IR Inten    --      0.1256                 0.2223                 0.2064

                     10                     11                     12
                      A                      A                      A
 Frequencies --    224.8719               254.1522               281.6338
 Red. masses --      2.6371                 1.2009                 5.2408
 Frc consts  --      0.0786                 0.0457                 0.2449
 IR Inten    --      0.9503                 0.0935                 2.0587

                     13                     14                     15
                      A                      A                      A
 Frequencies --    307.4249               340.5311               343.7843
 Red. masses --      3.1723                 2.9790                 2.6879
 Frc consts  --      0.1766                 0.2035                 0.1872
 IR Inten    --      0.7615                 0.3520                 1.0102

                     16                     17                     18
                      A                      A                      A
 Frequencies --    367.6449               394.1667               450.5540
 Red. masses --      3.3248                 3.7250                 2.9453
 Frc consts  --      0.2648                 0.3410                 0.3523
 IR Inten    --      0.3378                 3.9185                 6.8325

                     19                     20                     21
                      A                      A                      A
 Frequencies --    459.3115               510.0894               553.5555
 Red. masses --      1.9013                 3.2565                 3.4492
 Frc consts  --      0.2363                 0.4992                 0.6227
 IR Inten    --      3.1045                 1.9884                 3.3426

                     22                     23                     24
                      A                      A                      A
 Frequencies --    579.8863               602.3561               614.2350
 Red. masses --      2.9542                 2.7980                 2.0858
 Frc consts  --      0.5853                 0.5981                 0.4637
 IR Inten    --     37.4606                19.5822                 1.2771

                     25                     26                     27
                      A                      A                      A
 Frequencies --    663.5870               683.6557               744.7537
 Red. masses --      3.2983                 2.1069                 2.7663
 Frc consts  --      0.8557                 0.5802                 0.9040
 IR Inten    --      3.8820                54.5398                53.8670

                     28                     29                     30
                      A                      A                      A
 Frequencies --    778.8749               848.3923               881.2553
 Red. masses --      2.8910                 3.3184                 3.4562
 Frc consts  --      1.0333                 1.4072                 1.5814
 IR Inten    --      6.7790                13.7885                 3.8724

                     31                     32                     33
                      A                      A                      A
 Frequencies --    906.8642               924.4925               953.2097
 Red. masses --      2.4781                 2.3499                 1.4605
 Frc consts  --      1.2008                 1.1833                 0.7818
 IR Inten    --      3.7216                 2.9963                20.8788

                     34                     35                     36
                      A                      A                      A
 Frequencies --    965.1082               970.6570               986.1597
 Red. masses --      1.7756                 1.8721                 1.8282
 Frc consts  --      0.9744                 1.0392                 1.0475
 IR Inten    --     13.3646                11.8962                 3.0699

                     37                     38                     39
                      A                      A                      A
 Frequencies --   1010.9108              1037.0882              1065.6953
 Red. masses --      1.4977                 1.1173                 1.6389
 Frc consts  --      0.9018                 0.7080                 1.0967
 IR Inten    --     11.7400                16.7354                31.4758

                     40                     41                     42
                      A                      A                      A
 Frequencies --   1094.2357              1111.5273              1124.3282
 Red. masses --      1.5274                 1.6654                 1.8878
 Frc consts  --      1.0776                 1.2123                 1.4060
 IR Inten    --      0.8853                24.4045                 0.4767

                     43                     44                     45
                      A                      A                      A
 Frequencies --   1125.9089              1132.8877              1179.5733
 Red. masses --      1.6432                 2.3846                 2.8549
 Frc consts  --      1.2273                 1.8032                 2.3404
 IR Inten    --     15.9615                31.1826                56.4899

                     46                     47                     48
                      A                      A                      A
 Frequencies --   1199.0134              1210.9185              1258.5743
 Red. masses --      2.5880                 2.1374                 1.3602
 Frc consts  --      2.1921                 1.8466                 1.2695
 IR Inten    --     21.4169               149.5421                 6.9971

                     49                     50                     51
                      A                      A                      A
 Frequencies --   1299.5327              1304.1208              1313.8269
 Red. masses --      1.2635                 1.4076                 1.4636
 Frc consts  --      1.2571                 1.4104                 1.4885
 IR Inten    --     16.3372                11.5727                 0.8978

                     52                     53                     54
                      A                      A                      A
 Frequencies --   1338.0586              1348.6736              1350.9257
 Red. masses --      1.3096                 1.4012                 1.3381
 Frc consts  --      1.3814                 1.5016                 1.4388
 IR Inten    --      3.4264                 3.8510                 5.1671

                     55                     56                     57
                      A                      A                      A
 Frequencies --   1379.6148              1383.6531              1394.6367
 Red. masses --      1.5290                 1.2732                 1.6323
 Frc consts  --      1.7146                 1.4361                 1.8706
 IR Inten    --     40.2462                 6.0297                18.2323

                     58                     59                     60
                      A                      A                      A
 Frequencies --   1416.8289              1429.0690              1432.8813
 Red. masses --      1.6074                 1.2793                 1.2673
 Frc consts  --      1.9011                 1.5394                 1.5330
 IR Inten    --     17.9759                 8.0843                 4.0735

                     61                     62                     63
                      A                      A                      A
 Frequencies --   1452.7781              1469.9746              1505.8282
 Red. masses --      1.3263                 1.1907                 1.0674
 Frc consts  --      1.6493                 1.5159                 1.4260
 IR Inten    --     15.6473                13.1074                 1.4354

                     64                     65                     66
                      A                      A                      A
 Frequencies --   1515.7632              1517.7107              1520.6242
 Red. masses --      1.0530                 1.0742                 1.0528
 Frc consts  --      1.4255                 1.4578                 1.4342
 IR Inten    --      4.7551                 9.4765                 0.3899

                     67                     68                     69
                      A                      A                      A
 Frequencies --   1528.2743              1539.2317              1729.4332
 Red. masses --      1.0780                 1.0491                 4.4783
 Frc consts  --      1.4834                 1.4644                 7.8917
 IR Inten    --     12.1067                 9.7159                 4.6639

                     70                     71                     72
                      A                      A                      A
 Frequencies --   1836.2021              2957.8057              2980.6797
 Red. masses --      9.7538                 1.0701                 1.0720
 Frc consts  --     19.3760                 5.5161                 5.6114
 IR Inten    --    269.3844                51.3046                49.9593

                     73                     74                     75
                      A                      A                      A
 Frequencies --   3035.6404              3043.7897              3051.9232
 Red. masses --      1.0822                 1.0492                 1.0490
 Frc consts  --      5.8758                 5.7269                 5.7568
 IR Inten    --      5.2361                28.0911                29.0275

                     76                     77                     78
                      A                      A                      A
 Frequencies --   3063.4303              3064.8660              3068.3520
 Red. masses --      1.0884                 1.0825                 1.0832
 Frc consts  --      6.0182                 5.9911                 6.0087
 IR Inten    --     38.6542                 4.2845                40.6841

                     79                     80                     81
                      A                      A                      A
 Frequencies --   3115.9650              3123.7663              3126.4708
 Red. masses --      1.0894                 1.0910                 1.0923
 Frc consts  --      6.2321                 6.2723                 6.2910
 IR Inten    --     11.0908                18.9951                30.9077

                     82                     83                     84
                      A                      A                      A
 Frequencies --   3156.7985              3162.4652              3176.5177
 Red. masses --      1.0802                 1.1024                 1.0962
 Frc consts  --      6.3424                 6.4960                 6.5171
 IR Inten    --     10.9326                15.7762                16.4166

                     85                     86                     87
                      A                      A                      A
 Frequencies --   3176.9371              3256.7696              3675.6623
 Red. masses --      1.0716                 1.1155                 1.0639
 Frc consts  --      6.3721                 6.9712                 8.4686
 IR Inten    --      9.1627                 8.2404                52.4100

 - Thermochemistry -
 -------------------
 Temperature   298.150 Kelvin.  Pressure   1.00000 Atm.
 Atom     1 has atomic number  6 and mass  12.00000

 Molecular mass:   215.09800 amu.
 Principal axes and moments of inertia in atomic units:
                           1         2         3
     Eigenvalues --  1763.608374527.558924749.75146
           X            0.99944  -0.02118  -0.02577
           Y            0.01950   0.99778  -0.06363
           Z            0.02706   0.06309   0.99764
 This molecule is an asymmetric top.
 Rotational symmetry number  1.
 Warning -- assumption of classical behavior for rotation
           may cause significant error
 Rotational temperatures (Kelvin)      0.04911     0.01913     0.01824
 Rotational constants (GHZ):           1.02332     0.39861     0.37997
 Zero-point vibrational energy     696606.1 (Joules/Mol)
                                  166.49286 (Kcal/Mol)
 Warning -- explicit consideration of  24 degrees of freedom as
           vibrations may cause significant error
 Vibrational temperatures:     33.19    74.58    88.09   122.48   182.08
          (Kelvin)            201.70   262.07   284.58   299.51   323.54
                              365.67   405.21   442.32   489.95   494.63
                              528.96   567.12   648.25   660.85   733.90
                              796.44   834.33   866.66   883.75   954.75
                              983.63  1071.53  1120.63  1220.65  1267.93
                             1304.78  1330.14  1371.46  1388.58  1396.56
                             1418.86  1454.48  1492.14  1533.30  1574.36
                             1599.24  1617.66  1619.93  1629.97  1697.14
                             1725.11  1742.24  1810.81  1869.74  1876.34
                             1890.30  1925.17  1940.44  1943.68  1984.96
                             1990.77  2006.57  2038.50  2056.11  2061.60
                             2090.22  2114.97  2166.55  2180.85  2183.65
                             2187.84  2198.85  2214.61  2488.27  2641.89
                             4255.62  4288.53  4367.61  4379.33  4391.04
                             4407.59  4409.66  4414.67  4483.18  4494.40
                             4498.29  4541.93  4550.08  4570.30  4570.90
                             4685.77  5288.46

 Zero-point correction=                           0.265323 (Hartree/Particle)
 Thermal correction to Energy=                    0.280405
 Thermal correction to Enthalpy=                  0.281349
 Thermal correction to Gibbs Free Energy=         0.222475
 Sum of electronic and zero-point Energies=           -994.459365
 Sum of electronic and thermal Energies=              -994.444283
 Sum of electronic and thermal Enthalpies=            -994.443339
 Sum of electronic and thermal Free Energies=         -994.502213

                     E (Thermal)             CV                S
                      KCal/Mol        Cal/Mol-Kelvin    Cal/Mol-Kelvin
 Total                  175.957             56.646            123.911
 Electronic               0.000              0.000              0.000
 Translational            0.889              2.981             42.001
 Rotational               0.889              2.981             32.006
 Vibrational            174.179             50.685             49.904
 Vibration     1          0.593              1.985              6.351
 Vibration     2          0.596              1.977              4.746
 Vibration     3          0.597              1.973              4.417
 Vibration     4          0.601              1.959              3.769
 Vibration     5          0.611              1.927              2.998
 Vibration     6          0.615              1.913              2.801
 Vibration     7          0.630              1.864              2.306
 Vibration     8          0.637              1.843              2.154
 Vibration     9          0.641              1.828              2.060
 Vibration    10          0.650              1.803              1.920
 Vibration    11          0.665              1.756              1.702
 Vibration    12          0.681              1.708              1.524
 Vibration    13          0.697              1.660              1.376
 Vibration    14          0.720              1.594              1.210
 Vibration    15          0.723              1.588              1.195
 Vibration    16          0.740              1.539              1.090
 Vibration    17          0.761              1.483              0.984
 Vibration    18          0.809              1.360              0.794
 Vibration    19          0.817              1.340              0.768
 Vibration    20          0.865              1.228              0.633
 Vibration    21          0.909              1.132              0.537
 Vibration    22          0.937              1.075              0.486
 Vibration    23          0.961              1.027              0.446
 Vibration    24          0.974              1.002              0.426

 Optimization completed.
    -- Stationary point found.
 Normal termination of Gaussian 16 at Thu Dec 10 10:52:12 2020.

 ----------------------------------------------------------------------
 # B3LYP/6-311++G(d,p) empiricaldispersion=gd3bj scf=xqc pop=npa geom=c
 heck
 ----------------------------------------------------------------------

 ---------------------------------------
 CID_130492278_JID_4730_Energie_neutraal
 ---------------------------------------
 Structure from the checkpoint file:  "JID_4730.chk"
 Charge =  0 Multiplicity = 1

 SCF Done:  E(RB3LYP) =  -994.929977230     A.U. after   15 cycles
 Normal termination of Gaussian 16 at Thu Dec 10 10:56:12 2020.

 ----------------------------------------------------------------------
 # B3LYP/6-311++G(d,p) empiricaldispersion=gd3bj scf=xqc pop=npa geom=c
 heck
 ----------------------------------------------------------------------

 -------------------------------------
 CID_130492278_JID_4730_Energie_kation
 -------------------------------------
 Structure from the checkpoint file:  "JID_4730.chk"
 Charge =  1 Multiplicity = 2

 SCF Done:  E(UB3LYP) =  -994.640547972     A.U. after   24 cycles
 Normal termination of Gaussian 16 at Thu Dec 10 11:06:09 2020.
 Gaussian 16:  ES64L-G16RevA.03 25-Dec-2016

 ----------------------------------------------------------------------
 # B3LYP/6-311++G(d,p) empiricaldispersion=gd3bj scf=xqc pop=npa geom=c
 heck
 ----------------------------------------------------------------------

 ------------------------------------
 CID_130492278_JID_4730_Energie_anion
 ------------------------------------
 Structure from the checkpoint file:  "JID_4730.chk"
 Charge = -1 Multiplicity = 2

                         Standard orientation:
 ---------------------------------------------------------------------
 Center     Atomic      Atomic             Coordinates (Angstroms)
 Number     Number       Type             X           Y           Z
 ---------------------------------------------------------------------
      1          6           0       -1.502428    2.129983   -0.729216
      2          6           0       -1.514924    0.720383   -1.322526
      3          6           0       -0.166588    0.004109   -1.200075
      4          7           0        0.142452   -0.349560    0.188305
      5          6           0       -0.702994   -1.440172    0.668998
      6          6           0       -2.147982   -0.980368    0.893071
      7         16           0       -2.880646   -0.349297   -0.681285
      8          6           0       -2.272088   -0.011787    2.070574
      9          6           0        1.567845   -0.549835    0.452813
     10          6           0        2.242144   -1.485591   -0.541041
     11          6           0        3.369650   -1.288189   -1.220317
     12          6           0        2.339918    0.757704    0.632861
     13          8           0        3.489833    0.803508    1.012184
     14          8           0        1.631683    1.871544    0.344645
     15          1           0       -2.496979    2.581568   -0.778240
     16          1           0       -0.803125    2.761598   -1.291592
     17          1           0       -1.169125    2.116540    0.309197
     18          1           0       -1.750688    0.787296   -2.391260
     19          1           0       -0.171533   -0.888057   -1.848860
     20          1           0        0.615490    0.674238   -1.566090
     21          1           0       -0.303321   -1.785716    1.630377
     22          1           0       -0.702202   -2.302003   -0.022673
     23          1           0       -2.750637   -1.873087    1.097253
     24          1           0       -3.291954    0.371194    2.159419
     25          1           0       -2.013010   -0.526642    3.005522
     26          1           0       -1.589249    0.831826    1.951754
     27          1           0        1.634791   -1.023887    1.441765
     28          1           0        1.680160   -2.405482   -0.699506
     29          1           0        3.731053   -2.033201   -1.923622
     30          1           0        3.983241   -0.403524   -1.084921
     31          1           0        2.242821    2.615176    0.508415
 ---------------------------------------------------------------------

 SCF Done:  E(UB3LYP) =  -994.918274020     A.U. after   31 cycles

 The electronic state is 2-A.
 Alpha  occ. eigenvalues --  -88.73379 -19.07110 -19.01655 -14.21577 -10.20804
 Alpha  occ. eigenvalues --  -10.12829 -10.10708 -10.10701 -10.10194 -10.09885
 Alpha  occ. eigenvalues --  -10.08915 -10.07529 -10.06171 -10.05827  -7.82031
 Alpha  occ. eigenvalues --   -5.78406  -5.78067  -5.77405  -1.01406  -0.92334
 Alpha  occ. eigenvalues --   -0.84495  -0.72955  -0.69567  -0.68870  -0.62735
 Alpha  occ. eigenvalues --   -0.59712  -0.59441  -0.54329  -0.52576  -0.50708
 Alpha  occ. eigenvalues --   -0.46997  -0.43420  -0.41799  -0.39997  -0.39309
 Alpha  occ. eigenvalues --   -0.37179  -0.36743  -0.35637  -0.34788  -0.34318
 Alpha  occ. eigenvalues --   -0.32916  -0.31917  -0.31794  -0.31009  -0.29302
 Alpha  occ. eigenvalues --   -0.28089  -0.27550  -0.26945  -0.26663  -0.25798
 Alpha  occ. eigenvalues --   -0.24864  -0.22834  -0.21828  -0.19974  -0.19158
 Alpha  occ. eigenvalues --   -0.17642  -0.13150  -0.12349   0.04310
 Alpha virt. eigenvalues --    0.06274   0.07041   0.07566   0.08123   0.08463
 Alpha virt. eigenvalues --    0.08853   0.09234   0.10016   0.10227   0.10901
 Alpha virt. eigenvalues --    0.11191   0.11977   0.12218   0.12771   0.13120

  Beta  occ. eigenvalues --  -88.73377 -19.07054 -19.01630 -14.21570 -10.20774
  Beta  occ. eigenvalues --  -10.12813 -10.10698 -10.10695 -10.10163 -10.09871
  Beta  occ. eigenvalues --  -10.08899 -10.07519 -10.06149 -10.05807  -7.82030
  Beta  occ. eigenvalues --   -5.78404  -5.78067  -5.77404  -1.01314  -0.92260
  Beta  occ. eigenvalues --   -0.84472  -0.72926  -0.69539  -0.68843  -0.62678
  Beta  occ. eigenvalues --   -0.59668  -0.59410  -0.54251  -0.52510  -0.50665
  Beta  occ. eigenvalues --   -0.46924  -0.43378  -0.41741  -0.39926  -0.39259
  Beta  occ. eigenvalues --   -0.37126  -0.36703  -0.35601  -0.34759  -0.34256
  Beta  occ. eigenvalues --   -0.32876  -0.31855  -0.31755  -0.30967  -0.29262
  Beta  occ. eigenvalues --   -0.28053  -0.27514  -0.26916  -0.26634  -0.25766
  Beta  occ. eigenvalues --   -0.24841  -0.22732  -0.21796  -0.19948  -0.19102
  Beta  occ. eigenvalues --   -0.17619  -0.13119  -0.12324
  Beta virt. eigenvalues --    0.06611   0.07437   0.07577   0.08120   0.08206
  Beta virt. eigenvalues --    0.08793   0.09222   0.09707   0.10359   0.10500
  Beta virt. eigenvalues --    0.11082   0.11583   0.12066   0.12477   0.13002

 Mulliken charges and spin densities:
               1          2
     1  C    0.393225  -1.085989
     2  C   -0.119470   0.385742
     3  C   -0.268197  -0.258327
     4  N    0.341804  -0.032904
     5  C    0.719513  -1.189628
     6  C   -0.160038   0.394075
     7  S   -0.026401  -0.254389
     8  C    0.518919  -1.178259
     9  C    0.867406  -1.023703
    10  C   -0.466622   0.572357
    11  C    0.414986  -0.831130
    12  C   -0.710637   0.439592
    13  O   -0.288659   0.042029
    14  O   -0.234698   0.028063
    15  H    0.060009   0.083405
    16  H   -0.151834   0.286036
    17  H    0.114308   0.047073
    18  H    0.061206   0.204489
    19  H   -0.018318   0.146138
    20  H   -0.056018   0.244229
    21  H   -0.345871   0.540027
    22  H    0.033459   0.070986
    23  H   -0.251725   0.526925
    24  H   -0.010529   0.151100
    25  H   -0.155136   0.284940
    26  H   -0.044055   0.200751
    27  H   -0.300649   0.512737
    28  H   -0.429619   0.633037
    29  H   -0.063954   0.182303
    30  H    0.024216   0.124354
    31  H   -0.446622   0.753942
 Sum of Mulliken charges =  -1.00000   1.00000

 Dipole moment (field-independent basis, Debye):
    X=             -1.7950    Y=             -0.2237    Z=             -2.6792  Tot=              3.2327
 Quadrupole moment (field-independent basis, Debye-Ang):
   XX=           -151.6739   YY=           -143.9620   ZZ=           -130.5359
   XY=             -6.2487   XZ=             -3.4023   YZ=              2.2655

 Summary of Natural Population Analysis:

                                       Natural Population
                Natural  -----------------------------------------------
    Atom  No    Charge         Core      Valence    Rydberg      Total
 -----------------------------------------------------------------------
      C    1   -0.28826      0.99962     2.28133    0.00731     3.28826
      C    2   -0.16664      0.99956     2.15329    0.01379     3.16664
      C    3   -0.09033      0.99956     2.07923    0.01153     3.09033
      N    4   -0.28806      0.99970     2.77247    0.01589     3.78806
      C    5   -0.08652      0.99956     2.07363    0.01332     3.08652
      C    6   -0.16886      0.99956     2.15466    0.01464     3.16886
      S    7    0.08336      4.99960     2.90133    0.01571     7.91664
      C    8   -0.28977      0.99962     2.28297    0.00718     3.28977
      C    9   -0.06353      0.99950     2.04854    0.01549     3.06353
      C   10   -0.09068      0.99955     2.08002    0.01111     3.09068
      C   11   -0.18399      0.99955     2.17852    0.00592     3.18399
      C   12    0.41405      0.99969     1.55955    0.02670     2.58595
      O   13   -0.30928      0.99987     3.30332    0.00610     4.30928
      O   14   -0.33692      0.99987     3.32930    0.00775     4.33692
      H   15    0.09870      0.00000     0.40031    0.00098     0.40130
      H   16    0.10056      0.00000     0.39812    0.00132     0.39944
      H   17    0.10695      0.00000     0.39134    0.00171     0.39305
      H   18    0.10254      0.00000     0.39658    0.00088     0.39746
      H   19    0.09001      0.00000     0.40836    0.00163     0.40999
      H   20    0.10741      0.00000     0.39061    0.00199     0.39259
      H   21    0.10285      0.00000     0.39475    0.00239     0.39715
      H   22    0.08831      0.00000     0.40973    0.00196     0.41169
      H   23    0.10529      0.00000     0.39359    0.00112     0.39471
      H   24    0.10113      0.00000     0.39787    0.00100     0.39887
      H   25    0.09967      0.00000     0.39907    0.00126     0.40033
      H   26    0.10504      0.00000     0.39342    0.00154     0.39496
      H   27    0.12167      0.00000     0.37628    0.00205     0.37833
      H   28    0.09849      0.00000     0.39989    0.00163     0.40151
      H   29    0.09357      0.00000     0.40539    0.00104     0.40643
      H   30    0.09925      0.00000     0.39953    0.00123     0.40075
      H   31    0.24400      0.00000     0.24393    0.01207     0.25600
 =======================================================================
   * Total *   -0.00000     17.99483    39.79693    0.20824    58.00000

 Normal termination of Gaussian 16 at Thu Dec 10 11:17:05 2020.
