 Gaussian 16, Revision A.03,

 -----------------------------------------------------------
 # opt freq B3LYP/6-31G(d) empiricaldispersion=gd3bj scf=xqc
 -----------------------------------------------------------

 ------------------------------
 CID_61771959_JID_5313_neutraal
 ------------------------------
 Symbolic Z-matrix:
 Charge =  0 Multiplicity = 1

 SCF Done:  E(RB3LYP) =  -693.807456291     A.U. after   13 cycles
 SCF Done:  E(RB3LYP) =  -693.811458876     A.U. after   12 cycles
 SCF Done:  E(RB3LYP) =  -693.812382944     A.U. after   12 cycles
 SCF Done:  E(RB3LYP) =  -693.813077385     A.U. after   12 cycles
 SCF Done:  E(RB3LYP) =  -693.813326830     A.U. after   11 cycles
 SCF Done:  E(RB3LYP) =  -693.813419862     A.U. after   10 cycles
 SCF Done:  E(RB3LYP) =  -693.813448806     A.U. after   10 cycles
 SCF Done:  E(RB3LYP) =  -693.813458736     A.U. after   10 cycles
 SCF Done:  E(RB3LYP) =  -693.813462568     A.U. after    9 cycles
 SCF Done:  E(RB3LYP) =  -693.813463638     A.U. after    8 cycles
 SCF Done:  E(RB3LYP) =  -693.813463918     A.U. after    7 cycles
 SCF Done:  E(RB3LYP) =  -693.813463993     A.U. after    7 cycles
 SCF Done:  E(RB3LYP) =  -693.813464028     A.U. after    7 cycles
 Optimization completed.
    -- Stationary point found.
 Normal termination of Gaussian 16 at Thu Dec 10 15:29:16 2020.

 --------------------------------------------------------------------
 #N Geom=AllCheck Guess=TCheck SCRF=Check GenChk RB3LYP/6-31G(d) Freq
 --------------------------------------------------------------------

 Structure from the checkpoint file:  "JID_5313.chk"
 ------------------------------
 CID_61771959_JID_5313_neutraal
 ------------------------------
 Charge =  0 Multiplicity = 1

 SCF Done:  E(RB3LYP) =  -693.813464028     A.U. after    1 cycles

  Exact polarizability: 165.103  -6.459 142.388  -4.806  -8.708  97.539
 Approx polarizability: 229.374 -10.745 213.370 -19.779 -16.673 147.124

                      1                      2                      3
                      A                      A                      A
 Frequencies --     35.0417                40.8736                43.7936
 Red. masses --      3.3059                 2.9295                 4.1943
 Frc consts  --      0.0024                 0.0029                 0.0047
 IR Inten    --      0.3826                 0.1530                 0.9968

                      4                      5                      6
                      A                      A                      A
 Frequencies --     77.5467                92.1414                98.9729
 Red. masses --      3.6193                 3.1819                 2.4035
 Frc consts  --      0.0128                 0.0159                 0.0139
 IR Inten    --      0.8826                 1.1074                 1.2386

                      7                      8                      9
                      A                      A                      A
 Frequencies --    152.7923               175.0936               176.6313
 Red. masses --      3.3690                 2.5903                 2.1300
 Frc consts  --      0.0463                 0.0468                 0.0392
 IR Inten    --      3.4989                 3.0565                 0.8690

                     10                     11                     12
                      A                      A                      A
 Frequencies --    195.9367               220.4848               249.4160
 Red. masses --      1.3423                 1.8825                 1.3409
 Frc consts  --      0.0304                 0.0539                 0.0491
 IR Inten    --      0.8942                 3.0883                 6.6142

                     13                     14                     15
                      A                      A                      A
 Frequencies --    265.7616               299.6135               317.7969
 Red. masses --      1.7640                 2.6049                 3.0047
 Frc consts  --      0.0734                 0.1378                 0.1788
 IR Inten    --      0.4027                 9.9766                12.0701

                     16                     17                     18
                      A                      A                      A
 Frequencies --    343.6913               372.8072               391.7519
 Red. masses --      2.7257                 1.2574                 3.6342
 Frc consts  --      0.1897                 0.1030                 0.3286
 IR Inten    --      6.9992               120.0706                 8.3570

                     19                     20                     21
                      A                      A                      A
 Frequencies --    431.1844               462.3287               464.4765
 Red. masses --      3.8080                 3.2496                 2.9366
 Frc consts  --      0.4171                 0.4092                 0.3733
 IR Inten    --     10.6420                10.3142                 4.1414

                     22                     23                     24
                      A                      A                      A
 Frequencies --    477.9891               525.0641               597.0614
 Red. masses --      3.0997                 4.3212                 3.4899
 Frc consts  --      0.4173                 0.7019                 0.7330
 IR Inten    --      6.0560                 0.8636                17.8841

                     25                     26                     27
                      A                      A                      A
 Frequencies --    621.2576               671.5467               728.6196
 Red. masses --      4.1641                 4.9545                 3.2450
 Frc consts  --      0.9469                 1.3165                 1.0150
 IR Inten    --     11.5972                10.5835                 1.0771

                     28                     29                     30
                      A                      A                      A
 Frequencies --    770.0445               789.6857               811.4757
 Red. masses --      4.3553                 3.7914                 1.1708
 Frc consts  --      1.5216                 1.3930                 0.4542
 IR Inten    --      8.0057                 9.8979                 2.3986

                     31                     32                     33
                      A                      A                      A
 Frequencies --    851.9680               867.7203               899.4543
 Red. masses --      2.5191                 1.5819                 2.5652
 Frc consts  --      1.0773                 0.7018                 1.2227
 IR Inten    --      6.1058                15.1929                 2.9612

                     34                     35                     36
                      A                      A                      A
 Frequencies --    917.0642               955.6002               971.5565
 Red. masses --      1.5459                 2.3969                 1.3093
 Frc consts  --      0.7660                 1.2896                 0.7282
 IR Inten    --      8.4321                14.1648                 0.7736

                     37                     38                     39
                      A                      A                      A
 Frequencies --    986.8018              1010.1859              1025.1318
 Red. masses --      2.7577                 1.8480                 2.1102
 Frc consts  --      1.5822                 1.1111                 1.3066
 IR Inten    --      7.4762                10.8338                35.9202

                     40                     41                     42
                      A                      A                      A
 Frequencies --   1047.8914              1086.5334              1091.6545
 Red. masses --      7.6843                 1.7035                 2.9715
 Frc consts  --      4.9715                 1.1849                 2.0864
 IR Inten    --     69.6193                30.6780                57.2400

                     43                     44                     45
                      A                      A                      A
 Frequencies --   1135.1335              1144.1996              1155.2233
 Red. masses --      2.1916                 2.4755                 1.6976
 Frc consts  --      1.6639                 1.9095                 1.3348
 IR Inten    --     28.1464                73.8453                51.0126

                     46                     47                     48
                      A                      A                      A
 Frequencies --   1183.0582              1193.5261              1209.8821
 Red. masses --      1.6823                 1.2557                 1.7518
 Frc consts  --      1.3873                 1.0539                 1.5108
 IR Inten    --     30.1285                 0.9703                20.9530

                     49                     50                     51
                      A                      A                      A
 Frequencies --   1219.4741              1251.5404              1284.8487
 Red. masses --      1.3987                 2.3106                 2.9649
 Frc consts  --      1.2255                 2.1323                 2.8838
 IR Inten    --      5.1848                26.9274                89.3660

                     52                     53                     54
                      A                      A                      A
 Frequencies --   1289.5962              1304.3338              1318.1108
 Red. masses --      1.4683                 1.2747                 1.7489
 Frc consts  --      1.4387                 1.2778                 1.7903
 IR Inten    --     71.8555                22.6566                12.2336

                     55                     56                     57
                      A                      A                      A
 Frequencies --   1340.4350              1352.9733              1394.6978
 Red. masses --      2.1133                 1.1623                 1.8301
 Frc consts  --      2.2372                 1.2536                 2.0975
 IR Inten    --     34.6988                11.0201                21.3612

                     58                     59                     60
                      A                      A                      A
 Frequencies --   1404.7535              1412.0154              1425.8280
 Red. masses --      1.2257                 1.3245                 1.2530
 Frc consts  --      1.4251                 1.5559                 1.5009
 IR Inten    --     27.0746                27.3199                 8.2832

                     61                     62                     63
                      A                      A                      A
 Frequencies --   1439.2789              1441.6618              1469.7767
 Red. masses --      1.3825                 1.3022                 2.7467
 Frc consts  --      1.6874                 1.5946                 3.4959
 IR Inten    --     15.8622                25.9999                 6.9587

                     64                     65                     66
                      A                      A                      A
 Frequencies --   1493.7861              1511.4877              1514.6859
 Red. masses --      1.2506                 1.0794                 1.0535
 Frc consts  --      1.6441                 1.4529                 1.4241
 IR Inten    --     11.0514                 4.3289                 3.1992

                     67                     68                     69
                      A                      A                      A
 Frequencies --   1516.4971              1523.5990              1525.4471
 Red. masses --      1.0496                 1.0669                 1.0620
 Frc consts  --      1.4222                 1.4591                 1.4560
 IR Inten    --      3.3665                 0.8708                 4.3710

                     70                     71                     72
                      A                      A                      A
 Frequencies --   1528.8011              1541.7546              1544.9190
 Red. masses --      1.0890                 1.0771                 1.0512
 Frc consts  --      1.4996                 1.5084                 1.4782
 IR Inten    --      3.8095                 1.2291                 5.6799

                     73                     74                     75
                      A                      A                      A
 Frequencies --   1552.1837              1634.4422              1669.5707
 Red. masses --      2.3562                 6.9030                 6.0431
 Frc consts  --      3.3447                10.8650                 9.9248
 IR Inten    --     69.5357                 5.7467                11.9454

                     76                     77                     78
                      A                      A                      A
 Frequencies --   2978.5915              3027.6710              3030.5050
 Red. masses --      1.0838                 1.0663                 1.0397
 Frc consts  --      5.6653                 5.7592                 5.6256
 IR Inten    --     51.9861                43.2221                84.0414

                     79                     80                     81
                      A                      A                      A
 Frequencies --   3036.5096              3056.2534              3060.5331
 Red. masses --      1.0675                 1.0376                 1.0340
 Frc consts  --      5.7989                 5.7102                 5.7065
 IR Inten    --     11.1652                24.8088                19.0475

                     82                     83                     84
                      A                      A                      A
 Frequencies --   3095.0899              3114.4257              3121.5602
 Red. masses --      1.0971                 1.0961                 1.1003
 Frc consts  --      6.1924                 6.2642                 6.3168
 IR Inten    --     13.1343                24.7694                48.2132

                     85                     86                     87
                      A                      A                      A
 Frequencies --   3132.7184              3136.9897              3137.0547
 Red. masses --      1.1029                 1.0958                 1.1037
 Frc consts  --      6.3770                 6.3537                 6.3995
 IR Inten    --     34.3973                17.4964                28.3526

                     88                     89                     90
                      A                      A                      A
 Frequencies --   3138.8217              3156.0102              3159.7565
 Red. masses --      1.1032                 1.1058                 1.0892
 Frc consts  --      6.4036                 6.4896                 6.4069
 IR Inten    --     20.6092                26.3931                17.6493

                     91                     92                     93
                      A                      A                      A
 Frequencies --   3198.9447              3213.8865              3734.7105
 Red. masses --      1.0874                 1.0943                 1.0660
 Frc consts  --      6.5561                 6.6597                 8.7603
 IR Inten    --      5.3392                 8.5455                 8.3419

 - Thermochemistry -
 -------------------
 Temperature   298.150 Kelvin.  Pressure   1.00000 Atm.
 Atom     1 has atomic number  6 and mass  12.00000

 Molecular mass:   210.12559 amu.
 Principal axes and moments of inertia in atomic units:
                           1         2         3
     Eigenvalues --  2294.251064627.055396121.16918
           X            0.99986   0.00760   0.01461
           Y           -0.00736   0.99985  -0.01596
           Z           -0.01473   0.01585   0.99977
 This molecule is an asymmetric top.
 Rotational symmetry number  1.
 Warning -- assumption of classical behavior for rotation
           may cause significant error
 Rotational temperatures (Kelvin)      0.03775     0.01872     0.01415
 Rotational constants (GHZ):           0.78664     0.39004     0.29484
 Zero-point vibrational energy     748084.7 (Joules/Mol)
                                  178.79654 (Kcal/Mol)
 Warning -- explicit consideration of  24 degrees of freedom as
           vibrations may cause significant error
 Vibrational temperatures:     50.42    58.81    63.01   111.57   132.57
          (Kelvin)            142.40   219.83   251.92   254.13   281.91
                              317.23   358.85   382.37   431.08   457.24
                              494.50   536.39   563.64   620.38   665.19
                              668.28   687.72   755.45   859.04   893.85
                              966.21  1048.32  1107.92  1136.18  1167.53
                             1225.79  1248.46  1294.11  1319.45  1374.90
                             1397.85  1419.79  1453.43  1474.94  1507.68
                             1563.28  1570.65  1633.20  1646.25  1662.11
                             1702.16  1717.22  1740.75  1754.55  1800.69
                             1848.61  1855.44  1876.65  1896.47  1928.59
                             1946.63  2006.66  2021.13  2031.58  2051.45
                             2070.80  2074.23  2114.68  2149.23  2174.69
                             2179.30  2181.90  2192.12  2194.78  2199.60
                             2218.24  2222.79  2233.25  2351.60  2402.14
                             4285.53  4356.14  4360.22  4368.86  4397.27
                             4403.42  4453.14  4480.96  4491.23  4507.28
                             4513.43  4513.52  4516.06  4540.79  4546.18
                             4602.57  4624.07  5373.42

 Zero-point correction=                           0.284930 (Hartree/Particle)
 Thermal correction to Energy=                    0.301146
 Thermal correction to Enthalpy=                  0.302090
 Thermal correction to Gibbs Free Energy=         0.240303
 Sum of electronic and zero-point Energies=           -693.528534
 Sum of electronic and thermal Energies=              -693.512318
 Sum of electronic and thermal Enthalpies=            -693.511374
 Sum of electronic and thermal Free Energies=         -693.573161

                     E (Thermal)             CV                S
                      KCal/Mol        Cal/Mol-Kelvin    Cal/Mol-Kelvin
 Total                  188.972             59.703            130.041
 Electronic               0.000              0.000              0.000
 Translational            0.889              2.981             41.931
 Rotational               0.889              2.981             32.541
 Vibrational            187.194             53.742             55.568
 Vibration     1          0.594              1.982              5.521
 Vibration     2          0.594              1.981              5.216
 Vibration     3          0.595              1.980              5.080
 Vibration     4          0.599              1.964              3.952
 Vibration     5          0.602              1.955              3.614
 Vibration     6          0.604              1.950              3.474
 Vibration     7          0.619              1.900              2.637
 Vibration     8          0.627              1.873              2.380
 Vibration     9          0.628              1.871              2.364
 Vibration    10          0.636              1.846              2.171
 Vibration    11          0.647              1.810              1.955
 Vibration    12          0.662              1.764              1.735
 Vibration    13          0.672              1.736              1.624
 Vibration    14          0.692              1.674              1.419
 Vibration    15          0.704              1.640              1.321
 Vibration    16          0.722              1.588              1.195
 Vibration    17          0.744              1.528              1.068
 Vibration    18          0.759              1.488              0.993
 Vibration    19          0.792              1.402              0.855
 Vibration    20          0.820              1.334              0.759
 Vibration    21          0.822              1.329              0.753
 Vibration    22          0.834              1.299              0.716
 Vibration    23          0.880              1.195              0.598
 Vibration    24          0.955              1.038              0.455

 Optimization completed.
    -- Stationary point found.
 Normal termination of Gaussian 16 at Thu Dec 10 15:39:16 2020.

 ----------------------------------------------------------------------
 # B3LYP/6-311++G(d,p) empiricaldispersion=gd3bj scf=xqc pop=npa geom=c
 heck
 ----------------------------------------------------------------------

 --------------------------------------
 CID_61771959_JID_5313_Energie_neutraal
 --------------------------------------
 Structure from the checkpoint file:  "JID_5313.chk"
 Charge =  0 Multiplicity = 1

 SCF Done:  E(RB3LYP) =  -694.017065325     A.U. after   15 cycles
 Normal termination of Gaussian 16 at Thu Dec 10 15:43:48 2020.

 ----------------------------------------------------------------------
 # B3LYP/6-311++G(d,p) empiricaldispersion=gd3bj scf=xqc pop=npa geom=c
 heck
 ----------------------------------------------------------------------

 ------------------------------------
 CID_61771959_JID_5313_Energie_kation
 ------------------------------------
 Structure from the checkpoint file:  "JID_5313.chk"
 Charge =  1 Multiplicity = 2

 SCF Done:  E(UB3LYP) =  -693.709575151     A.U. after   26 cycles
 Normal termination of Gaussian 16 at Thu Dec 10 15:53:19 2020.
 Gaussian 16:  ES64L-G16RevA.03 25-Dec-2016

 ----------------------------------------------------------------------
 # B3LYP/6-311++G(d,p) empiricaldispersion=gd3bj scf=xqc pop=npa geom=c
 heck
 ----------------------------------------------------------------------

 -----------------------------------
 CID_61771959_JID_5313_Energie_anion
 -----------------------------------
 Structure from the checkpoint file:  "JID_5313.chk"
 Charge = -1 Multiplicity = 2

                         Standard orientation:
 ---------------------------------------------------------------------
 Center     Atomic      Atomic             Coordinates (Angstroms)
 Number     Number       Type             X           Y           Z
 ---------------------------------------------------------------------
      1          6           0        2.279835    3.180677    0.313803
      2          6           0        2.372960    1.758114    0.859827
      3          8           0        2.811526    0.805441   -0.103690
      4          6           0        1.870513    0.502967   -1.138927
      5          6           0        0.606711   -0.150416   -0.634587
      6          6           0        0.597746   -1.510657   -0.283009
      7          6           0       -0.563550   -2.106025    0.211575
      8          6           0       -1.728020   -1.355841    0.360236
      9          6           0       -1.746720   -0.001004    0.012833
     10          6           0       -0.575300    0.579773   -0.479993
     11          6           0       -3.026063    0.807855    0.127488
     12          6           0       -3.918891    0.638438   -1.099674
     13          8           0       -3.812793    0.407732    1.250428
     14          8           0        1.720213   -2.283719   -0.478417
     15          6           0        2.597667   -2.353206    0.650341
     16          1           0        3.227801    3.475274   -0.148098
     17          1           0        2.056967    3.880435    1.127461
     18          1           0        1.487741    3.283944   -0.435368
     19          1           0        3.124034    1.712818    1.654852
     20          1           0        1.410822    1.450177    1.293972
     21          1           0        1.615857    1.408991   -1.705345
     22          1           0        2.406383   -0.178800   -1.801982
     23          1           0       -0.541255   -3.162943    0.459916
     24          1           0       -2.633322   -1.814460    0.746219
     25          1           0       -0.579972    1.633161   -0.756702
     26          1           0       -2.755411    1.873041    0.219194
     27          1           0       -4.186253   -0.415827   -1.223743
     28          1           0       -4.837359    1.221656   -0.979395
     29          1           0       -3.397740    0.973998   -2.001623
     30          1           0       -3.234519    0.431431    2.029328
     31          1           0        3.403316   -3.034796    0.368544
     32          1           0        3.006954   -1.364165    0.878263
     33          1           0        2.073073   -2.753613    1.528477
 ---------------------------------------------------------------------

 SCF Done:  E(UB3LYP) =  -694.004017935     A.U. after   33 cycles
 SCF Done:  E(UB3LYP) =  -694.004017935     a.u. after    1 cycles

 The electronic state is 2-A.
 Alpha  occ. eigenvalues --  -19.04680 -19.02915 -19.02382 -10.13544 -10.12977
 Alpha  occ. eigenvalues --  -10.12463 -10.12314 -10.11542 -10.08760 -10.08522
 Alpha  occ. eigenvalues --  -10.08311 -10.08304 -10.08253 -10.06681 -10.06210
 Alpha  occ. eigenvalues --   -0.96363  -0.93694  -0.92715  -0.76785  -0.69108
 Alpha  occ. eigenvalues --   -0.67689  -0.65380  -0.64027  -0.60206  -0.58437
 Alpha  occ. eigenvalues --   -0.52967  -0.52385  -0.50522  -0.46878  -0.43149
 Alpha  occ. eigenvalues --   -0.42386  -0.40825  -0.39654  -0.38613  -0.36833
 Alpha  occ. eigenvalues --   -0.36716  -0.35581  -0.34393  -0.33616  -0.32855
 Alpha  occ. eigenvalues --   -0.31971  -0.31479  -0.29910  -0.29127  -0.28778
 Alpha  occ. eigenvalues --   -0.27542  -0.27304  -0.26470  -0.25947  -0.25083
 Alpha  occ. eigenvalues --   -0.23556  -0.21521  -0.18672  -0.18489  -0.16936
 Alpha  occ. eigenvalues --   -0.16498  -0.14497   0.04363
 Alpha virt. eigenvalues --    0.06443   0.06915   0.07005   0.07533   0.07708
 Alpha virt. eigenvalues --    0.08403   0.08756   0.09199   0.09672   0.10138
 Alpha virt. eigenvalues --    0.10906   0.11083   0.11684   0.12405   0.12706

  Beta  occ. eigenvalues --  -19.04679 -19.02913 -19.02346 -10.13538 -10.12957
  Beta  occ. eigenvalues --  -10.12452 -10.12296 -10.11524 -10.08762 -10.08522
  Beta  occ. eigenvalues --  -10.08297 -10.08285 -10.08241 -10.06665 -10.06172
  Beta  occ. eigenvalues --   -0.96356  -0.93685  -0.92635  -0.76766  -0.69081
  Beta  occ. eigenvalues --   -0.67658  -0.65341  -0.63992  -0.60175  -0.58401
  Beta  occ. eigenvalues --   -0.52923  -0.52339  -0.50466  -0.46830  -0.43119
  Beta  occ. eigenvalues --   -0.42331  -0.40798  -0.39635  -0.38575  -0.36814
  Beta  occ. eigenvalues --   -0.36688  -0.35551  -0.34369  -0.33584  -0.32821
  Beta  occ. eigenvalues --   -0.31938  -0.31446  -0.29869  -0.29091  -0.28742
  Beta  occ. eigenvalues --   -0.27507  -0.27280  -0.26439  -0.25920  -0.25053
  Beta  occ. eigenvalues --   -0.23521  -0.21499  -0.18632  -0.18479  -0.16920
  Beta  occ. eigenvalues --   -0.16463  -0.14469
  Beta virt. eigenvalues --    0.06458   0.06941   0.07205   0.07455   0.07746
  Beta virt. eigenvalues --    0.08346   0.08616   0.09207   0.09577   0.09997
  Beta virt. eigenvalues --    0.10452   0.11067   0.11513   0.11938   0.12671

 Mulliken charges and spin densities:
               1          2
     1  C    1.086758  -1.529615
     2  C   -0.520243   0.253221
     3  O   -0.053494   0.022534
     4  C   -0.485120  -0.228582
     5  C    0.977851  -0.055377
     6  C   -0.046277  -0.856013
     7  C    0.568109  -0.674175
     8  C   -0.348676   0.243370
     9  C   -1.074152   1.477657
    10  C   -1.072264   0.645464
    11  C    1.714049  -1.729391
    12  C    0.313429  -0.990471
    13  O   -0.200098  -0.005890
    14  O   -0.182214   0.021648
    15  C    0.112672  -0.411127
    16  H   -0.002293   0.148853
    17  H   -0.394654   0.542492
    18  H   -0.460082   0.591551
    19  H   -0.382558   0.530158
    20  H    0.095444   0.059569
    21  H   -0.127438   0.294263
    22  H    0.221497  -0.012273
    23  H   -0.105398   0.294685
    24  H   -0.111304   0.286358
    25  H    0.336665  -0.148835
    26  H   -0.573353   0.770776
    27  H    0.077531   0.083086
    28  H    0.081383   0.062628
    29  H   -0.255787   0.401720
    30  H   -0.163566   0.437747
    31  H   -0.039412   0.179483
    32  H    0.109182   0.075789
    33  H   -0.096186   0.218697
 Sum of Mulliken charges =  -1.00000   1.00000

 Dipole moment (field-independent basis, Debye):
    X=              1.6601    Y=             -5.0103    Z=             -2.6515  Tot=              5.9067
 Quadrupole moment (field-independent basis, Debye-Ang):
   XX=           -156.5416   YY=           -147.1531   ZZ=           -128.1970
   XY=              0.1520   XZ=              2.9834   YZ=             -4.8948

 Summary of Natural Population Analysis:

                                       Natural Population
                Natural  -----------------------------------------------
    Atom  No    Charge         Core      Valence    Rydberg      Total
 -----------------------------------------------------------------------
      C    1   -0.30091      0.99967     2.29632    0.00493     3.30091
      C    2   -0.01440      0.99959     2.00162    0.01319     3.01440
      O    3   -0.30240      0.99989     3.29329    0.00922     4.30240
      C    4   -0.02022      0.99952     2.00718    0.01352     3.02022
      C    5   -0.07007      0.99948     2.05508    0.01551     3.07007
      C    6    0.20643      0.99932     1.78354    0.01071     2.79357
      C    7   -0.13374      0.99954     2.11728    0.01692     3.13374
      C    8   -0.09459      0.99951     2.08530    0.00978     3.09459
      C    9   -0.03400      0.99948     2.02190    0.01262     3.03400
      C   10   -0.08827      0.99947     2.07870    0.01010     3.08827
      C   11    0.05804      0.99953     1.92755    0.01489     2.94196
      C   12   -0.28404      0.99964     2.27941    0.00500     3.28404
      O   13   -0.37258      0.99990     3.36594    0.00674     4.37258
      O   14   -0.30272      0.99987     3.28906    0.01379     4.30272
      C   15   -0.09912      0.99959     2.09112    0.00841     3.09912
      H   16    0.09774      0.00000     0.40113    0.00113     0.40226
      H   17    0.10485      0.00000     0.39362    0.00153     0.39515
      H   18    0.09755      0.00000     0.40067    0.00177     0.40245
      H   19    0.08752      0.00000     0.41104    0.00144     0.41248
      H   20    0.08425      0.00000     0.41363    0.00212     0.41575
      H   21    0.08549      0.00000     0.41308    0.00143     0.41451
      H   22    0.09907      0.00000     0.39940    0.00153     0.40093
      H   23    0.10376      0.00000     0.39516    0.00109     0.39624
      H   24    0.10821      0.00000     0.39061    0.00118     0.39179
      H   25    0.10380      0.00000     0.39404    0.00216     0.39620
      H   26    0.08316      0.00000     0.41381    0.00303     0.41684
      H   27    0.09902      0.00000     0.39996    0.00102     0.40098
      H   28    0.10139      0.00000     0.39763    0.00099     0.39861
      H   29    0.10185      0.00000     0.39706    0.00109     0.39815
      H   30    0.23423      0.00000     0.26014    0.00562     0.26577
      H   31    0.08634      0.00000     0.41249    0.00117     0.41366
      H   32    0.09509      0.00000     0.40298    0.00193     0.40491
      H   33    0.07939      0.00000     0.41878    0.00183     0.42061
 =======================================================================
   * Total *    0.00012     14.99401    41.80850    0.19737    56.99988

 Normal termination of Gaussian 16 at Thu Dec 10 16:05:25 2020.
