 Gaussian 16, Revision A.03,

 -----------------------------------------------------------
 # opt freq B3LYP/6-31G(d) empiricaldispersion=gd3bj scf=xqc
 -----------------------------------------------------------

 ------------------------------
 CID_134547805_JID_611_neutraal
 ------------------------------
 Symbolic Z-matrix:
 Charge =  0 Multiplicity = 1

 SCF Done:  E(RB3LYP) =  -495.861856915     A.U. after   15 cycles
 SCF Done:  E(RB3LYP) =  -495.869101223     A.U. after   13 cycles
 SCF Done:  E(RB3LYP) =  -495.869276810     A.U. after   12 cycles
 SCF Done:  E(RB3LYP) =  -495.870580559     A.U. after   12 cycles
 SCF Done:  E(RB3LYP) =  -495.870963156     A.U. after   12 cycles
 SCF Done:  E(RB3LYP) =  -495.871278848     A.U. after   12 cycles
 SCF Done:  E(RB3LYP) =  -495.871541732     A.U. after   11 cycles
 SCF Done:  E(RB3LYP) =  -495.871797885     A.U. after   12 cycles
 SCF Done:  E(RB3LYP) =  -495.871968897     A.U. after   12 cycles
 SCF Done:  E(RB3LYP) =  -495.872099738     A.U. after   12 cycles
 SCF Done:  E(RB3LYP) =  -495.897024668     A.U. after    9 cycles
 SCF Done:  E(RB3LYP) =  -495.897035516     A.U. after   10 cycles
 SCF Done:  E(RB3LYP) =  -495.897051754     A.U. after   11 cycles
 SCF Done:  E(RB3LYP) =  -495.897059312     A.U. after    9 cycles
 SCF Done:  E(RB3LYP) =  -495.897060210     A.U. after    8 cycles
 Optimization completed.
    -- Stationary point found.
 Normal termination of Gaussian 16 at Tue Dec  8 13:10:23 2020.

 --------------------------------------------------------------------
 #N Geom=AllCheck Guess=TCheck SCRF=Check GenChk RB3LYP/6-31G(d) Freq
 --------------------------------------------------------------------

 Structure from the checkpoint file:  "JID_611.chk"
 ------------------------------
 CID_134547805_JID_611_neutraal
 ------------------------------
 Charge =  0 Multiplicity = 1

 SCF Done:  E(RB3LYP) =  -495.897060210     A.U. after    1 cycles

  Exact polarizability:  97.501   2.013  89.175  -0.145  -4.519  55.529
 Approx polarizability: 131.455  12.858 131.257  -2.816 -10.797  82.201

                      1                      2                      3
                      A                      A                      A
 Frequencies --     61.2287                66.9567                98.9617
 Red. masses --      5.1631                 9.1561                 2.3221
 Frc consts  --      0.0114                 0.0242                 0.0134
 IR Inten    --      0.1776                 0.2829                 0.0616

                      4                      5                      6
                      A                      A                      A
 Frequencies --    135.0679               163.1624               210.0533
 Red. masses --      2.1575                 2.7352                 2.5698
 Frc consts  --      0.0232                 0.0429                 0.0668
 IR Inten    --      0.1159                 2.8811                 0.8038

                      7                      8                      9
                      A                      A                      A
 Frequencies --    229.5802               235.4680               357.4518
 Red. masses --      1.1540                 1.2336                 1.2777
 Frc consts  --      0.0358                 0.0403                 0.0962
 IR Inten    --      0.6418                 0.3940               206.5300

                     10                     11                     12
                      A                      A                      A
 Frequencies --    371.8089               378.9672               421.0591
 Red. masses --      3.2375                 4.3229                 3.4704
 Frc consts  --      0.2637                 0.3658                 0.3625
 IR Inten    --     29.9494                15.7986                13.0836

                     13                     14                     15
                      A                      A                      A
 Frequencies --    436.3391               457.4563               560.6967
 Red. masses --      3.2126                 3.9725                 2.2129
 Frc consts  --      0.3604                 0.4898                 0.4099
 IR Inten    --     11.9648                 0.5854                 0.6752

                     16                     17                     18
                      A                      A                      A
 Frequencies --    580.5137               657.8420               695.3183
 Red. masses --      3.4072                 3.5910                 1.2440
 Frc consts  --      0.6765                 0.9156                 0.3544
 IR Inten    --      9.2615                12.3017                20.5991

                     19                     20                     21
                      A                      A                      A
 Frequencies --    740.2637               776.6617               791.9399
 Red. masses --      3.0865                 4.5722                 1.2384
 Frc consts  --      0.9965                 1.6249                 0.4576
 IR Inten    --      5.4902                11.5566                20.3295

                     22                     23                     24
                      A                      A                      A
 Frequencies --    835.3650               907.2687               974.2218
 Red. masses --      1.4050                 3.0535                 2.2227
 Frc consts  --      0.5777                 1.4809                 1.2429
 IR Inten    --     11.8086                 1.9507                 7.7536

                     25                     26                     27
                      A                      A                      A
 Frequencies --   1026.7221              1101.4783              1110.2099
 Red. masses --      1.7690                 2.0921                 1.6994
 Frc consts  --      1.0987                 1.4955                 1.2341
 IR Inten    --      5.8334                30.3778                 0.3022

                     28                     29                     30
                      A                      A                      A
 Frequencies --   1115.8333              1140.1679              1153.5651
 Red. masses --      2.0533                 2.0346                 2.1940
 Frc consts  --      1.5063                 1.5583                 1.7201
 IR Inten    --      5.5465                 9.6819                95.7464

                     31                     32                     33
                      A                      A                      A
 Frequencies --   1212.2903              1292.4140              1312.6825
 Red. masses --      3.7820                 1.7916                 1.2158
 Frc consts  --      3.2748                 1.7631                 1.2343
 IR Inten    --     19.0272               137.1636                12.0074

                     34                     35                     36
                      A                      A                      A
 Frequencies --   1363.6895              1376.8734              1411.5038
 Red. masses --      1.7015                 1.7733                 1.3487
 Frc consts  --      1.8643                 1.9807                 1.5832
 IR Inten    --     64.8762               121.4609                28.2532

                     37                     38                     39
                      A                      A                      A
 Frequencies --   1434.6047              1443.3959              1444.6591
 Red. masses --      1.5564                 1.2493                 1.5648
 Frc consts  --      1.8873                 1.5335                 1.9242
 IR Inten    --     76.3525                10.4720                34.2166

                     40                     41                     42
                      A                      A                      A
 Frequencies --   1491.1395              1517.6844              1523.2237
 Red. masses --      1.0850                 1.0457                 1.0392
 Frc consts  --      1.4214                 1.4191                 1.4206
 IR Inten    --     12.3633                 6.1185                 6.0733

                     43                     44                     45
                      A                      A                      A
 Frequencies --   1525.7294              1529.4484              1538.8443
 Red. masses --      1.0773                 1.0533                 1.0566
 Frc consts  --      1.4776                 1.4516                 1.4741
 IR Inten    --      4.8059                 8.8719                 7.1896

                     46                     47                     48
                      A                      A                      A
 Frequencies --   1604.3785              1750.9029              1815.9319
 Red. masses --      1.4239                 7.1214                 9.9873
 Frc consts  --      2.1594                12.8630                19.4042
 IR Inten    --    395.5880               103.3785               440.7193

                     49                     50                     51
                      A                      A                      A
 Frequencies --   3046.0522              3057.4951              3070.5904
 Red. masses --      1.0658                 1.0373                 1.0367
 Frc consts  --      5.8263                 5.7133                 5.7589
 IR Inten    --     14.4037                18.2707                25.3942

                     52                     53                     54
                      A                      A                      A
 Frequencies --   3092.7500              3117.8599              3131.8101
 Red. masses --      1.0955                 1.0959                 1.0697
 Frc consts  --      6.1740                 6.2768                 6.1816
 IR Inten    --     10.0271                20.3018                22.8402

                     55                     56                     57
                      A                      A                      A
 Frequencies --   3138.6396              3151.5229              3154.1320
 Red. masses --      1.1020                 1.0970                 1.1027
 Frc consts  --      6.3962                 6.4197                 6.4634
 IR Inten    --     25.2904                15.5188                19.8239

                     58                     59                     60
                      A                      A                      A
 Frequencies --   3179.2547              3515.6680              3704.8920
 Red. masses --      1.1059                 1.0533                 1.0986
 Frc consts  --      6.5861                 7.6702                 8.8843
 IR Inten    --     10.8475               122.2231               107.5067

 - Thermochemistry -
 -------------------
 Temperature   298.150 Kelvin.  Pressure   1.00000 Atm.
 Atom     1 has atomic number  6 and mass  12.00000

 Molecular mass:   144.08988 amu.
 Principal axes and moments of inertia in atomic units:
                           1         2         3
     Eigenvalues --   956.291591767.763512557.23449
           X            0.99998  -0.00285   0.00477
           Y            0.00283   0.99999   0.00385
           Z           -0.00478  -0.00384   0.99998
 This molecule is an asymmetric top.
 Rotational symmetry number  1.
 Warning -- assumption of classical behavior for rotation
           may cause significant error
 Rotational temperatures (Kelvin)      0.09057     0.04900     0.03387
 Rotational constants (GHZ):           1.88723     1.02092     0.70574
 Zero-point vibrational energy     494905.2 (Joules/Mol)
                                  118.28519 (Kcal/Mol)
 Warning -- explicit consideration of  16 degrees of freedom as
           vibrations may cause significant error
 Vibrational temperatures:     88.09    96.34   142.38   194.33   234.75
          (Kelvin)            302.22   330.31   338.79   514.29   534.95
                              545.25   605.81   627.79   658.18   806.72
                              835.23   946.49  1000.41  1065.07  1117.44
                             1139.42  1201.90  1305.36  1401.69  1477.22
                             1584.78  1597.34  1605.44  1640.45  1659.72
                             1744.22  1859.50  1888.66  1962.05  1981.01
                             2030.84  2064.08  2076.72  2078.54  2145.42
                             2183.61  2191.58  2195.18  2200.54  2214.05
                             2308.34  2519.16  2612.72  4382.59  4399.05
                             4417.89  4449.78  4485.90  4505.98  4515.80
                             4534.34  4538.09  4574.24  5058.26  5330.51

 Zero-point correction=                           0.188499 (Hartree/Particle)
 Thermal correction to Energy=                    0.199668
 Thermal correction to Enthalpy=                  0.200613
 Thermal correction to Gibbs Free Energy=         0.151613
 Sum of electronic and zero-point Energies=           -495.708561
 Sum of electronic and thermal Energies=              -495.697392
 Sum of electronic and thermal Enthalpies=            -495.696448
 Sum of electronic and thermal Free Energies=         -495.745447

                     E (Thermal)             CV                S
                      KCal/Mol        Cal/Mol-Kelvin    Cal/Mol-Kelvin
 Total                  125.294             40.650            103.129
 Electronic               0.000              0.000              0.000
 Translational            0.889              2.981             40.807
 Rotational               0.889              2.981             29.848
 Vibrational            123.516             34.689             32.474
 Vibration     1          0.597              1.973              4.417
 Vibration     2          0.598              1.970              4.241
 Vibration     3          0.604              1.950              3.475
 Vibration     4          0.613              1.918              2.873
 Vibration     5          0.623              1.888              2.513
 Vibration     6          0.642              1.825              2.043
 Vibration     7          0.652              1.796              1.882
 Vibration     8          0.655              1.787              1.837
 Vibration     9          0.733              1.560              1.133
 Vibration    10          0.744              1.530              1.072
 Vibration    11          0.749              1.515              1.043
 Vibration    12          0.784              1.424              0.888
 Vibration    13          0.797              1.391              0.838
 Vibration    14          0.816              1.344              0.774
 Vibration    15          0.916              1.116              0.522
 Vibration    16          0.937              1.073              0.484

                           ! Non-Optimized Parameters !
 Normal termination of Gaussian 16 at Tue Dec  8 13:17:03 2020.

 ----------------------------------------------------------------------
 # B3LYP/6-311++G(d,p) empiricaldispersion=gd3bj scf=xqc pop=npa geom=c
 heck
 ----------------------------------------------------------------------

 --------------------------------------
 CID_134547805_JID_611_Energie_neutraal
 --------------------------------------
 Structure from the checkpoint file:  "JID_611.chk"
 Charge =  0 Multiplicity = 1

 SCF Done:  E(RB3LYP) =  -496.051487914     A.U. after   14 cycles
 Normal termination of Gaussian 16 at Tue Dec  8 13:23:34 2020.

 ----------------------------------------------------------------------
 # B3LYP/6-311++G(d,p) empiricaldispersion=gd3bj scf=xqc pop=npa geom=c
 heck
 ----------------------------------------------------------------------

 ------------------------------------
 CID_134547805_JID_611_Energie_kation
 ------------------------------------
 Structure from the checkpoint file:  "JID_611.chk"
 Charge =  1 Multiplicity = 2

 SCF Done:  E(UB3LYP) =  -495.698469739     A.U. after   33 cycles
 SCF Done:  E(UB3LYP) =  -495.698469739     a.u. after    1 cycles
 Normal termination of Gaussian 16 at Tue Dec  8 13:30:44 2020.
 Gaussian 16:  ES64L-G16RevA.03 25-Dec-2016

 ----------------------------------------------------------------------
 # B3LYP/6-311++G(d,p) empiricaldispersion=gd3bj scf=xqc pop=npa geom=c
 heck
 ----------------------------------------------------------------------

 -----------------------------------
 CID_134547805_JID_611_Energie_anion
 -----------------------------------
 Structure from the checkpoint file:  "JID_611.chk"
 Charge = -1 Multiplicity = 2

                         Standard orientation:
 ---------------------------------------------------------------------
 Center     Atomic      Atomic             Coordinates (Angstroms)
 Number     Number       Type             X           Y           Z
 ---------------------------------------------------------------------
      1          6           0       -3.361086   -0.104411    0.105539
      2          6           0       -2.026970    0.539940   -0.264865
      3          6           0       -0.857184   -0.422286   -0.071839
      4          8           0       -1.080904   -1.595484    0.223910
      5          7           0        0.421809    0.083666   -0.256430
      6          6           0        0.656823    1.511387   -0.554521
      7          6           0        0.864997    2.349598    0.705243
      8          6           0        1.635456   -0.671794   -0.073349
      9          8           0        2.715915   -0.104610   -0.162884
     10          7           0        1.491564   -1.992433    0.172292
     11          1           0       -3.548050   -0.994226   -0.500261
     12          1           0       -4.177370    0.607549   -0.053247
     13          1           0       -3.368593   -0.414520    1.154151
     14          1           0       -2.041852    0.863125   -1.314534
     15          1           0       -1.861287    1.447240    0.326631
     16          1           0        1.551425    1.552540   -1.174341
     17          1           0       -0.178101    1.883274   -1.147791
     18          1           0        1.740600    1.986646    1.249058
     19          1           0        1.035182    3.397915    0.436176
     20          1           0       -0.004113    2.305063    1.371087
     21          1           0        0.566277   -2.384585    0.313084
     22          1           0        2.339959   -2.502516    0.363491
 ---------------------------------------------------------------------

 SCF Done:  E(UB3LYP) =  -496.036958137     A.U. after   32 cycles

 The electronic state is 2-A.
 Alpha  occ. eigenvalues --  -19.00798 -18.99407 -14.26303 -14.23147 -10.21001
 Alpha  occ. eigenvalues --  -10.19002 -10.10467 -10.07569 -10.05869 -10.05174
 Alpha  occ. eigenvalues --   -0.97031  -0.94694  -0.84000  -0.81031  -0.67513
 Alpha  occ. eigenvalues --   -0.65698  -0.57755  -0.54360  -0.50795  -0.47027
 Alpha  occ. eigenvalues --   -0.44299  -0.40278  -0.38804  -0.37379  -0.34878
 Alpha  occ. eigenvalues --   -0.34338  -0.33271  -0.32560  -0.29757  -0.28555
 Alpha  occ. eigenvalues --   -0.27835  -0.27401  -0.26020  -0.25179  -0.24238
 Alpha  occ. eigenvalues --   -0.18480  -0.17982  -0.17392  -0.17241   0.04809
 Alpha virt. eigenvalues --    0.06828   0.07765   0.08203   0.08691   0.10147
 Alpha virt. eigenvalues --    0.10575   0.11307   0.11375   0.12685   0.13232
 Alpha virt. eigenvalues --    0.14092   0.14688   0.15324   0.15546   0.15780

  Beta  occ. eigenvalues --  -19.00788 -18.99401 -14.26300 -14.23125 -10.20997
  Beta  occ. eigenvalues --  -10.19001 -10.10449 -10.07520 -10.05830 -10.05135
  Beta  occ. eigenvalues --   -0.97016  -0.94679  -0.83986  -0.81002  -0.67445
  Beta  occ. eigenvalues --   -0.65655  -0.57705  -0.54287  -0.50708  -0.46983
  Beta  occ. eigenvalues --   -0.44261  -0.40240  -0.38754  -0.37338  -0.34844
  Beta  occ. eigenvalues --   -0.34305  -0.33247  -0.32534  -0.29710  -0.28514
  Beta  occ. eigenvalues --   -0.27774  -0.27333  -0.25967  -0.25126  -0.24191
  Beta  occ. eigenvalues --   -0.18463  -0.17955  -0.17373  -0.17217
  Beta virt. eigenvalues --    0.07133   0.07964   0.08172   0.08743   0.09511
  Beta virt. eigenvalues --    0.10879   0.11201   0.11675   0.11829   0.13179
  Beta virt. eigenvalues --    0.13735   0.14562   0.15133   0.15593   0.15663

 Mulliken charges and spin densities:
               1          2
     1  C    2.476192  -3.217285
     2  C   -0.521021   0.562964
     3  C    0.171671  -0.217402
     4  O   -0.333584   0.019587
     5  N    0.004555  -0.042486
     6  C   -1.172531   0.907590
     7  C    1.584894  -1.988378
     8  C    0.453186  -0.138576
     9  O   -0.384680   0.009254
    10  N   -0.379667  -0.051974
    11  H   -0.124774   0.283408
    12  H   -0.592932   0.745154
    13  H   -0.184806   0.342592
    14  H   -0.485529   0.677630
    15  H   -0.258711   0.427008
    16  H   -0.077843   0.290755
    17  H   -0.766753   0.943901
    18  H    0.030520   0.136152
    19  H   -0.327749   0.465038
    20  H   -0.323481   0.451368
    21  H    0.178981   0.124824
    22  H    0.034062   0.268876
 Sum of Mulliken charges =  -1.00000   1.00000

 Dipole moment (field-independent basis, Debye):
    X=              4.5721    Y=             -4.6974    Z=              0.9641  Tot=              6.6257
 Quadrupole moment (field-independent basis, Debye-Ang):
   XX=           -122.6324   YY=           -106.0158   ZZ=            -89.9805
   XY=              5.8856   XZ=             -2.2176   YZ=              1.9325

 Summary of Natural Population Analysis:

                                       Natural Population
                Natural  -----------------------------------------------
    Atom  No    Charge         Core      Valence    Rydberg      Total
 -----------------------------------------------------------------------
      C    1   -0.28207      0.99967     2.27549    0.00691     3.28207
      C    2   -0.23664      0.99960     2.22936    0.00769     3.23664
      C    3    0.36358      0.99966     1.61591    0.02085     2.63642
      O    4   -0.32634      0.99987     3.32018    0.00629     4.32634
      N    5   -0.27032      0.99962     2.75985    0.01085     3.77032
      C    6   -0.09064      0.99961     2.08024    0.01079     3.09064
      C    7   -0.29048      0.99966     2.28550    0.00533     3.29048
      C    8    0.41142      0.99971     1.56597    0.02290     2.58858
      O    9   -0.33443      0.99988     3.32907    0.00548     4.33443
      N   10   -0.40750      0.99969     2.90044    0.00736     3.90750
      H   11    0.10208      0.00000     0.39677    0.00116     0.39792
      H   12    0.10231      0.00000     0.39585    0.00184     0.39769
      H   13    0.10063      0.00000     0.39821    0.00116     0.39937
      H   14    0.11496      0.00000     0.38097    0.00407     0.38504
      H   15    0.11325      0.00000     0.38358    0.00317     0.38675
      H   16    0.11079      0.00000     0.38790    0.00130     0.38921
      H   17    0.10363      0.00000     0.39389    0.00249     0.39637
      H   18    0.10410      0.00000     0.39484    0.00106     0.39590
      H   19    0.10281      0.00000     0.39583    0.00136     0.39719
      H   20    0.09889      0.00000     0.39954    0.00157     0.40111
      H   21    0.21526      0.00000     0.28256    0.00218     0.28474
      H   22    0.19472      0.00000     0.30334    0.00194     0.30528
 =======================================================================
   * Total *    0.00000      9.99696    28.87530    0.12774    39.00000

 Normal termination of Gaussian 16 at Tue Dec  8 13:36:04 2020.
