 Gaussian 16, Revision A.03,

 -----------------------------------------------------------
 # opt freq B3LYP/6-31G(d) empiricaldispersion=gd3bj scf=xqc
 -----------------------------------------------------------

 -------------------------------
 CID_106564903_JID_6729_neutraal
 -------------------------------
 Symbolic Z-matrix:
 Charge =  0 Multiplicity = 1

 SCF Done:  E(RB3LYP) =  -674.777312957     A.U. after   14 cycles
 SCF Done:  E(RB3LYP) =  -674.782264007     A.U. after   12 cycles
 SCF Done:  E(RB3LYP) =  -674.782770593     A.U. after   11 cycles
 SCF Done:  E(RB3LYP) =  -674.782857899     A.U. after   10 cycles
 SCF Done:  E(RB3LYP) =  -674.782933506     A.U. after   10 cycles
 SCF Done:  E(RB3LYP) =  -674.783005780     A.U. after   10 cycles
 SCF Done:  E(RB3LYP) =  -674.783069435     A.U. after   10 cycles
 SCF Done:  E(RB3LYP) =  -674.783142985     A.U. after   10 cycles
 SCF Done:  E(RB3LYP) =  -674.783192211     A.U. after   11 cycles
 SCF Done:  E(RB3LYP) =  -674.783236693     A.U. after   10 cycles
 SCF Done:  E(RB3LYP) =  -674.784267096     A.U. after   10 cycles
 SCF Done:  E(RB3LYP) =  -674.784289480     A.U. after   10 cycles
 SCF Done:  E(RB3LYP) =  -674.784308670     A.U. after   10 cycles
 SCF Done:  E(RB3LYP) =  -674.784313194     A.U. after    8 cycles
 SCF Done:  E(RB3LYP) =  -674.784313650     A.U. after    8 cycles
 SCF Done:  E(RB3LYP) =  -674.784313740     A.U. after    6 cycles
 Optimization completed.
    -- Stationary point found.
 Normal termination of Gaussian 16 at Thu Dec 10 23:37:22 2020.

 --------------------------------------------------------------------
 #N Geom=AllCheck Guess=TCheck SCRF=Check GenChk RB3LYP/6-31G(d) Freq
 --------------------------------------------------------------------

 Structure from the checkpoint file:  "JID_6729.chk"
 -------------------------------
 CID_106564903_JID_6729_neutraal
 -------------------------------
 Charge =  0 Multiplicity = 1

 SCF Done:  E(RB3LYP) =  -674.784313740     A.U. after    1 cycles

  Exact polarizability: 177.748   3.319 163.329  -3.268   0.391 125.823
 Approx polarizability: 236.776  -1.148 239.446  -6.075   1.810 173.607

                      1                      2                      3
                      A                      A                      A
 Frequencies --     29.1179                43.0222                58.2915
 Red. masses --      3.3229                 3.3156                 2.9488
 Frc consts  --      0.0017                 0.0036                 0.0059
 IR Inten    --      0.5660                 0.2562                 0.1848

                      4                      5                      6
                      A                      A                      A
 Frequencies --     77.4924                85.7663               115.6229
 Red. masses --      2.8047                 2.6938                 2.0173
 Frc consts  --      0.0099                 0.0117                 0.0159
 IR Inten    --      1.5531                 0.0925                 0.2801

                      7                      8                      9
                      A                      A                      A
 Frequencies --    123.8864               133.5389               174.9418
 Red. masses --      2.3715                 1.2131                 2.4004
 Frc consts  --      0.0214                 0.0127                 0.0433
 IR Inten    --      0.2246                 0.2662                 1.0087

                     10                     11                     12
                      A                      A                      A
 Frequencies --    197.2674               209.3700               211.9624
 Red. masses --      2.7965                 1.3163                 1.9639
 Frc consts  --      0.0641                 0.0340                 0.0520
 IR Inten    --      8.4010                 0.2175                 0.5509

                     13                     14                     15
                      A                      A                      A
 Frequencies --    226.4571               232.9497               240.0098
 Red. masses --      1.2805                 1.3473                 1.1985
 Frc consts  --      0.0387                 0.0431                 0.0407
 IR Inten    --      1.5474                 0.2346                 0.0850

                     16                     17                     18
                      A                      A                      A
 Frequencies --    260.1335               268.4011               294.6248
 Red. masses --      1.0499                 2.9489                 2.3607
 Frc consts  --      0.0419                 0.1252                 0.1207
 IR Inten    --      0.0623                 1.3414                 2.7638

                     19                     20                     21
                      A                      A                      A
 Frequencies --    304.7436               312.1649               338.8766
 Red. masses --      2.2122                 2.4851                 2.9865
 Frc consts  --      0.1210                 0.1427                 0.2021
 IR Inten    --      0.5619                 1.5658                 1.5102

                     22                     23                     24
                      A                      A                      A
 Frequencies --    375.8269               393.3385               435.1136
 Red. masses --      2.4980                 2.2123                 2.2937
 Frc consts  --      0.2079                 0.2017                 0.2558
 IR Inten    --     12.9997                 0.4503                14.0479

                     25                     26                     27
                      A                      A                      A
 Frequencies --    441.8703               494.8083               502.0816
 Red. masses --      3.5637                 2.3384                 2.4094
 Frc consts  --      0.4100                 0.3373                 0.3579
 IR Inten    --      0.1877                25.0187                15.6871

                     28                     29                     30
                      A                      A                      A
 Frequencies --    562.1443               586.9470               641.8433
 Red. masses --      2.4126                 3.1047                 3.1295
 Frc consts  --      0.4492                 0.6302                 0.7596
 IR Inten    --     24.1944                26.4052                 3.2459

                     31                     32                     33
                      A                      A                      A
 Frequencies --    650.9186               655.9418               683.5955
 Red. masses --      2.2425                 1.6777                 3.1285
 Frc consts  --      0.5598                 0.4253                 0.8614
 IR Inten    --     20.5445                 9.6021                 3.3596

                     34                     35                     36
                      A                      A                      A
 Frequencies --    727.1615               755.7653               831.9810
 Red. masses --      7.4067                 1.8026                 1.8051
 Frc consts  --      2.3075                 0.6066                 0.7362
 IR Inten    --      5.6574                 5.7778                 2.6797

                     37                     38                     39
                      A                      A                      A
 Frequencies --    863.0912               904.6804               928.9364
 Red. masses --      2.5837                 2.2591                 2.0380
 Frc consts  --      1.1340                 1.0894                 1.0362
 IR Inten    --      3.4114                 1.1999                 4.0929

                     40                     41                     42
                      A                      A                      A
 Frequencies --    941.5719               944.2791               962.6797
 Red. masses --      1.1806                 1.2827                 1.3438
 Frc consts  --      0.6167                 0.6739                 0.7338
 IR Inten    --      1.7904                 0.4852                 0.1748

                     43                     44                     45
                      A                      A                      A
 Frequencies --    967.0148               981.1861              1012.3972
 Red. masses --      1.7533                 1.4607                 2.3799
 Frc consts  --      0.9660                 0.8286                 1.4372
 IR Inten    --      9.8686                 0.7191                 0.2778

                     46                     47                     48
                      A                      A                      A
 Frequencies --   1035.6708              1048.5438              1064.3082
 Red. masses --      1.9921                 2.9614                 1.7685
 Frc consts  --      1.2590                 1.9183                 1.1803
 IR Inten    --     14.9806                 7.7597                 2.3261

                     49                     50                     51
                      A                      A                      A
 Frequencies --   1076.3402              1080.6592              1097.2889
 Red. masses --      2.0114                 1.4711                 1.9221
 Frc consts  --      1.3729                 1.0122                 1.3636
 IR Inten    --      4.8147                 2.4716                28.0009

                     52                     53                     54
                      A                      A                      A
 Frequencies --   1140.0364              1161.3999              1170.3092
 Red. masses --      2.0144                 2.2312                 1.8070
 Frc consts  --      1.5425                 1.7732                 1.4582
 IR Inten    --     14.1660                 8.4658                13.3367

                     55                     56                     57
                      A                      A                      A
 Frequencies --   1182.4099              1190.9133              1215.3546
 Red. masses --      2.0498                 2.0397                 1.7349
 Frc consts  --      1.6885                 1.7044                 1.5098
 IR Inten    --     17.1112                11.8859                12.3840

                     58                     59                     60
                      A                      A                      A
 Frequencies --   1219.9094              1244.6278              1293.4521
 Red. masses --      1.9258                 3.2089                 1.6570
 Frc consts  --      1.6886                 2.9288                 1.6333
 IR Inten    --      3.7439                 8.2008                 1.4455

                     61                     62                     63
                      A                      A                      A
 Frequencies --   1302.1138              1337.4509              1342.4430
 Red. masses --      1.6819                 1.4301                 5.4082
 Frc consts  --      1.6801                 1.5072                 5.7424
 IR Inten    --      0.7009                15.3572                64.6145

                     64                     65                     66
                      A                      A                      A
 Frequencies --   1357.1869              1367.3295              1372.7453
 Red. masses --      1.2381                 1.3463                 1.4894
 Frc consts  --      1.3437                 1.4830                 1.6536
 IR Inten    --      4.7647                 3.9497                11.6390

                     67                     68                     69
                      A                      A                      A
 Frequencies --   1386.7251              1406.7428              1416.7856
 Red. masses --      1.6473                 1.5364                 1.5233
 Frc consts  --      1.8664                 1.7914                 1.8016
 IR Inten    --     37.1379                26.8930                24.8157

                     70                     71                     72
                      A                      A                      A
 Frequencies --   1432.3775              1432.8561              1442.8883
 Red. masses --      1.2684                 1.2459                 1.2447
 Frc consts  --      1.5333                 1.5071                 1.5268
 IR Inten    --      6.3299                 8.9058                 1.4657

                     73                     74                     75
                      A                      A                      A
 Frequencies --   1446.0016              1452.1395              1454.0064
 Red. masses --      1.3431                 1.2430                 1.2505
 Frc consts  --      1.6546                 1.5444                 1.5576
 IR Inten    --      2.2901                11.6321                14.1886

                     76                     77                     78
                      A                      A                      A
 Frequencies --   1463.7465              1505.5485              1512.6332
 Red. masses --      1.5614                 1.0444                 1.0534
 Frc consts  --      1.9711                 1.3948                 1.4201
 IR Inten    --      6.1267                 4.4075                 3.8577

                     79                     80                     81
                      A                      A                      A
 Frequencies --   1515.2141              1517.5763              1520.3313
 Red. masses --      1.0487                 1.0542                 1.0686
 Frc consts  --      1.4186                 1.4304                 1.4553
 IR Inten    --      0.5318                 2.6122                 0.2896

                     82                     83                     84
                      A                      A                      A
 Frequencies --   1521.6875              1525.7631              1529.7434
 Red. masses --      1.1089                 1.0556                 1.0901
 Frc consts  --      1.5128                 1.4478                 1.5030
 IR Inten    --     14.5438                 6.4110                16.1910

                     85                     86                     87
                      A                      A                      A
 Frequencies --   1531.4561              1535.5045              1538.4676
 Red. masses --      1.0476                 1.0496                 1.0861
 Frc consts  --      1.4476                 1.4581                 1.5145
 IR Inten    --      6.9090                 4.5010                 2.3922

                     88                     89                     90
                      A                      A                      A
 Frequencies --   1540.6552              1544.2231              1566.6301
 Red. masses --      1.0579                 1.0718                 1.7796
 Frc consts  --      1.4795                 1.5058                 2.5734
 IR Inten    --      0.9910                 0.7844               135.7497

                     91                     92                     93
                      A                      A                      A
 Frequencies --   1603.1479              1645.5431              3031.4402
 Red. masses --      6.5142                 5.8749                 1.0572
 Frc consts  --      9.8641                 9.3729                 5.7240
 IR Inten    --    303.1825                15.7467                 3.1302

                     94                     95                     96
                      A                      A                      A
 Frequencies --   3036.8089              3039.4089              3041.8069
 Red. masses --      1.0714                 1.0605                 1.0365
 Frc consts  --      5.8214                 5.7721                 5.6505
 IR Inten    --      5.8933                43.1012                50.7703

                     97                     98                     99
                      A                      A                      A
 Frequencies --   3048.1020              3049.8035              3055.2971
 Red. masses --      1.0382                 1.0384                 1.0368
 Frc consts  --      5.6831                 5.6906                 5.7021
 IR Inten    --     36.6156                36.8424                18.3721

                    100                    101                    102
                      A                      A                      A
 Frequencies --   3064.0655              3074.0210              3080.3678
 Red. masses --      1.0363                 1.0850                 1.0952
 Frc consts  --      5.7323                 6.0410                 6.1226
 IR Inten    --     21.2962                 8.2808                10.2686

                    103                    104                    105
                      A                      A                      A
 Frequencies --   3092.4497              3096.3568              3107.5089
 Red. masses --      1.1011                 1.0937                 1.0985
 Frc consts  --      6.2041                 6.1782                 6.2498
 IR Inten    --     23.4812                24.2682                43.8653

                    106                    107                    108
                      A                      A                      A
 Frequencies --   3109.5630              3114.2174              3118.5942
 Red. masses --      1.0953                 1.0958                 1.1003
 Frc consts  --      6.2402                 6.2616                 6.3050
 IR Inten    --     59.6612                24.0606                33.7729

                    109                    110                    111
                      A                      A                      A
 Frequencies --   3119.1575              3122.5407              3122.7653
 Red. masses --      1.1012                 1.1012                 1.1016
 Frc consts  --      6.3121                 6.3261                 6.3295
 IR Inten    --     73.5804                27.4176                14.7163

                    112                    113                    114
                      A                      A                      A
 Frequencies --   3133.6322              3138.2194              3142.3439
 Red. masses --      1.1023                 1.1033                 1.1003
 Frc consts  --      6.3774                 6.4017                 6.4010
 IR Inten    --     25.6437                25.1688                14.8272

                    115                    116                    117
                      A                      A                      A
 Frequencies --   3146.0568              3276.3154              3606.8190
 Red. masses --      1.1020                 1.0975                 1.0739
 Frc consts  --      6.4265                 6.9413                 8.2315
 IR Inten    --     21.6780                 2.8463                 4.3213

 - Thermochemistry -
 -------------------
 Temperature   298.150 Kelvin.  Pressure   1.00000 Atm.
 Atom     1 has atomic number  6 and mass  12.00000

 Molecular mass:   223.20485 amu.
 Principal axes and moments of inertia in atomic units:
                           1         2         3
     Eigenvalues --  2827.931405006.710735997.30096
           X            0.99998  -0.00603  -0.00233
           Y            0.00603   0.99998  -0.00080
           Z            0.00234   0.00079   1.00000
 This molecule is an asymmetric top.
 Rotational symmetry number  1.
 Warning -- assumption of classical behavior for rotation
           may cause significant error
 Rotational temperatures (Kelvin)      0.03063     0.01730     0.01444
 Rotational constants (GHZ):           0.63818     0.36046     0.30093
 Zero-point vibrational energy     977590.5 (Joules/Mol)
                                  233.64973 (Kcal/Mol)
 Warning -- explicit consideration of  29 degrees of freedom as
           vibrations may cause significant error
 Vibrational temperatures:     41.89    61.90    83.87   111.49   123.40
          (Kelvin)            166.36   178.24   192.13   251.70   283.82
                              301.24   304.97   325.82   335.16   345.32
                              374.27   386.17   423.90   438.46   449.14
                              487.57   540.73   565.93   626.03   635.75
                              711.92   722.38   808.80   844.49   923.47
                              936.53   943.75   983.54  1046.22  1087.38
                             1197.04  1241.80  1301.63  1336.53  1354.71
                             1358.61  1385.08  1391.32  1411.71  1456.61
                             1490.10  1508.62  1531.30  1548.61  1554.83
                             1578.75  1640.26  1671.00  1683.81  1701.22
                             1713.46  1748.62  1755.18  1790.74  1860.99
                             1873.45  1924.29  1931.48  1952.69  1967.28
                             1975.07  1995.19  2023.99  2038.44  2060.87
                             2061.56  2075.99  2080.47  2089.30  2091.99
                             2106.00  2166.15  2176.34  2180.06  2183.45
                             2187.42  2189.37  2195.23  2200.96  2203.42
                             2209.25  2213.51  2216.66  2221.79  2254.03
                             2306.57  2367.57  4361.57  4369.29  4373.03
                             4376.48  4385.54  4387.99  4395.89  4408.51
                             4422.83  4431.96  4449.35  4454.97  4471.01
                             4473.97  4480.66  4486.96  4487.77  4492.64
                             4492.96  4508.60  4515.20  4521.13  4526.47
                             4713.89  5189.41

 Zero-point correction=                           0.372345 (Hartree/Particle)
 Thermal correction to Energy=                    0.391381
 Thermal correction to Enthalpy=                  0.392325
 Thermal correction to Gibbs Free Energy=         0.325525
 Sum of electronic and zero-point Energies=           -674.411969
 Sum of electronic and thermal Energies=              -674.392932
 Sum of electronic and thermal Enthalpies=            -674.391988
 Sum of electronic and thermal Free Energies=         -674.458789

                     E (Thermal)             CV                S
                      KCal/Mol        Cal/Mol-Kelvin    Cal/Mol-Kelvin
 Total                  245.595             71.085            140.594
 Electronic               0.000              0.000              0.000
 Translational            0.889              2.981             42.111
 Rotational               0.889              2.981             32.807
 Vibrational            243.818             65.123             65.676
 Vibration     1          0.593              1.984              5.889
 Vibration     2          0.595              1.980              5.115
 Vibration     3          0.596              1.974              4.514
 Vibration     4          0.599              1.964              3.953
 Vibration     5          0.601              1.959              3.754
 Vibration     6          0.608              1.936              3.172
 Vibration     7          0.610              1.929              3.039
 Vibration     8          0.613              1.920              2.894
 Vibration     9          0.627              1.873              2.382
 Vibration    10          0.637              1.844              2.158
 Vibration    11          0.642              1.826              2.049
 Vibration    12          0.643              1.823              2.027
 Vibration    13          0.650              1.801              1.907
 Vibration    14          0.654              1.791              1.856
 Vibration    15          0.657              1.779              1.803
 Vibration    16          0.668              1.746              1.661
 Vibration    17          0.673              1.731              1.606
 Vibration    18          0.689              1.684              1.447
 Vibration    19          0.696              1.665              1.391
 Vibration    20          0.701              1.650              1.351
 Vibration    21          0.719              1.598              1.217
 Vibration    22          0.747              1.522              1.056
 Vibration    23          0.761              1.484              0.987
 Vibration    24          0.796              1.394              0.842
 Vibration    25          0.802              1.379              0.821
 Vibration    26          0.850              1.262              0.671
 Vibration    27          0.857              1.245              0.653
 Vibration    28          0.918              1.113              0.520
 Vibration    29          0.944              1.060              0.473

                           ! Non-Optimized Parameters !
 Normal termination of Gaussian 16 at Thu Dec 10 23:52:12 2020.

 ----------------------------------------------------------------------
 # B3LYP/6-311++G(d,p) empiricaldispersion=gd3bj scf=xqc pop=npa geom=c
 heck
 ----------------------------------------------------------------------

 ---------------------------------------
 CID_106564903_JID_6729_Energie_neutraal
 ---------------------------------------
 Structure from the checkpoint file:  "JID_6729.chk"
 Charge =  0 Multiplicity = 1

 SCF Done:  E(RB3LYP) =  -674.970482570     A.U. after   14 cycles
 Normal termination of Gaussian 16 at Thu Dec 10 23:58:49 2020.

 ----------------------------------------------------------------------
 # B3LYP/6-311++G(d,p) empiricaldispersion=gd3bj scf=xqc pop=npa geom=c
 heck
 ----------------------------------------------------------------------

 -------------------------------------
 CID_106564903_JID_6729_Energie_kation
 -------------------------------------
 Structure from the checkpoint file:  "JID_6729.chk"
 Charge =  1 Multiplicity = 2

 SCF Done:  E(UB3LYP) =  -674.720828866     A.U. after   19 cycles
 Normal termination of Gaussian 16 at Fri Dec 11 00:10:50 2020.
 Gaussian 16:  ES64L-G16RevA.03 25-Dec-2016

 ----------------------------------------------------------------------
 # B3LYP/6-311++G(d,p) empiricaldispersion=gd3bj scf=xqc pop=npa geom=c
 heck
 ----------------------------------------------------------------------

 ------------------------------------
 CID_106564903_JID_6729_Energie_anion
 ------------------------------------
 Structure from the checkpoint file:  "JID_6729.chk"
 Charge = -1 Multiplicity = 2

                         Standard orientation:
 ---------------------------------------------------------------------
 Center     Atomic      Atomic             Coordinates (Angstroms)
 Number     Number       Type             X           Y           Z
 ---------------------------------------------------------------------
      1          6           0        4.002767   -0.700902   -1.559332
      2          6           0        2.685192    0.074468   -1.481374
      3          6           0        1.737109   -0.400449   -0.368252
      4          6           0        2.361262   -0.382208    1.050944
      5          6           0        2.898755    0.996898    1.458418
      6          6           0        1.383668   -0.912171    2.108361
      7          7           0        0.496820    0.383993   -0.456298
      8          6           0       -0.717950   -0.253589   -0.252054
      9          7           0       -0.898099   -1.561384   -0.257248
     10          6           0       -2.263134   -1.755867   -0.096723
     11          6           0       -2.897126   -0.551000    0.007600
     12          7           0       -1.901006    0.429532   -0.094222
     13          6           0       -2.150623    1.873286   -0.088925
     14          6           0       -1.541387    2.557280    1.142454
     15          6           0       -1.728902    2.521921   -1.412721
     16          6           0       -2.846310   -3.130405   -0.048834
     17          1           0        4.636338   -0.525555   -0.683126
     18          1           0        4.576303   -0.405048   -2.444471
     19          1           0        3.820141   -1.780352   -1.626285
     20          1           0        2.891653    1.146806   -1.360605
     21          1           0        2.141439   -0.022623   -2.427863
     22          1           0        1.441420   -1.430633   -0.583341
     23          1           0        3.215063   -1.072296    1.016193
     24          1           0        2.097317    1.748024    1.492916
     25          1           0        3.334376    0.955964    2.462779
     26          1           0        3.671329    1.363678    0.774874
     27          1           0        0.955700   -1.873311    1.811266
     28          1           0        1.890089   -1.030747    3.073387
     29          1           0        0.547620   -0.218638    2.256444
     30          1           0        0.565704    1.297540   -0.029665
     31          1           0       -3.932346   -0.279048    0.149499
     32          1           0       -3.238311    1.963532   -0.002486
     33          1           0       -0.445781    2.567188    1.118309
     34          1           0       -1.872592    3.599839    1.195508
     35          1           0       -1.852108    2.044137    2.057364
     36          1           0       -2.259558    2.054449   -2.247496
     37          1           0       -1.965446    3.591341   -1.402590
     38          1           0       -0.656684    2.404179   -1.592800
     39          1           0       -2.634162   -3.681601   -0.973115
     40          1           0       -2.419214   -3.712679    0.776920
     41          1           0       -3.932217   -3.092697    0.085382
 ---------------------------------------------------------------------

 SCF Done:  E(UB3LYP) =  -674.958573626     A.U. after   31 cycles

 The electronic state is 2-A.
 Alpha  occ. eigenvalues --  -14.25679 -14.22695 -14.17868 -10.15588 -10.12581
 Alpha  occ. eigenvalues --  -10.10698 -10.08732 -10.08530 -10.08128 -10.07484
 Alpha  occ. eigenvalues --  -10.07437 -10.07410 -10.06986 -10.06662 -10.06584
 Alpha  occ. eigenvalues --  -10.05925  -0.91994  -0.82908  -0.78743  -0.71455
 Alpha  occ. eigenvalues --   -0.68484  -0.67378  -0.65813  -0.60308  -0.59999
 Alpha  occ. eigenvalues --   -0.59082  -0.57353  -0.53379  -0.51711  -0.49553
 Alpha  occ. eigenvalues --   -0.46703  -0.44782  -0.41596  -0.39371  -0.37683
 Alpha  occ. eigenvalues --   -0.37372  -0.36640  -0.35691  -0.34942  -0.34371
 Alpha  occ. eigenvalues --   -0.33486  -0.32521  -0.31572  -0.31164  -0.30609
 Alpha  occ. eigenvalues --   -0.29627  -0.29493  -0.28980  -0.28526  -0.28083
 Alpha  occ. eigenvalues --   -0.27468  -0.26912  -0.26091  -0.25879  -0.25087
 Alpha  occ. eigenvalues --   -0.23926  -0.23562  -0.22979  -0.18955  -0.17016
 Alpha  occ. eigenvalues --   -0.16036  -0.09341   0.04120
 Alpha virt. eigenvalues --    0.05832   0.06778   0.06984   0.07771   0.08403
 Alpha virt. eigenvalues --    0.08615   0.09075   0.09747   0.10212   0.10446
 Alpha virt. eigenvalues --    0.10612   0.11162   0.11451   0.11920   0.12123

  Beta  occ. eigenvalues --  -14.25681 -14.22683 -14.17865 -10.15586 -10.12563
  Beta  occ. eigenvalues --  -10.10698 -10.08732 -10.08520 -10.08123 -10.07480
  Beta  occ. eigenvalues --  -10.07425 -10.07396 -10.06936 -10.06630 -10.06549
  Beta  occ. eigenvalues --  -10.05915  -0.91987  -0.82891  -0.78730  -0.71437
  Beta  occ. eigenvalues --   -0.68447  -0.67356  -0.65802  -0.60287  -0.59922
  Beta  occ. eigenvalues --   -0.59036  -0.57325  -0.53323  -0.51672  -0.49525
  Beta  occ. eigenvalues --   -0.46670  -0.44756  -0.41560  -0.39339  -0.37654
  Beta  occ. eigenvalues --   -0.37346  -0.36618  -0.35661  -0.34902  -0.34341
  Beta  occ. eigenvalues --   -0.33456  -0.32499  -0.31549  -0.31139  -0.30583
  Beta  occ. eigenvalues --   -0.29603  -0.29458  -0.28966  -0.28501  -0.28054
  Beta  occ. eigenvalues --   -0.27436  -0.26889  -0.26061  -0.25846  -0.25025
  Beta  occ. eigenvalues --   -0.23895  -0.23544  -0.22960  -0.18943  -0.17006
  Beta  occ. eigenvalues --   -0.16030  -0.09332
  Beta virt. eigenvalues --    0.06074   0.06664   0.07197   0.07370   0.08301
  Beta virt. eigenvalues --    0.08726   0.09141   0.09417   0.09858   0.10504
  Beta virt. eigenvalues --    0.10719   0.10948   0.11295   0.11594   0.12079

 Mulliken charges and spin densities:
               1          2
     1  C    0.057293  -0.731877
     2  C   -0.229632   0.200960
     3  C    0.081036  -0.736412
     4  C   -0.508183   0.811193
     5  C    0.481508  -1.124252
     6  C   -0.197276  -0.499435
     7  N    0.103700   0.078498
     8  C   -0.400656  -0.494725
     9  N   -0.083446   0.009091
    10  C    0.836162  -0.294037
    11  C   -0.594468   0.161301
    12  N    0.409852  -0.072045
    13  C   -2.428024   2.334484
    14  C    1.838338  -2.309327
    15  C    1.267198  -1.710404
    16  C    0.071840  -0.384924
    17  H   -0.044178   0.195167
    18  H   -0.062856   0.203668
    19  H    0.045091   0.087522
    20  H   -0.078700   0.225520
    21  H    0.197314  -0.030230
    22  H    0.264068   0.001049
    23  H    0.045404   0.128709
    24  H   -0.223577   0.377913
    25  H   -0.241021   0.389375
    26  H   -0.075776   0.214422
    27  H    0.153596  -0.002325
    28  H   -0.050229   0.209452
    29  H    0.149944   0.003185
    30  H    0.492735  -0.201726
    31  H   -0.402507   0.561969
    32  H   -0.704480   0.873430
    33  H   -0.180262   0.323652
    34  H   -0.620886   0.799751
    35  H   -0.063560   0.216897
    36  H    0.058179   0.090965
    37  H   -0.425447   0.592359
    38  H   -0.247093   0.386333
    39  H    0.110138   0.032856
    40  H    0.117177   0.025398
    41  H    0.081687   0.056601
 Sum of Mulliken charges =  -1.00000   1.00000

 Dipole moment (field-independent basis, Debye):
    X=              1.6167    Y=             -6.7260    Z=             -1.3842  Tot=              7.0547
 Quadrupole moment (field-independent basis, Debye-Ang):
   XX=           -175.8152   YY=           -165.8266   ZZ=           -140.8136
   XY=             11.1763   XZ=             -1.6166   YZ=             -4.2322

 Summary of Natural Population Analysis:

                                       Natural Population
                Natural  -----------------------------------------------
    Atom  No    Charge         Core      Valence    Rydberg      Total
 -----------------------------------------------------------------------
      C    1   -0.28856      0.99966     2.28400    0.00489     3.28856
      C    2   -0.19205      0.99962     2.18323    0.00920     3.19205
      C    3   -0.00963      0.99955     1.99594    0.01414     3.00963
      C    4   -0.11743      0.99959     2.10856    0.00927     3.11743
      C    5   -0.28941      0.99965     2.28343    0.00633     3.28941
      C    6   -0.28671      0.99965     2.28108    0.00598     3.28671
      N    7   -0.33820      0.99968     2.82639    0.01214     3.83820
      C    8    0.31797      0.99959     1.66925    0.01319     2.68203
      N    9   -0.30127      0.99967     2.79031    0.01129     3.80127
      C   10    0.05093      0.99955     1.93589    0.01363     2.94907
      C   11   -0.04586      0.99948     2.03483    0.01155     3.04586
      N   12   -0.22858      0.99962     2.71646    0.01249     3.72858
      C   13   -0.00657      0.99961     1.99361    0.01336     3.00657
      C   14   -0.28502      0.99964     2.27915    0.00624     3.28502
      C   15   -0.28889      0.99964     2.28321    0.00604     3.28889
      C   16   -0.29337      0.99963     2.28874    0.00499     3.29337
      H   17    0.09777      0.00000     0.40124    0.00099     0.40223
      H   18    0.09894      0.00000     0.40036    0.00071     0.40106
      H   19    0.09541      0.00000     0.40374    0.00085     0.40459
      H   20    0.09629      0.00000     0.40252    0.00119     0.40371
      H   21    0.10062      0.00000     0.39832    0.00106     0.39938
      H   22    0.11134      0.00000     0.38633    0.00233     0.38866
      H   23    0.09478      0.00000     0.40348    0.00174     0.40522
      H   24    0.09442      0.00000     0.40391    0.00167     0.40558
      H   25    0.10191      0.00000     0.39713    0.00097     0.39809
      H   26    0.10046      0.00000     0.39841    0.00114     0.39954
      H   27    0.10753      0.00000     0.39153    0.00094     0.39247
      H   28    0.09606      0.00000     0.40323    0.00070     0.40394
      H   29    0.09859      0.00000     0.40032    0.00108     0.40141
      H   30    0.19096      0.00000     0.30504    0.00401     0.30904
      H   31    0.10245      0.00000     0.39665    0.00090     0.39755
      H   32    0.10126      0.00000     0.39561    0.00313     0.39874
      H   33    0.09174      0.00000     0.40636    0.00190     0.40826
      H   34    0.10804      0.00000     0.38960    0.00236     0.39196
      H   35    0.10424      0.00000     0.39429    0.00146     0.39576
      H   36    0.10210      0.00000     0.39666    0.00124     0.39790
      H   37    0.10464      0.00000     0.39399    0.00137     0.39536
      H   38    0.10241      0.00000     0.39625    0.00134     0.39759
      H   39    0.10058      0.00000     0.39797    0.00146     0.39942
      H   40    0.10069      0.00000     0.39787    0.00144     0.39931
      H   41    0.09949      0.00000     0.39976    0.00076     0.40051
 =======================================================================
   * Total *    0.00007     15.99383    45.81464    0.19146    61.99993

 Normal termination of Gaussian 16 at Fri Dec 11 00:30:26 2020.
