 Gaussian 16, Revision A.03,

 -----------------------------------------------------------
 # opt freq B3LYP/6-31G(d) empiricaldispersion=gd3bj scf=xqc
 -----------------------------------------------------------

 -------------------------------
 CID_121272438_JID_1663_neutraal
 -------------------------------
 Symbolic Z-matrix:
 Charge =  0 Multiplicity = 1

 SCF Done:  E(RB3LYP) =  -589.614253360     A.U. after   16 cycles
 SCF Done:  E(RB3LYP) =  -589.614726298     A.U. after   15 cycles
 SCF Done:  E(RB3LYP) =  -589.605547650     A.U. after   16 cycles
 SCF Done:  E(RB3LYP) =  -589.617612200     A.U. after   14 cycles
 SCF Done:  E(RB3LYP) =  -589.618337232     A.U. after   14 cycles
 SCF Done:  E(RB3LYP) =  -589.618384121     A.U. after   14 cycles
 SCF Done:  E(RB3LYP) =  -589.619007986     A.U. after   13 cycles
 SCF Done:  E(RB3LYP) =  -589.619535129     A.U. after   14 cycles
 SCF Done:  E(RB3LYP) =  -589.619784696     A.U. after   14 cycles
 SCF Done:  E(RB3LYP) =  -589.619892399     A.U. after   12 cycles
 SCF Done:  E(RB3LYP) =  -589.619915307     A.U. after   11 cycles
 SCF Done:  E(RB3LYP) =  -589.619917116     A.U. after   10 cycles
 SCF Done:  E(RB3LYP) =  -589.619918094     A.U. after    9 cycles
 SCF Done:  E(RB3LYP) =  -589.619918451     A.U. after    9 cycles
 SCF Done:  E(RB3LYP) =  -589.619918573     A.U. after    9 cycles
 Optimization completed.
    -- Stationary point found.
 Normal termination of Gaussian 16 at Tue Dec  8 20:44:08 2020.

 --------------------------------------------------------------------
 #N Geom=AllCheck Guess=TCheck SCRF=Check GenChk RB3LYP/6-31G(d) Freq
 --------------------------------------------------------------------

 Structure from the checkpoint file:  "JID_1663.chk"
 -------------------------------
 CID_121272438_JID_1663_neutraal
 -------------------------------
 Charge =  0 Multiplicity = 1

 SCF Done:  E(RB3LYP) =  -589.619918573     A.U. after    1 cycles

  Exact polarizability:  93.902   2.835  72.939   3.305   0.860  71.668
 Approx polarizability: 115.520   3.219 104.113   3.248  -5.282 140.717

                      1                      2                      3
                      A                      A                      A
 Frequencies --     31.8909                55.0211                62.7741
 Red. masses --      5.0669                 6.2076                 4.7059
 Frc consts  --      0.0030                 0.0111                 0.0109
 IR Inten    --      0.5426                 0.0408                 1.9276

                      4                      5                      6
                      A                      A                      A
 Frequencies --     87.6254               122.4811               134.0210
 Red. masses --      2.5005                 2.8077                 1.3185
 Frc consts  --      0.0113                 0.0248                 0.0140
 IR Inten    --      0.4394                 2.2239                 1.2463

                      7                      8                      9
                      A                      A                      A
 Frequencies --    175.6308               202.2857               249.4224
 Red. masses --      3.1004                 4.9990                 5.9181
 Frc consts  --      0.0563                 0.1205                 0.2169
 IR Inten    --      8.8378                 2.0597                 4.8827

                     10                     11                     12
                      A                      A                      A
 Frequencies --    287.7147               309.2043               377.9920
 Red. masses --      2.9086                 2.9561                 6.0392
 Frc consts  --      0.1419                 0.1665                 0.5084
 IR Inten    --     10.7686                 5.4228                 8.8436

                     13                     14                     15
                      A                      A                      A
 Frequencies --    454.6890               544.9060               587.1280
 Red. masses --      3.4987                 2.9202                 2.6241
 Frc consts  --      0.4262                 0.5109                 0.5330
 IR Inten    --      2.8119                 0.5166                 4.7598

                     16                     17                     18
                      A                      A                      A
 Frequencies --    658.0751               694.4304               747.3260
 Red. masses --      6.7228                 1.9695                 5.5535
 Frc consts  --      1.7153                 0.5596                 1.8274
 IR Inten    --     22.4636                14.9127                 1.2442

                     19                     20                     21
                      A                      A                      A
 Frequencies --    793.7974               857.5423               907.1561
 Red. masses --      4.7443                 2.9598                 5.2209
 Frc consts  --      1.7613                 1.2824                 2.5314
 IR Inten    --     16.5360                 9.9059                16.6465

                     22                     23                     24
                      A                      A                      A
 Frequencies --    941.4799               966.1833              1026.3582
 Red. masses --      3.1842                 1.3697                 5.2746
 Frc consts  --      1.6629                 0.7533                 3.2737
 IR Inten    --      5.7025                25.2325                23.9326

                     25                     26                     27
                      A                      A                      A
 Frequencies --   1030.1220              1043.3503              1105.1562
 Red. masses --      1.4157                 1.5697                 1.9582
 Frc consts  --      0.8851                 1.0068                 1.4091
 IR Inten    --     18.0286                16.0708                 5.9672

                     28                     29                     30
                      A                      A                      A
 Frequencies --   1125.5052              1185.9054              1209.6863
 Red. masses --      2.2944                 1.2733                 1.4606
 Frc consts  --      1.7124                 1.0551                 1.2593
 IR Inten    --     21.4752                 1.0477                62.1158

                     31                     32                     33
                      A                      A                      A
 Frequencies --   1221.3422              1247.1967              1311.1307
 Red. masses --      1.3914                 1.9071                 1.5128
 Frc consts  --      1.2229                 1.7478                 1.5322
 IR Inten    --      1.9175               237.8688                87.9963

                     34                     35                     36
                      A                      A                      A
 Frequencies --   1334.0214              1367.9918              1402.1646
 Red. masses --      1.3154                 1.4317                 2.0274
 Frc consts  --      1.3792                 1.5786                 2.3485
 IR Inten    --      7.4088                 4.6057                95.6941

                     37                     38                     39
                      A                      A                      A
 Frequencies --   1433.2060              1475.9879              1488.5037
 Red. masses --      5.3667                 1.2789                 1.0889
 Frc consts  --      6.4949                 1.6416                 1.4215
 IR Inten    --    109.7847                10.2873                17.5033

                     40                     41                     42
                      A                      A                      A
 Frequencies --   1495.1910              1513.4652              1523.7217
 Red. masses --      1.2420                 1.0475                 1.0479
 Frc consts  --      1.6359                 1.4137                 1.4334
 IR Inten    --     18.5341                 7.0614                 9.2729

                     43                     44                     45
                      A                      A                      A
 Frequencies --   1666.5843              1731.8752              1818.3012
 Red. masses --     10.4690                 4.4558                10.9046
 Frc consts  --     17.1320                 7.8743                21.2419
 IR Inten    --    242.9273                 2.2269               187.3117

                     46                     47                     48
                      A                      A                      A
 Frequencies --   3072.8015              3080.5982              3135.6460
 Red. masses --      1.0677                 1.0299                 1.0900
 Frc consts  --      5.9395                 5.7585                 6.3141
 IR Inten    --      8.8797                25.9070                 0.3557

                     49                     50                     51
                      A                      A                      A
 Frequencies --   3149.2747              3156.9283              3176.8173
 Red. masses --      1.0904                 1.1078                 1.0588
 Frc consts  --      6.3716                 6.5051                 6.2958
 IR Inten    --      1.1601                18.6846                 3.3228

                     52                     53                     54
                      A                      A                      A
 Frequencies --   3190.9510              3206.7032              3258.9434
 Red. masses --      1.1073                 1.0929                 1.1163
 Frc consts  --      6.6432                 6.6212                 6.9853
 IR Inten    --     14.5887                 0.7654                 5.8986

 - Thermochemistry -
 -------------------
 Temperature   298.150 Kelvin.  Pressure   1.00000 Atm.
 Atom     1 has atomic number  6 and mass  12.00000

 Molecular mass:   159.05316 amu.
 Principal axes and moments of inertia in atomic units:
                           1         2         3
     Eigenvalues --   828.548073149.433233405.35873
           X            0.99984   0.01747   0.00248
           Y           -0.01755   0.99922   0.03538
           Z           -0.00186  -0.03542   0.99937
 This molecule is an asymmetric top.
 Rotational symmetry number  1.
 Warning -- assumption of classical behavior for rotation
           may cause significant error
 Rotational temperatures (Kelvin)      0.10454     0.02750     0.02543
 Rotational constants (GHZ):           2.17820     0.57304     0.52997
 Zero-point vibrational energy     409327.5 (Joules/Mol)
                                   97.83161 (Kcal/Mol)
 Warning -- explicit consideration of  15 degrees of freedom as
           vibrations may cause significant error
 Vibrational temperatures:     45.88    79.16    90.32   126.07   176.22
          (Kelvin)            192.83   252.69   291.04   358.86   413.96
                              444.88   543.85   654.20   784.00   844.75
                              946.82   999.13  1075.24  1142.10  1233.81
                             1305.20  1354.58  1390.12  1476.70  1482.12
                             1501.15  1590.07  1619.35  1706.25  1740.47
                             1757.24  1794.44  1886.42  1919.36  1968.24
                             2017.40  2062.06  2123.62  2141.62  2151.25
                             2177.54  2192.30  2397.84  2491.78  2616.13
                             4421.08  4432.29  4511.50  4531.10  4542.12
                             4570.73  4591.07  4613.73  4688.89

 Zero-point correction=                           0.155905 (Hartree/Particle)
 Thermal correction to Energy=                    0.167711
 Thermal correction to Enthalpy=                  0.168656
 Thermal correction to Gibbs Free Energy=         0.116238
 Sum of electronic and zero-point Energies=           -589.464014
 Sum of electronic and thermal Energies=              -589.452207
 Sum of electronic and thermal Enthalpies=            -589.451263
 Sum of electronic and thermal Free Energies=         -589.503681

                     E (Thermal)             CV                S
                      KCal/Mol        Cal/Mol-Kelvin    Cal/Mol-Kelvin
 Total                  105.240             40.078            110.322
 Electronic               0.000              0.000              0.000
 Translational            0.889              2.981             41.101
 Rotational               0.889              2.981             30.564
 Vibrational            103.463             34.116             38.657
 Vibration     1          0.594              1.983              5.708
 Vibration     2          0.596              1.976              4.628
 Vibration     3          0.597              1.972              4.368
 Vibration     4          0.601              1.958              3.712
 Vibration     5          0.610              1.930              3.061
 Vibration     6          0.613              1.919              2.888
 Vibration     7          0.628              1.872              2.374
 Vibration     8          0.639              1.837              2.112
 Vibration     9          0.662              1.764              1.735
 Vibration    10          0.685              1.697              1.487
 Vibration    11          0.699              1.656              1.367
 Vibration    12          0.748              1.517              1.047
 Vibration    13          0.813              1.351              0.782
 Vibration    14          0.900              1.151              0.555
 Vibration    15          0.944              1.059              0.472

                           ! Non-Optimized Parameters !
 Normal termination of Gaussian 16 at Tue Dec  8 20:48:05 2020.

 ----------------------------------------------------------------------
 # B3LYP/6-311++G(d,p) empiricaldispersion=gd3bj scf=xqc pop=npa geom=c
 heck
 ----------------------------------------------------------------------

 ---------------------------------------
 CID_121272438_JID_1663_Energie_neutraal
 ---------------------------------------
 Structure from the checkpoint file:  "JID_1663.chk"
 Charge =  0 Multiplicity = 1

 SCF Done:  E(RB3LYP) =  -589.801820633     A.U. after   15 cycles
 Normal termination of Gaussian 16 at Tue Dec  8 20:51:14 2020.

 ----------------------------------------------------------------------
 # B3LYP/6-311++G(d,p) empiricaldispersion=gd3bj scf=xqc pop=npa geom=c
 heck
 ----------------------------------------------------------------------

 -------------------------------------
 CID_121272438_JID_1663_Energie_kation
 -------------------------------------
 Structure from the checkpoint file:  "JID_1663.chk"
 Charge =  1 Multiplicity = 2

 SCF Done:  E(UB3LYP) =  -589.436423027     A.U. after   28 cycles
 Normal termination of Gaussian 16 at Tue Dec  8 20:55:08 2020.
 Gaussian 16:  ES64L-G16RevA.03 25-Dec-2016

 ----------------------------------------------------------------------
 # B3LYP/6-311++G(d,p) empiricaldispersion=gd3bj scf=xqc pop=npa geom=c
 heck
 ----------------------------------------------------------------------

 ------------------------------------
 CID_121272438_JID_1663_Energie_anion
 ------------------------------------
 Structure from the checkpoint file:  "JID_1663.chk"
 Charge = -1 Multiplicity = 2

                         Standard orientation:
 ---------------------------------------------------------------------
 Center     Atomic      Atomic             Coordinates (Angstroms)
 Number     Number       Type             X           Y           Z
 ---------------------------------------------------------------------
      1          6           0       -3.969687   -0.133081    0.205473
      2          8           0       -2.651467   -0.563188    0.591762
      3          6           0       -1.647600   -0.092785   -0.168173
      4          8           0       -1.804198    0.647605   -1.116850
      5          6           0       -0.316164   -0.631559    0.313030
      6          6           0        0.847119    0.022263   -0.440874
      7          6           0        1.009860    1.489055   -0.114955
      8          6           0        1.905693    2.017450    0.715382
      9          7           0        2.122516   -0.725257   -0.119052
     10          8           0        2.894943   -0.938440   -1.045258
     11          8           0        2.311631   -1.043730    1.054506
     12          1           0       -4.648068   -0.602396    0.917355
     13          1           0       -4.192825   -0.457311   -0.813935
     14          1           0       -4.045047    0.955739    0.258675
     15          1           0       -0.213488   -0.466529    1.387997
     16          1           0       -0.314345   -1.717652    0.159255
     17          1           0        0.720208   -0.102314   -1.516929
     18          1           0        0.282627    2.113890   -0.625672
     19          1           0        1.931164    3.089044    0.888058
     20          1           0        2.639567    1.418285    1.245972
 ---------------------------------------------------------------------

 SCF Done:  E(UB3LYP) =  -589.812722828     A.U. after   33 cycles
 SCF Done:  E(UB3LYP) =  -589.812722828     a.u. after    1 cycles

 The electronic state is 2-A.
 Alpha  occ. eigenvalues --  -19.07422 -19.01559 -18.95868 -18.95815 -14.31935
 Alpha  occ. eigenvalues --  -10.20406 -10.12734 -10.09869 -10.07987 -10.06800
 Alpha  occ. eigenvalues --  -10.05615  -1.03672  -1.01450  -0.92608  -0.86673
 Alpha  occ. eigenvalues --   -0.71948  -0.66208  -0.62646  -0.57453  -0.49453
 Alpha  occ. eigenvalues --   -0.47153  -0.41807  -0.40729  -0.39914  -0.38906
 Alpha  occ. eigenvalues --   -0.38315  -0.35942  -0.34414  -0.33187  -0.32639
 Alpha  occ. eigenvalues --   -0.31415  -0.28931  -0.28719  -0.26703  -0.26583
 Alpha  occ. eigenvalues --   -0.23678  -0.21557  -0.18617  -0.16252  -0.14594
 Alpha  occ. eigenvalues --   -0.12785  -0.11531   0.04354
 Alpha virt. eigenvalues --    0.05883   0.08768   0.09232   0.09501   0.09913
 Alpha virt. eigenvalues --    0.10553   0.11036   0.11971   0.12772   0.13702
 Alpha virt. eigenvalues --    0.14297   0.14887   0.17101   0.17823   0.17974

  Beta  occ. eigenvalues --  -19.07417 -19.01550 -18.95416 -18.95404 -14.31045
  Beta  occ. eigenvalues --  -10.20404 -10.12682 -10.09915 -10.07967 -10.06756
  Beta  occ. eigenvalues --  -10.05619  -1.02469  -1.01432  -0.92591  -0.85840
  Beta  occ. eigenvalues --   -0.71805  -0.66144  -0.62529  -0.57049  -0.48925
  Beta  occ. eigenvalues --   -0.47080  -0.41305  -0.40585  -0.39709  -0.38342
  Beta  occ. eigenvalues --   -0.37975  -0.35486  -0.33884  -0.32610  -0.31480
  Beta  occ. eigenvalues --   -0.31119  -0.28641  -0.28109  -0.26638  -0.26472
  Beta  occ. eigenvalues --   -0.23500  -0.21530  -0.18591  -0.16104  -0.12501
  Beta  occ. eigenvalues --   -0.11692  -0.11112
  Beta virt. eigenvalues --    0.06889   0.08794   0.09228   0.10065   0.10114
  Beta virt. eigenvalues --    0.10736   0.10998   0.11786   0.12665   0.13059
  Beta virt. eigenvalues --    0.13894   0.14235   0.14956   0.17054   0.17748

 Mulliken charges and spin densities:
               1          2
     1  C    0.859043  -1.097421
     2  O   -0.146688   0.064915
     3  C   -0.711259   0.479908
     4  O   -0.281201   0.015203
     5  C    0.529368  -0.733586
     6  C   -0.394096   0.120696
     7  C    0.330115  -0.032568
     8  C   -0.643400  -0.038460
     9  N   -0.119691   0.274050
    10  O   -0.198094   0.178762
    11  O   -0.231353   0.161009
    12  H   -0.506344   0.655457
    13  H   -0.230960   0.406334
    14  H   -0.211661   0.384661
    15  H    0.196191   0.011381
    16  H    0.181463   0.027432
    17  H    0.200076   0.035805
    18  H    0.135530   0.070821
    19  H    0.093513   0.000836
    20  H    0.149449   0.014764
 Sum of Mulliken charges =  -1.00000   1.00000

 Dipole moment (field-independent basis, Debye):
    X=             -1.4217    Y=              2.4132    Z=              0.3615  Tot=              2.8241
 Quadrupole moment (field-independent basis, Debye-Ang):
   XX=           -138.9191   YY=            -80.2836   ZZ=            -83.9226
   XY=              9.5298   XZ=              3.3880   YZ=              3.5001

 Summary of Natural Population Analysis:

                                       Natural Population
                Natural  -----------------------------------------------
    Atom  No    Charge         Core      Valence    Rydberg      Total
 -----------------------------------------------------------------------
      C    1   -0.10527      0.99960     2.09661    0.00907     3.10527
      O    2   -0.27776      0.99986     3.26914    0.00877     4.27776
      C    3    0.41121      0.99969     1.56386    0.02524     2.58879
      O    4   -0.31098      0.99987     3.30555    0.00557     4.31098
      C    5   -0.24014      0.99956     2.22920    0.01139     3.24014
      C    6   -0.05557      0.99953     2.04135    0.01469     3.05557
      C    7   -0.08825      0.99955     2.07645    0.01224     3.08825
      C    8   -0.19079      0.99957     2.18505    0.00617     3.19079
      N    9    0.33891      0.99975     2.13314    0.02819     3.16109
      O   10   -0.19570      0.99990     3.18749    0.00831     4.19570
      O   11   -0.21433      0.99990     3.20592    0.00851     4.21433
      H   12    0.09369      0.00000     0.40453    0.00178     0.40631
      H   13    0.09196      0.00000     0.40669    0.00135     0.40804
      H   14    0.09194      0.00000     0.40677    0.00129     0.40806
      H   15    0.12389      0.00000     0.37471    0.00139     0.37611
      H   16    0.11946      0.00000     0.37947    0.00107     0.38054
      H   17    0.11505      0.00000     0.38357    0.00138     0.38495
      H   18    0.10100      0.00000     0.39778    0.00123     0.39900
      H   19    0.08719      0.00000     0.41182    0.00099     0.41281
      H   20    0.10452      0.00000     0.39414    0.00134     0.39548
 =======================================================================
   * Total *    0.00000     10.99677    30.85326    0.14996    42.00000

 Normal termination of Gaussian 16 at Tue Dec  8 21:00:00 2020.
