 Gaussian 16, Revision A.03,

 -----------------------------------------------------------
 # opt freq B3LYP/6-31G(d) empiricaldispersion=gd3bj scf=xqc
 -----------------------------------------------------------

 ------------------------------
 CID_83530603_JID_4471_neutraal
 ------------------------------
 Symbolic Z-matrix:
 Charge =  0 Multiplicity = 1

 SCF Done:  E(RB3LYP) =  -627.201384325     A.U. after   15 cycles
 SCF Done:  E(RB3LYP) =  -627.204785448     A.U. after   13 cycles
 SCF Done:  E(RB3LYP) =  -627.204952578     A.U. after   11 cycles
 SCF Done:  E(RB3LYP) =  -627.204966820     A.U. after   10 cycles
 SCF Done:  E(RB3LYP) =  -627.204971316     A.U. after    8 cycles
 SCF Done:  E(RB3LYP) =  -627.204972484     A.U. after    8 cycles
 Optimization completed.
    -- Stationary point found.
 Normal termination of Gaussian 16 at Thu Dec 10 09:47:35 2020.

 --------------------------------------------------------------------
 #N Geom=AllCheck Guess=TCheck SCRF=Check GenChk RB3LYP/6-31G(d) Freq
 --------------------------------------------------------------------

 Structure from the checkpoint file:  "JID_4471.chk"
 ------------------------------
 CID_83530603_JID_4471_neutraal
 ------------------------------
 Charge =  0 Multiplicity = 1

 SCF Done:  E(RB3LYP) =  -627.204972484     A.U. after    1 cycles

  Exact polarizability: 216.342  -2.571 134.104  -0.671   0.027  57.028
 Approx polarizability: 319.433  -5.904 224.958   0.731   0.009  88.492

                      1                      2                      3
                      A                      A                      A
 Frequencies --     59.2741                71.0459               114.5511
 Red. masses --      4.2980                 4.2448                 4.5221
 Frc consts  --      0.0089                 0.0126                 0.0350
 IR Inten    --      0.2208                 4.6639                 2.7372

                      4                      5                      6
                      A                      A                      A
 Frequencies --    122.5900               161.4237               178.0172
 Red. masses --      3.1068                 1.0319                 1.1151
 Frc consts  --      0.0275                 0.0158                 0.0208
 IR Inten    --      0.9188                 1.5262                 0.5907

                      7                      8                      9
                      A                      A                      A
 Frequencies --    234.4136               245.2079               279.0794
 Red. masses --      3.9095                 4.3342                 2.8242
 Frc consts  --      0.1266                 0.1535                 0.1296
 IR Inten    --      2.1133                 0.8271                 0.6216

                     10                     11                     12
                      A                      A                      A
 Frequencies --    292.2367               334.9501               346.9192
 Red. masses --      1.8280                 1.4318                 5.4105
 Frc consts  --      0.0920                 0.0946                 0.3837
 IR Inten    --      8.3740                13.5282                 1.2309

                     13                     14                     15
                      A                      A                      A
 Frequencies --    371.6805               392.6441               536.9863
 Red. masses --      4.2284                 5.6135                 4.7013
 Frc consts  --      0.3442                 0.5099                 0.7987
 IR Inten    --      0.2433                 6.3229                32.4084

                     16                     17                     18
                      A                      A                      A
 Frequencies --    540.6386               563.4716               579.4503
 Red. masses --      3.9755                 6.4032                 3.5832
 Frc consts  --      0.6846                 1.1978                 0.7088
 IR Inten    --      0.0515                 8.6430                 1.6095

                     19                     20                     21
                      A                      A                      A
 Frequencies --    608.2009               612.3285               650.2403
 Red. masses --      2.1869                 2.6002                 3.0442
 Frc consts  --      0.4766                 0.5744                 0.7583
 IR Inten    --    133.8605                67.6343               190.4495

                     22                     23                     24
                      A                      A                      A
 Frequencies --    706.0735               743.0608               746.8626
 Red. masses --      4.1092                 1.3690                 3.5841
 Frc consts  --      1.2070                 0.4454                 1.1779
 IR Inten    --     12.9678                32.4267                14.7495

                     25                     26                     27
                      A                      A                      A
 Frequencies --    802.6493               826.7799               878.2667
 Red. masses --      3.4584                 1.5598                 1.3470
 Frc consts  --      1.3127                 0.6282                 0.6122
 IR Inten    --     12.5027                 7.1116                 1.3129

                     28                     29                     30
                      A                      A                      A
 Frequencies --    895.5303               908.7616               946.6855
 Red. masses --      6.7097                 6.2224                 3.6088
 Frc consts  --      3.1704                 3.0277                 1.9055
 IR Inten    --     14.3992                10.9742                 7.4068

                     31                     32                     33
                      A                      A                      A
 Frequencies --    965.3743              1008.5749              1031.2666
 Red. masses --      3.6071                 1.7063                 1.5155
 Frc consts  --      1.9806                 1.0226                 0.9496
 IR Inten    --      5.7182                 9.7165                20.5506

                     34                     35                     36
                      A                      A                      A
 Frequencies --   1041.4588              1063.9178              1069.6519
 Red. masses --      1.3316                 1.5670                 1.5243
 Frc consts  --      0.8510                 1.0450                 1.0276
 IR Inten    --     31.7577                 2.2687                 0.0295

                     37                     38                     39
                      A                      A                      A
 Frequencies --   1119.6794              1176.1870              1200.9810
 Red. masses --      2.3031                 2.9033                 1.7231
 Frc consts  --      1.7012                 2.3664                 1.4643
 IR Inten    --      8.8374                 4.6616                18.2263

                     40                     41                     42
                      A                      A                      A
 Frequencies --   1219.2619              1260.5049              1277.1239
 Red. masses --      2.9024                 1.9794                 4.7690
 Frc consts  --      2.5421                 1.8529                 4.5829
 IR Inten    --      2.2775                 2.9008                12.8193

                     43                     44                     45
                      A                      A                      A
 Frequencies --   1306.0739              1396.0015              1415.4824
 Red. masses --      5.0956                 3.6360                 2.1128
 Frc consts  --      5.1213                 4.1749                 2.4941
 IR Inten    --     12.3507                 7.3786                 6.9286

                     46                     47                     48
                      A                      A                      A
 Frequencies --   1431.1210              1435.2789              1454.9372
 Red. masses --      1.5603                 1.8371                 4.8800
 Frc consts  --      1.8828                 2.2297                 6.0864
 IR Inten    --      1.0060                23.4626               175.0879

                     49                     50                     51
                      A                      A                      A
 Frequencies --   1469.6237              1505.0185              1514.0470
 Red. masses --      3.9994                 1.1662                 1.0471
 Frc consts  --      5.0893                 1.5564                 1.4143
 IR Inten    --    143.8257                33.7409                15.3521

                     52                     53                     54
                      A                      A                      A
 Frequencies --   1515.2190              1521.0560              1541.8698
 Red. masses --      1.0499                 1.1437                 4.7917
 Frc consts  --      1.4202                 1.5590                 6.7118
 IR Inten    --      2.3697                 8.1645                81.1582

                     55                     56                     57
                      A                      A                      A
 Frequencies --   1614.3867              1618.8191              1643.9861
 Red. masses --      7.3772                 5.1785                 6.4995
 Frc consts  --     11.3282                 7.9956                10.3497
 IR Inten    --     91.6926                21.0040                14.9128

                     58                     59                     60
                      A                      A                      A
 Frequencies --   1696.3108              3027.8757              3029.1094
 Red. masses --      1.1834                 1.0447                 1.0447
 Frc consts  --      2.0063                 5.6431                 5.6475
 IR Inten    --     75.4095                20.6311                26.1701

                     61                     62                     63
                      A                      A                      A
 Frequencies --   3080.4416              3081.7239              3165.2948
 Red. masses --      1.0960                 1.0960                 1.0975
 Frc consts  --      6.1274                 6.1325                 6.4785
 IR Inten    --     19.0108                15.7276                 4.6986

                     64                     65                     66
                      A                      A                      A
 Frequencies --   3166.8086              3267.0269              3293.3015
 Red. masses --      1.0973                 1.0909                 1.0963
 Frc consts  --      6.4837                 6.8603                 7.0054
 IR Inten    --      3.6017                 7.7873                 0.9996

                     67                     68                     69
                      A                      A                      A
 Frequencies --   3301.3303              3555.4491              3652.9036
 Red. masses --      1.1053                 1.0476                 1.0980
 Frc consts  --      7.0973                 7.8028                 8.6325
 IR Inten    --      1.6112                17.0203                12.0055

 - Thermochemistry -
 -------------------
 Temperature   298.150 Kelvin.  Pressure   1.00000 Atm.
 Atom     1 has atomic number  6 and mass  12.00000

 Molecular mass:   189.09021 amu.
 Principal axes and moments of inertia in atomic units:
                           1         2         3
     Eigenvalues --  1209.141414187.822575372.71375
           X            0.99999  -0.00437  -0.00191
           Y            0.00437   0.99999   0.00008
           Z            0.00191  -0.00008   1.00000
 This molecule is an asymmetric top.
 Rotational symmetry number  1.
 Warning -- assumption of classical behavior for rotation
           may cause significant error
 Rotational temperatures (Kelvin)      0.07163     0.02068     0.01612
 Rotational constants (GHZ):           1.49258     0.43095     0.33591
 Zero-point vibrational energy     525666.0 (Joules/Mol)
                                  125.63720 (Kcal/Mol)
 Warning -- explicit consideration of  20 degrees of freedom as
           vibrations may cause significant error
 Vibrational temperatures:     85.28   102.22   164.81   176.38   232.25
          (Kelvin)            256.13   337.27   352.80   401.53   420.46
                              481.92   499.14   534.77   564.93   772.60
                              777.86   810.71   833.70   875.07   881.00
                              935.55  1015.88  1069.10  1074.57  1154.83
                             1189.55  1263.63  1288.47  1307.51  1362.07
                             1388.96  1451.11  1483.76  1498.43  1530.74
                             1538.99  1610.97  1692.27  1727.94  1754.25
                             1813.59  1837.50  1879.15  2008.53  2036.56
                             2059.06  2065.05  2093.33  2114.46  2165.39
                             2178.38  2180.06  2188.46  2218.41  2322.74
                             2329.12  2365.33  2440.61  4356.44  4358.21
                             4432.07  4433.91  4554.15  4556.33  4700.52
                             4738.33  4749.88  5115.50  5255.71

 Zero-point correction=                           0.200216 (Hartree/Particle)
 Thermal correction to Energy=                    0.212783
 Thermal correction to Enthalpy=                  0.213728
 Thermal correction to Gibbs Free Energy=         0.161372
 Sum of electronic and zero-point Energies=           -627.004757
 Sum of electronic and thermal Energies=              -626.992189
 Sum of electronic and thermal Enthalpies=            -626.991245
 Sum of electronic and thermal Free Energies=         -627.043600

                     E (Thermal)             CV                S
                      KCal/Mol        Cal/Mol-Kelvin    Cal/Mol-Kelvin
 Total                  133.524             48.218            110.191
 Electronic               0.000              0.000              0.000
 Translational            0.889              2.981             41.617
 Rotational               0.889              2.981             31.676
 Vibrational            131.746             42.257             36.898
 Vibration     1          0.597              1.974              4.481
 Vibration     2          0.598              1.968              4.124
 Vibration     3          0.607              1.937              3.190
 Vibration     4          0.610              1.930              3.059
 Vibration     5          0.622              1.890              2.533
 Vibration     6          0.628              1.869              2.349
 Vibration     7          0.654              1.788              1.845
 Vibration     8          0.660              1.771              1.765
 Vibration     9          0.679              1.712              1.539
 Vibration    10          0.688              1.688              1.461
 Vibration    11          0.716              1.606              1.236
 Vibration    12          0.725              1.582              1.180
 Vibration    13          0.743              1.530              1.073
 Vibration    14          0.760              1.486              0.990
 Vibration    15          0.892              1.168              0.572
 Vibration    16          0.896              1.160              0.564
 Vibration    17          0.919              1.110              0.517
 Vibration    18          0.936              1.076              0.486
 Vibration    19          0.967              1.014              0.436
 Vibration    20          0.972              1.006              0.429

                           ! Non-Optimized Parameters !
 Normal termination of Gaussian 16 at Thu Dec 10 09:53:44 2020.

 ----------------------------------------------------------------------
 # B3LYP/6-311++G(d,p) empiricaldispersion=gd3bj scf=xqc pop=npa geom=c
 heck
 ----------------------------------------------------------------------

 --------------------------------------
 CID_83530603_JID_4471_Energie_neutraal
 --------------------------------------
 Structure from the checkpoint file:  "JID_4471.chk"
 Charge =  0 Multiplicity = 1

 SCF Done:  E(RB3LYP) =  -627.376994743     A.U. after   14 cycles
 Normal termination of Gaussian 16 at Thu Dec 10 09:56:21 2020.

 ----------------------------------------------------------------------
 # B3LYP/6-311++G(d,p) empiricaldispersion=gd3bj scf=xqc pop=npa geom=c
 heck
 ----------------------------------------------------------------------

 ------------------------------------
 CID_83530603_JID_4471_Energie_kation
 ------------------------------------
 Structure from the checkpoint file:  "JID_4471.chk"
 Charge =  1 Multiplicity = 2

 SCF Done:  E(UB3LYP) =  -627.111071367     A.U. after   18 cycles
 Normal termination of Gaussian 16 at Thu Dec 10 10:01:05 2020.
 Gaussian 16:  ES64L-G16RevA.03 25-Dec-2016

 ----------------------------------------------------------------------
 # B3LYP/6-311++G(d,p) empiricaldispersion=gd3bj scf=xqc pop=npa geom=c
 heck
 ----------------------------------------------------------------------

 -----------------------------------
 CID_83530603_JID_4471_Energie_anion
 -----------------------------------
 Structure from the checkpoint file:  "JID_4471.chk"
 Charge = -1 Multiplicity = 2

                         Standard orientation:
 ---------------------------------------------------------------------
 Center     Atomic      Atomic             Coordinates (Angstroms)
 Number     Number       Type             X           Y           Z
 ---------------------------------------------------------------------
      1          6           0        2.291635    2.514638    0.017959
      2          6           0        1.566972    1.196421    0.002629
      3          6           0        2.277708   -0.020682   -0.006079
      4          6           0        1.511615   -1.201588    0.003647
      5          7           0        0.176979   -1.166465    0.005395
      6          6           0       -0.408216    0.039600    0.002368
      7          7           0        0.234412    1.220663    0.004379
      8          6           0       -1.863257    0.107904   -0.001009
      9          6           0       -2.726468    1.173363   -0.001369
     10          6           0       -4.046195    0.626597   -0.005738
     11          6           0       -3.891827   -0.729391   -0.008084
     12          8           0       -2.573433   -1.062219   -0.004928
     13          6           0        2.173271   -2.552549    0.020138
     14          7           0        3.672315   -0.051829    0.048844
     15          1           0        1.564645    3.327044    0.061773
     16          1           0        2.905326    2.649395   -0.884450
     17          1           0        2.963440    2.587986    0.882831
     18          1           0       -2.434143    2.212380    0.001912
     19          1           0       -4.981473    1.168536   -0.006803
     20          1           0       -4.582490   -1.558653   -0.011243
     21          1           0        2.782048   -2.715910   -0.880975
     22          1           0        2.838723   -2.658358    0.886680
     23          1           0        1.407559   -3.328562    0.061811
     24          1           0        4.093846   -0.899448   -0.309493
     25          1           0        4.132611    0.770883   -0.319720
 ---------------------------------------------------------------------

 SCF Done:  E(UB3LYP) =  -627.370987029     A.U. after   33 cycles
 SCF Done:  E(UB3LYP) =  -627.370987029     a.u. after    1 cycles

 The electronic state is 2-A.
 Alpha  occ. eigenvalues --  -19.07042 -14.20674 -14.18655 -14.18558 -10.11083
 Alpha  occ. eigenvalues --  -10.10799 -10.10600 -10.10191 -10.10035 -10.09340
 Alpha  occ. eigenvalues --  -10.06743 -10.06119 -10.06062 -10.05336  -0.99871
 Alpha  occ. eigenvalues --   -0.86477  -0.80279  -0.77037  -0.69192  -0.68007
 Alpha  occ. eigenvalues --   -0.63174  -0.63084  -0.58686  -0.53022  -0.50056
 Alpha  occ. eigenvalues --   -0.47767  -0.44737  -0.43349  -0.42612  -0.39194
 Alpha  occ. eigenvalues --   -0.35688  -0.35156  -0.34890  -0.33402  -0.31514
 Alpha  occ. eigenvalues --   -0.31454  -0.30203  -0.29591  -0.28870  -0.27665
 Alpha  occ. eigenvalues --   -0.27574  -0.26454  -0.25798  -0.22950  -0.18964
 Alpha  occ. eigenvalues --   -0.18443  -0.17451  -0.14198  -0.12841  -0.08878
 Alpha  occ. eigenvalues --    0.04476
 Alpha virt. eigenvalues --    0.06440   0.07472   0.07916   0.08468   0.09270
 Alpha virt. eigenvalues --    0.09565   0.10557   0.11284   0.11886   0.12366
 Alpha virt. eigenvalues --    0.12796   0.12972   0.14435   0.14632   0.15067

  Beta  occ. eigenvalues --  -19.06939 -14.20579 -14.18571 -14.18497 -10.10991
  Beta  occ. eigenvalues --  -10.10680 -10.10566 -10.10221 -10.10054 -10.09206
  Beta  occ. eigenvalues --  -10.06780 -10.06086 -10.06032 -10.05259  -0.99703
  Beta  occ. eigenvalues --   -0.86316  -0.80119  -0.76901  -0.69079  -0.67853
  Beta  occ. eigenvalues --   -0.63117  -0.62963  -0.58526  -0.52742  -0.50012
  Beta  occ. eigenvalues --   -0.47716  -0.44596  -0.43268  -0.42531  -0.39020
  Beta  occ. eigenvalues --   -0.35580  -0.35045  -0.34504  -0.33176  -0.31473
  Beta  occ. eigenvalues --   -0.31416  -0.30158  -0.29539  -0.28819  -0.27505
  Beta  occ. eigenvalues --   -0.27334  -0.26417  -0.25702  -0.22491  -0.18814
  Beta  occ. eigenvalues --   -0.18081  -0.17097  -0.13732  -0.12734  -0.08366
  Beta virt. eigenvalues --    0.07321   0.07625   0.07826   0.08420   0.08538
  Beta virt. eigenvalues --    0.09281   0.10175   0.10933   0.11569   0.12332
  Beta virt. eigenvalues --    0.12647   0.13084   0.13208   0.14491   0.14774

 Mulliken charges and spin densities:
               1          2
     1  C    0.975400  -1.654723
     2  C   -0.636761   0.895690
     3  C    0.574900  -0.586077
     4  C   -0.536960   0.682492
     5  N   -0.077025   0.040885
     6  C   -0.194493   0.018680
     7  N    0.003040   0.056074
     8  C   -0.276538   0.008364
     9  C   -0.047688   0.106892
    10  C   -0.476128  -0.067410
    11  C    0.117538   0.101144
    12  O   -0.031250   0.019366
    13  C    0.762915  -1.383895
    14  N   -0.307841  -0.027747
    15  H    0.137117   0.015719
    16  H   -0.287780   0.454782
    17  H   -0.112783   0.277484
    18  H    0.150751   0.018345
    19  H    0.129149   0.002648
    20  H    0.143162  -0.000119
    21  H   -0.220060   0.381751
    22  H   -0.084481   0.248170
    23  H    0.151037   0.009288
    24  H   -0.419668   0.682938
    25  H   -0.435555   0.699259
 Sum of Mulliken charges =  -1.00000   1.00000

 Dipole moment (field-independent basis, Debye):
    X=             -8.3927    Y=              0.1760    Z=              1.4580  Tot=              8.5202
 Quadrupole moment (field-independent basis, Debye-Ang):
   XX=           -157.9752   YY=           -109.0364   ZZ=           -102.3420
   XY=             -1.3565   XZ=              7.2612   YZ=              0.6608

 Summary of Natural Population Analysis:

                                       Natural Population
                Natural  -----------------------------------------------
    Atom  No    Charge         Core      Valence    Rydberg      Total
 -----------------------------------------------------------------------
      C    1   -0.30518      0.99964     2.29905    0.00649     3.30518
      C    2    0.09897      0.99952     1.88763    0.01388     2.90103
      C    3    0.06623      0.99938     1.92259    0.01179     2.93377
      C    4    0.09879      0.99952     1.88789    0.01380     2.90121
      N    5   -0.23305      0.99966     2.72438    0.00902     3.73305
      C    6    0.18582      0.99955     1.79793    0.01670     2.81418
      N    7   -0.23434      0.99966     2.72583    0.00885     3.73434
      C    8    0.14230      0.99943     1.84346    0.01481     2.85770
      C    9   -0.12849      0.99953     2.12129    0.00768     3.12849
      C   10   -0.16845      0.99958     2.16063    0.00824     3.16845
      C   11    0.06840      0.99953     1.91751    0.01456     2.93160
      O   12   -0.21479      0.99986     3.20758    0.00735     4.21479
      C   13   -0.30551      0.99964     2.29943    0.00644     3.30551
      N   14   -0.39395      0.99972     2.88302    0.01121     3.89395
      H   15    0.10939      0.00000     0.38945    0.00116     0.39061
      H   16    0.10445      0.00000     0.39408    0.00146     0.39555
      H   17    0.10501      0.00000     0.39384    0.00115     0.39499
      H   18    0.11146      0.00000     0.38768    0.00086     0.38854
      H   19    0.10139      0.00000     0.39776    0.00085     0.39861
      H   20    0.08797      0.00000     0.41112    0.00091     0.41203
      H   21    0.10344      0.00000     0.39522    0.00134     0.39656
      H   22    0.10467      0.00000     0.39420    0.00114     0.39533
      H   23    0.11052      0.00000     0.38833    0.00115     0.38948
      H   24    0.19217      0.00000     0.29961    0.00822     0.30783
      H   25    0.19277      0.00000     0.29794    0.00929     0.30723
 =======================================================================
   * Total *    0.00000     13.99422    35.82744    0.17835    50.00000

 Normal termination of Gaussian 16 at Thu Dec 10 10:10:20 2020.
