 Gaussian 16, Revision A.03,

 -----------------------------------------------------------
 # opt freq B3LYP/6-31G(d) empiricaldispersion=gd3bj scf=xqc
 -----------------------------------------------------------

 ------------------------------
 CID_82161168_JID_7412_neutraal
 ------------------------------
 Symbolic Z-matrix:
 Charge =  0 Multiplicity = 1

 SCF Done:  E(RB3LYP) =  -772.456813377     A.U. after   14 cycles
 SCF Done:  E(RB3LYP) =  -772.460567523     A.U. after   11 cycles
 SCF Done:  E(RB3LYP) =  -772.461322631     A.U. after   12 cycles
 SCF Done:  E(RB3LYP) =  -772.461729475     A.U. after   11 cycles
 SCF Done:  E(RB3LYP) =  -772.461904977     A.U. after   11 cycles
 SCF Done:  E(RB3LYP) =  -772.462017811     A.U. after   11 cycles
 SCF Done:  E(RB3LYP) =  -772.462065530     A.U. after   10 cycles
 SCF Done:  E(RB3LYP) =  -772.462072371     A.U. after   10 cycles
 SCF Done:  E(RB3LYP) =  -772.462074518     A.U. after    8 cycles
 SCF Done:  E(RB3LYP) =  -772.462075839     A.U. after    8 cycles
 SCF Done:  E(RB3LYP) =  -772.462076012     A.U. after    8 cycles
 Optimization completed.
    -- Stationary point found.
 Normal termination of Gaussian 16 at Fri Dec 11 12:01:57 2020.

 --------------------------------------------------------------------
 #N Geom=AllCheck Guess=TCheck SCRF=Check GenChk RB3LYP/6-31G(d) Freq
 --------------------------------------------------------------------

 Structure from the checkpoint file:  "JID_7412.chk"
 ------------------------------
 CID_82161168_JID_7412_neutraal
 ------------------------------
 Charge =  0 Multiplicity = 1

 SCF Done:  E(RB3LYP) =  -772.462076013     A.U. after    1 cycles

  Exact polarizability: 197.957   1.029 165.633   9.962   8.617 113.246
 Approx polarizability: 271.718   1.350 248.771  17.142  18.055 166.430

                      1                      2                      3
                      A                      A                      A
 Frequencies --     28.7261                33.5327                51.0721
 Red. masses --      3.8590                 2.8239                 3.4935
 Frc consts  --      0.0019                 0.0019                 0.0054
 IR Inten    --      0.3694                 0.5724                 1.1063

                      4                      5                      6
                      A                      A                      A
 Frequencies --     52.4308                63.2562               103.4161
 Red. masses --      3.5099                 3.5249                 3.8082
 Frc consts  --      0.0057                 0.0083                 0.0240
 IR Inten    --      0.3329                 0.9552                 2.0651

                      7                      8                      9
                      A                      A                      A
 Frequencies --    105.7744               134.0626               172.8273
 Red. masses --      3.2106                 2.2493                 3.7904
 Frc consts  --      0.0212                 0.0238                 0.0667
 IR Inten    --      1.5013                 0.1083                 0.9068

                     10                     11                     12
                      A                      A                      A
 Frequencies --    190.6108               220.9656               226.1123
 Red. masses --      2.3129                 1.6216                 1.3231
 Frc consts  --      0.0495                 0.0466                 0.0399
 IR Inten    --      0.9450                 0.5275                 0.5681

                     13                     14                     15
                      A                      A                      A
 Frequencies --    237.5674               258.1588               265.1047
 Red. masses --      1.5480                 1.2772                 1.2020
 Frc consts  --      0.0515                 0.0502                 0.0498
 IR Inten    --      1.6106                 0.2599                 0.1811

                     16                     17                     18
                      A                      A                      A
 Frequencies --    280.4389               308.8672               319.6665
 Red. masses --      3.1119                 3.0933                 2.6241
 Frc consts  --      0.1442                 0.1739                 0.1580
 IR Inten    --      0.6034                 0.7178                 1.0808

                     19                     20                     21
                      A                      A                      A
 Frequencies --    352.6019               381.0002               400.9834
 Red. masses --      2.8547                 3.6639                 1.4660
 Frc consts  --      0.2091                 0.3134                 0.1389
 IR Inten    --     11.8302                 5.0134                80.3228

                     22                     23                     24
                      A                      A                      A
 Frequencies --    410.3439               419.9488               451.5434
 Red. masses --      2.4448                 2.0449                 2.6119
 Frc consts  --      0.2425                 0.2125                 0.3138
 IR Inten    --      2.9384                38.0096                16.8471

                     25                     26                     27
                      A                      A                      A
 Frequencies --    460.9359               470.1119               498.1924
 Red. masses --      3.3813                 3.7185                 3.0761
 Frc consts  --      0.4233                 0.4842                 0.4498
 IR Inten    --     31.6512                 6.5495                 1.8997

                     28                     29                     30
                      A                      A                      A
 Frequencies --    558.9465               583.1182               624.4916
 Red. masses --      3.6564                 3.9749                 4.8685
 Frc consts  --      0.6730                 0.7963                 1.1187
 IR Inten    --      0.6852                 0.4985                 4.7113

                     31                     32                     33
                      A                      A                      A
 Frequencies --    677.7280               718.5229               758.6899
 Red. masses --      3.7582                 4.4824                 3.5493
 Frc consts  --      1.0171                 1.3634                 1.2037
 IR Inten    --      6.3582                 0.4479                 5.4737

                     34                     35                     36
                      A                      A                      A
 Frequencies --    783.0721               790.9789               825.9041
 Red. masses --      1.6899                 4.4246                 1.5670
 Frc consts  --      0.6105                 1.6310                 0.6297
 IR Inten    --     14.5696                15.1869                16.8726

                     37                     38                     39
                      A                      A                      A
 Frequencies --    834.9446               860.3911               901.4835
 Red. masses --      2.3328                 1.8630                 1.4167
 Frc consts  --      0.9582                 0.8125                 0.6784
 IR Inten    --     10.3394                 0.9465                 4.4790

                     40                     41                     42
                      A                      A                      A
 Frequencies --    915.0673               927.7831               936.5661
 Red. masses --      1.8965                 1.5470                 1.9518
 Frc consts  --      0.9356                 0.7845                 1.0087
 IR Inten    --      5.9196                 1.4556                 5.7247

                     43                     44                     45
                      A                      A                      A
 Frequencies --    944.5619               961.9690               975.2606
 Red. masses --      1.2319                 1.4122                 1.9405
 Frc consts  --      0.6476                 0.7700                 1.0874
 IR Inten    --      0.5908                 0.9371                31.4254

                     46                     47                     48
                      A                      A                      A
 Frequencies --   1012.9358              1053.4177              1065.1106
 Red. masses --      2.7785                 3.6458                 2.1615
 Frc consts  --      1.6796                 2.3836                 1.4448
 IR Inten    --     22.0917                45.1940                30.0761

                     49                     50                     51
                      A                      A                      A
 Frequencies --   1081.4018              1114.5904              1137.1659
 Red. masses --      5.1249                 1.5313                 1.6973
 Frc consts  --      3.5311                 1.1208                 1.2931
 IR Inten    --     31.6359                 3.0853                26.0604

                     52                     53                     54
                      A                      A                      A
 Frequencies --   1157.6093              1174.2769              1174.4434
 Red. masses --      1.8919                 2.0160                 1.8167
 Frc consts  --      1.4937                 1.6379                 1.4763
 IR Inten    --     80.7707                17.6328               114.9699

                     55                     56                     57
                      A                      A                      A
 Frequencies --   1186.7775              1192.0530              1215.0402
 Red. masses --      1.2730                 1.8005                 1.8788
 Frc consts  --      1.0563                 1.5074                 1.6342
 IR Inten    --      0.7945                 7.6850                20.0261

                     58                     59                     60
                      A                      A                      A
 Frequencies --   1221.8709              1240.1329              1266.6200
 Red. masses --      1.4308                 1.4063                 1.9539
 Frc consts  --      1.2585                 1.2743                 1.8469
 IR Inten    --      2.4561                17.1047                33.8768

                     61                     62                     63
                      A                      A                      A
 Frequencies --   1272.2204              1292.8389              1315.4907
 Red. masses --      1.6672                 1.3011                 3.4244
 Frc consts  --      1.5899                 1.2813                 3.4915
 IR Inten    --     63.6792                 3.3038               195.5628

                     64                     65                     66
                      A                      A                      A
 Frequencies --   1320.1762              1351.3350              1368.4320
 Red. masses --      1.7193                 1.3353                 4.0552
 Frc consts  --      1.7655                 1.4367                 4.4741
 IR Inten    --    106.1965                 9.4127                26.4294

                     67                     68                     69
                      A                      A                      A
 Frequencies --   1387.9247              1390.5668              1396.9173
 Red. masses --      1.3940                 1.4944                 1.2671
 Frc consts  --      1.5822                 1.7026                 1.4569
 IR Inten    --     27.2176                11.3903                 6.8600

                     70                     71                     72
                      A                      A                      A
 Frequencies --   1414.3470              1430.9534              1439.9332
 Red. masses --      1.4531                 1.3769                 1.2536
 Frc consts  --      1.7127                 1.6611                 1.5315
 IR Inten    --     12.7297                16.9258                 9.3132

                     73                     74                     75
                      A                      A                      A
 Frequencies --   1444.4980              1447.5306              1470.0144
 Red. masses --      1.2631                 1.2460                 2.9786
 Frc consts  --      1.5528                 1.5383                 3.7923
 IR Inten    --     12.7309                39.4344                31.2308

                     76                     77                     78
                      A                      A                      A
 Frequencies --   1501.1291              1509.9367              1512.2705
 Red. masses --      1.2431                 1.0533                 1.0970
 Frc consts  --      1.6504                 1.4149                 1.4782
 IR Inten    --     21.7759                 0.7617                 5.3598

                     79                     80                     81
                      A                      A                      A
 Frequencies --   1515.3236              1520.6994              1521.0071
 Red. masses --      1.0516                 1.0651                 1.0479
 Frc consts  --      1.4226                 1.4511                 1.4283
 IR Inten    --      2.0920                 3.3786                 5.2171

                     82                     83                     84
                      A                      A                      A
 Frequencies --   1523.6171              1532.1748              1534.9987
 Red. masses --      1.0499                 1.0548                 1.0707
 Frc consts  --      1.4359                 1.4590                 1.4864
 IR Inten    --      3.6087                 7.4955                44.3606

                     85                     86                     87
                      A                      A                      A
 Frequencies --   1538.7051              1539.5205              1565.7682
 Red. masses --      1.0619                 1.0535                 2.7982
 Frc consts  --      1.4813                 1.4712                 4.0419
 IR Inten    --      3.2665                 9.8389               153.6718

                     88                     89                     90
                      A                      A                      A
 Frequencies --   1633.3493              1666.6694              3008.2207
 Red. masses --      6.8242                 6.1622                 1.0838
 Frc consts  --     10.7266                10.0852                 5.7786
 IR Inten    --     15.8160                17.4695                32.6066

                     91                     92                     93
                      A                      A                      A
 Frequencies --   3022.8828              3039.8981              3047.4222
 Red. masses --      1.0351                 1.0645                 1.0375
 Frc consts  --      5.5730                 5.7956                 5.6769
 IR Inten    --     59.1904                12.1783                21.1610

                     94                     95                     96
                      A                      A                      A
 Frequencies --   3055.1962              3056.2250              3061.5286
 Red. masses --      1.0714                 1.0349                 1.0353
 Frc consts  --      5.8922                 5.6953                 5.7175
 IR Inten    --      5.2216                15.6045                16.8507

                     97                     98                     99
                      A                      A                      A
 Frequencies --   3067.0375              3080.7611              3084.4323
 Red. masses --      1.0724                 1.1064                 1.0989
 Frc consts  --      5.9433                 6.1868                 6.1596
 IR Inten    --     73.4321                43.5191                23.8519

                    100                    101                    102
                      A                      A                      A
 Frequencies --   3102.0539              3112.3112              3120.4056
 Red. masses --      1.1043                 1.1017                 1.1015
 Frc consts  --      6.2607                 6.2873                 6.3189
 IR Inten    --     27.0750                47.3964                51.6344

                    103                    104                    105
                      A                      A                      A
 Frequencies --   3124.4753              3131.6172              3138.6672
 Red. masses --      1.1021                 1.1029                 1.1032
 Frc consts  --      6.3390                 6.3729                 6.4034
 IR Inten    --     24.8740                22.0735                22.8691

                    106                    107                    108
                      A                      A                      A
 Frequencies --   3141.0629              3159.2323              3188.1237
 Red. masses --      1.1027                 1.0994                 1.0889
 Frc consts  --      6.4103                 6.4649                 6.5207
 IR Inten    --     30.4797                25.5496                15.2231

                    109                    110                    111
                      A                      A                      A
 Frequencies --   3199.6505              3225.7966              3704.3736
 Red. masses --      1.0901                 1.0912                 1.0653
 Frc consts  --      6.5757                 6.6902                 8.6127
 IR Inten    --      4.3093                12.1747                23.4935

 - Thermochemistry -
 -------------------
 Temperature   298.150 Kelvin.  Pressure   1.00000 Atm.
 Atom     1 has atomic number  6 and mass  12.00000

 Molecular mass:   238.15689 amu.
 Principal axes and moments of inertia in atomic units:
                           1         2         3
     Eigenvalues --  2831.058946202.018447883.49287
           X            0.99973  -0.02260   0.00440
           Y            0.02255   0.99970   0.00969
           Z           -0.00462  -0.00958   0.99994
 This molecule is an asymmetric top.
 Rotational symmetry number  1.
 Warning -- assumption of classical behavior for rotation
           may cause significant error
 Rotational temperatures (Kelvin)      0.03059     0.01397     0.01099
 Rotational constants (GHZ):           0.63748     0.29099     0.22893
 Zero-point vibrational energy     897204.6 (Joules/Mol)
                                  214.43705 (Kcal/Mol)
 Warning -- explicit consideration of  29 degrees of freedom as
           vibrations may cause significant error
 Vibrational temperatures:     41.33    48.25    73.48    75.44    91.01
          (Kelvin)            148.79   152.19   192.89   248.66   274.25
                              317.92   325.33   341.81   371.43   381.43
                              403.49   444.39   459.93   507.32   548.17
                              576.93   590.39   604.21   649.67   663.18
                              676.39   716.79   804.20   838.98   898.50
                              975.10  1033.79  1091.59  1126.67  1138.04
                             1188.29  1201.30  1237.91  1297.03  1316.58
                             1334.87  1347.51  1359.01  1384.06  1403.18
                             1457.39  1515.63  1532.46  1555.90  1603.65
                             1636.13  1665.54  1689.52  1689.76  1707.51
                             1715.10  1748.17  1758.00  1784.27  1822.38
                             1830.44  1860.11  1892.70  1899.44  1944.27
                             1968.87  1996.91  2000.72  2009.85  2034.93
                             2058.82  2071.74  2078.31  2082.67  2115.02
                             2159.79  2172.46  2175.82  2180.21  2187.95
                             2188.39  2192.15  2204.46  2208.52  2213.85
                             2215.03  2252.79  2350.03  2397.97  4328.16
                             4349.25  4373.74  4384.56  4395.75  4397.23
                             4404.86  4412.78  4432.53  4437.81  4463.16
                             4477.92  4489.57  4495.42  4505.70  4515.84
                             4519.29  4545.43  4587.00  4603.58  4641.20
                             5329.77

 Zero-point correction=                           0.341727 (Hartree/Particle)
 Thermal correction to Energy=                    0.360415
 Thermal correction to Enthalpy=                  0.361359
 Thermal correction to Gibbs Free Energy=         0.294057
 Sum of electronic and zero-point Energies=           -772.120349
 Sum of electronic and thermal Energies=              -772.101661
 Sum of electronic and thermal Enthalpies=            -772.100717
 Sum of electronic and thermal Free Energies=         -772.168019

                     E (Thermal)             CV                S
                      KCal/Mol        Cal/Mol-Kelvin    Cal/Mol-Kelvin
 Total                  226.164             70.056            141.650
 Electronic               0.000              0.000              0.000
 Translational            0.889              2.981             42.305
 Rotational               0.889              2.981             33.292
 Vibrational            224.387             64.094             66.053
 Vibration     1          0.593              1.984              5.916
 Vibration     2          0.594              1.983              5.609
 Vibration     3          0.595              1.977              4.775
 Vibration     4          0.596              1.977              4.724
 Vibration     5          0.597              1.972              4.353
 Vibration     6          0.605              1.946              3.389
 Vibration     7          0.605              1.945              3.345
 Vibration     8          0.613              1.919              2.887
 Vibration     9          0.626              1.876              2.405
 Vibration    10          0.634              1.853              2.222
 Vibration    11          0.648              1.809              1.951
 Vibration    12          0.650              1.801              1.910
 Vibration    13          0.656              1.783              1.821
 Vibration    14          0.667              1.749              1.674
 Vibration    15          0.671              1.737              1.628
 Vibration    16          0.680              1.710              1.531
 Vibration    17          0.698              1.657              1.368
 Vibration    18          0.706              1.636              1.312
 Vibration    19          0.729              1.570              1.155
 Vibration    20          0.751              1.511              1.035
 Vibration    21          0.767              1.468              0.959
 Vibration    22          0.775              1.448              0.925
 Vibration    23          0.783              1.427              0.892
 Vibration    24          0.810              1.357              0.791
 Vibration    25          0.819              1.337              0.763
 Vibration    26          0.827              1.316              0.737
 Vibration    27          0.854              1.254              0.663
 Vibration    28          0.915              1.120              0.526
 Vibration    29          0.940              1.068              0.480

                           ! Non-Optimized Parameters !
 Normal termination of Gaussian 16 at Fri Dec 11 12:17:40 2020.

 ----------------------------------------------------------------------
 # B3LYP/6-311++G(d,p) empiricaldispersion=gd3bj scf=xqc pop=npa geom=c
 heck
 ----------------------------------------------------------------------

 --------------------------------------
 CID_82161168_JID_7412_Energie_neutraal
 --------------------------------------
 Structure from the checkpoint file:  "JID_7412.chk"
 Charge =  0 Multiplicity = 1

 SCF Done:  E(RB3LYP) =  -772.685379472     A.U. after   15 cycles
 Normal termination of Gaussian 16 at Fri Dec 11 12:25:04 2020.

 ----------------------------------------------------------------------
 # B3LYP/6-311++G(d,p) empiricaldispersion=gd3bj scf=xqc pop=npa geom=c
 heck
 ----------------------------------------------------------------------

 ------------------------------------
 CID_82161168_JID_7412_Energie_kation
 ------------------------------------
 Structure from the checkpoint file:  "JID_7412.chk"
 Charge =  1 Multiplicity = 2

 SCF Done:  E(UB3LYP) =  -772.401998423     A.U. after   24 cycles
 Normal termination of Gaussian 16 at Fri Dec 11 12:44:18 2020.
 Gaussian 16:  ES64L-G16RevA.03 25-Dec-2016

 ----------------------------------------------------------------------
 # B3LYP/6-311++G(d,p) empiricaldispersion=gd3bj scf=xqc pop=npa geom=c
 heck
 ----------------------------------------------------------------------

 -----------------------------------
 CID_82161168_JID_7412_Energie_anion
 -----------------------------------
 Structure from the checkpoint file:  "JID_7412.chk"
 Charge = -1 Multiplicity = 2

                         Standard orientation:
 ---------------------------------------------------------------------
 Center     Atomic      Atomic             Coordinates (Angstroms)
 Number     Number       Type             X           Y           Z
 ---------------------------------------------------------------------
      1          6           0       -4.612699    0.790911    0.889028
      2          6           0       -3.515735   -0.247487    1.138416
      3          6           0       -3.180911   -1.120525   -0.076667
      4          6           0       -2.591889   -0.338154   -1.276537
      5          6           0       -1.251833    0.282165   -0.965083
      6          6           0       -0.083896   -0.497025   -1.007658
      7          6           0        1.156601    0.026804   -0.657484
      8          6           0        1.261486    1.372759   -0.249182
      9          6           0        0.108578    2.161891   -0.221383
     10          6           0       -1.129558    1.615614   -0.570186
     11          8           0        2.509949    1.799644    0.091768
     12          6           0        2.652953    3.148163    0.501172
     13          8           0        2.296595   -0.729824   -0.744152
     14          6           0        2.443272   -1.770160    0.247298
     15          6           0        3.636368   -2.599748   -0.199408
     16          6           0        2.620933   -1.171105    1.639226
     17          8           0       -2.316027   -2.191244    0.300770
     18          1           0       -4.301735    1.549499    0.162493
     19          1           0       -4.874589    1.312521    1.815783
     20          1           0       -5.524998    0.318599    0.504345
     21          1           0       -2.599822    0.254556    1.479145
     22          1           0       -3.821872   -0.925281    1.943910
     23          1           0       -4.098819   -1.613662   -0.418901
     24          1           0       -2.492872   -1.044074   -2.108626
     25          1           0       -3.303615    0.433274   -1.591062
     26          1           0       -0.130614   -1.528216   -1.345856
     27          1           0        0.163020    3.201994    0.078043
     28          1           0       -2.011938    2.248918   -0.536929
     29          1           0        2.359524    3.844688   -0.295396
     30          1           0        2.060446    3.362516    1.400915
     31          1           0        3.712510    3.281602    0.725467
     32          1           0        1.536057   -2.393222    0.231607
     33          1           0        4.540936   -1.982444   -0.209555
     34          1           0        3.794801   -3.440886    0.483526
     35          1           0        3.474200   -2.990712   -1.208254
     36          1           0        1.748804   -0.572680    1.921758
     37          1           0        2.745547   -1.965858    2.383111
     38          1           0        3.501253   -0.521555    1.658750
     39          1           0       -1.482384   -1.782803    0.589330
 ---------------------------------------------------------------------

 SCF Done:  E(UB3LYP) =  -772.672509712     A.U. after   33 cycles
 SCF Done:  E(UB3LYP) =  -772.672509712     a.u. after    1 cycles

 The electronic state is 2-A.
 Alpha  occ. eigenvalues --  -19.06016 -19.04548 -19.03219 -10.14466 -10.14182
 Alpha  occ. eigenvalues --  -10.13599 -10.13310 -10.12438 -10.08925 -10.08345
 Alpha  occ. eigenvalues --  -10.08343 -10.08241 -10.08131 -10.08064 -10.07546
 Alpha  occ. eigenvalues --  -10.07249 -10.07187  -0.98214  -0.95932  -0.93598
 Alpha  occ. eigenvalues --   -0.76837  -0.71250  -0.70003  -0.67528  -0.64962
 Alpha  occ. eigenvalues --   -0.63425  -0.60949  -0.59641  -0.55635  -0.53929
 Alpha  occ. eigenvalues --   -0.51024  -0.49773  -0.48028  -0.44529  -0.42134
 Alpha  occ. eigenvalues --   -0.41158  -0.40237  -0.38596  -0.38005  -0.37322
 Alpha  occ. eigenvalues --   -0.36297  -0.35939  -0.35112  -0.34286  -0.33558
 Alpha  occ. eigenvalues --   -0.32655  -0.31218  -0.30834  -0.30546  -0.29892
 Alpha  occ. eigenvalues --   -0.29476  -0.28263  -0.27790  -0.27411  -0.26879
 Alpha  occ. eigenvalues --   -0.26445  -0.25453  -0.25080  -0.23591  -0.23004
 Alpha  occ. eigenvalues --   -0.22740  -0.19282  -0.18762  -0.15746  -0.12654
 Alpha  occ. eigenvalues --    0.04112
 Alpha virt. eigenvalues --    0.05748   0.06043   0.06953   0.07402   0.07660
 Alpha virt. eigenvalues --    0.08001   0.08452   0.09055   0.09153   0.09597
 Alpha virt. eigenvalues --    0.09832   0.10484   0.10604   0.10898   0.11627

  Beta  occ. eigenvalues --  -19.06006 -19.04546 -19.03215 -10.14462 -10.14180
  Beta  occ. eigenvalues --  -10.13600 -10.13305 -10.12385 -10.08923 -10.08337
  Beta  occ. eigenvalues --  -10.08335 -10.08224 -10.08114 -10.08052 -10.07535
  Beta  occ. eigenvalues --  -10.07232 -10.07154  -0.98197  -0.95924  -0.93589
  Beta  occ. eigenvalues --   -0.76822  -0.71234  -0.69984  -0.67503  -0.64934
  Beta  occ. eigenvalues --   -0.63386  -0.60920  -0.59590  -0.55586  -0.53902
  Beta  occ. eigenvalues --   -0.50981  -0.49738  -0.48005  -0.44495  -0.42104
  Beta  occ. eigenvalues --   -0.41139  -0.40217  -0.38572  -0.37978  -0.37294
  Beta  occ. eigenvalues --   -0.36271  -0.35914  -0.35083  -0.34257  -0.33523
  Beta  occ. eigenvalues --   -0.32618  -0.31195  -0.30817  -0.30512  -0.29868
  Beta  occ. eigenvalues --   -0.29454  -0.28238  -0.27768  -0.27384  -0.26856
  Beta  occ. eigenvalues --   -0.26411  -0.25429  -0.25052  -0.23560  -0.22986
  Beta  occ. eigenvalues --   -0.22715  -0.19273  -0.18752  -0.15728  -0.12637
  Beta virt. eigenvalues --    0.05919   0.06307   0.06971   0.07133   0.07612
  Beta virt. eigenvalues --    0.08055   0.08334   0.08667   0.09281   0.09388
  Beta virt. eigenvalues --    0.10001   0.10265   0.10667   0.10938   0.11180

 Mulliken charges and spin densities:
               1          2
     1  C    0.651472  -1.268719
     2  C   -0.800757   0.706263
     3  C    0.191447  -0.586059
     4  C    0.688154  -0.954392
     5  C    1.087467   0.004475
     6  C   -0.367695   0.398019
     7  C   -0.999725   0.526990
     8  C   -0.427670  -0.100121
     9  C    0.560908  -0.835133
    10  C   -0.135862  -0.268204
    11  O   -0.200091   0.067939
    12  C    1.071658  -1.379376
    13  O   -0.030350  -0.001480
    14  C   -0.490793   0.491359
    15  C   -0.028662  -0.441157
    16  C    0.006611  -0.540377
    17  O   -0.235407   0.012472
    18  H   -0.119516   0.265328
    19  H   -0.260819   0.402051
    20  H   -0.137676   0.269158
    21  H    0.207064  -0.066549
    22  H   -0.002577   0.182353
    23  H    0.070045   0.117496
    24  H    0.097864   0.075274
    25  H    0.005834   0.161000
    26  H    0.127289   0.089052
    27  H   -0.470021   0.705661
    28  H   -0.482425   0.622710
    29  H   -0.236651   0.383253
    30  H   -0.361233   0.528860
    31  H   -0.486003   0.664647
    32  H    0.149191  -0.046084
    33  H    0.080864   0.070993
    34  H    0.011363   0.123913
    35  H    0.016341   0.131483
    36  H    0.063728   0.094699
    37  H   -0.062645   0.195944
    38  H    0.069351   0.106907
    39  H    0.179929   0.089351
 Sum of Mulliken charges =  -1.00000   1.00000

 Dipole moment (field-independent basis, Debye):
    X=              0.4516    Y=             -6.3143    Z=             -2.0902  Tot=              6.6666
 Quadrupole moment (field-independent basis, Debye-Ang):
   XX=           -186.6795   YY=           -172.9170   ZZ=           -139.7269
   XY=             -6.2696   XZ=              1.4815   YZ=             -4.2250

 Summary of Natural Population Analysis:

                                       Natural Population
                Natural  -----------------------------------------------
    Atom  No    Charge         Core      Valence    Rydberg      Total
 -----------------------------------------------------------------------
      C    1   -0.28725      0.99966     2.28242    0.00516     3.28725
      C    2   -0.20705      0.99962     2.19804    0.00939     3.20705
      C    3    0.07092      0.99955     1.91607    0.01346     2.92908
      C    4   -0.20869      0.99958     2.19964    0.00947     3.20869
      C    5   -0.03297      0.99951     2.02216    0.01130     3.03297
      C    6   -0.12920      0.99947     2.12156    0.00818     3.12920
      C    7    0.13778      0.99934     1.84798    0.01489     2.86222
      C    8    0.14490      0.99934     1.84222    0.01354     2.85510
      C    9   -0.13268      0.99953     2.12379    0.00936     3.13268
      C   10   -0.09573      0.99951     2.08595    0.01026     3.09573
      O   11   -0.26708      0.99986     3.25712    0.01010     4.26708
      C   12   -0.10054      0.99960     2.09179    0.00915     3.10054
      O   13   -0.29302      0.99985     3.28285    0.01032     4.29302
      C   14    0.06515      0.99956     1.92203    0.01326     2.93485
      C   15   -0.28922      0.99964     2.28457    0.00502     3.28922
      C   16   -0.30099      0.99964     2.29508    0.00627     3.30099
      O   17   -0.37364      0.99990     3.36685    0.00688     4.37364
      H   18    0.09775      0.00000     0.40078    0.00147     0.40225
      H   19    0.10208      0.00000     0.39697    0.00095     0.39792
      H   20    0.09520      0.00000     0.40362    0.00118     0.40480
      H   21    0.09950      0.00000     0.39903    0.00147     0.40050
      H   22    0.10018      0.00000     0.39872    0.00110     0.39982
      H   23    0.08493      0.00000     0.41384    0.00123     0.41507
      H   24    0.10408      0.00000     0.39481    0.00111     0.39592
      H   25    0.10632      0.00000     0.39255    0.00113     0.39368
      H   26    0.10673      0.00000     0.39185    0.00141     0.39327
      H   27    0.11065      0.00000     0.38737    0.00198     0.38935
      H   28    0.10248      0.00000     0.39548    0.00204     0.39752
      H   29    0.08535      0.00000     0.41283    0.00181     0.41465
      H   30    0.08739      0.00000     0.41008    0.00253     0.41261
      H   31    0.09475      0.00000     0.40388    0.00137     0.40525
      H   32    0.07828      0.00000     0.41962    0.00211     0.42172
      H   33    0.10229      0.00000     0.39664    0.00107     0.39771
      H   34    0.09926      0.00000     0.39997    0.00078     0.40074
      H   35    0.10248      0.00000     0.39652    0.00099     0.39752
      H   36    0.10538      0.00000     0.39340    0.00122     0.39462
      H   37    0.09932      0.00000     0.39987    0.00081     0.40068
      H   38    0.10579      0.00000     0.39310    0.00111     0.39421
      H   39    0.22911      0.00000     0.26762    0.00327     0.27089
 =======================================================================
   * Total *    0.00000     16.99315    47.80869    0.19816    65.00000

 Normal termination of Gaussian 16 at Fri Dec 11 13:07:03 2020.
