 Gaussian 16, Revision A.03,

 -----------------------------------------------------------
 # opt freq B3LYP/6-31G(d) empiricaldispersion=gd3bj scf=xqc
 -----------------------------------------------------------

 -------------------------------
 CID_115728628_JID_4052_neutraal
 -------------------------------
 Symbolic Z-matrix:
 Charge =  0 Multiplicity = 1

 SCF Done:  E(RB3LYP) =  -602.325366437     A.U. after   13 cycles
 SCF Done:  E(RB3LYP) =  -602.330020111     A.U. after   12 cycles
 SCF Done:  E(RB3LYP) =  -602.330713474     A.U. after   12 cycles
 SCF Done:  E(RB3LYP) =  -602.331745116     A.U. after   11 cycles
 SCF Done:  E(RB3LYP) =  -602.332907081     A.U. after   11 cycles
 SCF Done:  E(RB3LYP) =  -602.333380301     A.U. after   11 cycles
 SCF Done:  E(RB3LYP) =  -602.333446128     A.U. after   11 cycles
 SCF Done:  E(RB3LYP) =  -602.333559899     A.U. after   11 cycles
 SCF Done:  E(RB3LYP) =  -602.333587968     A.U. after   10 cycles
 SCF Done:  E(RB3LYP) =  -602.333600307     A.U. after    9 cycles
 SCF Done:  E(RB3LYP) =  -602.333603999     A.U. after    9 cycles
 SCF Done:  E(RB3LYP) =  -602.333605487     A.U. after    9 cycles
 SCF Done:  E(RB3LYP) =  -602.333605931     A.U. after    7 cycles
 SCF Done:  E(RB3LYP) =  -602.333605998     A.U. after    6 cycles
 Optimization completed.
    -- Stationary point found.
 Normal termination of Gaussian 16 at Thu Dec 10 09:19:50 2020.

 --------------------------------------------------------------------
 #N Geom=AllCheck Guess=TCheck SCRF=Check GenChk RB3LYP/6-31G(d) Freq
 --------------------------------------------------------------------

 Structure from the checkpoint file:  "JID_4052.chk"
 -------------------------------
 CID_115728628_JID_4052_neutraal
 -------------------------------
 Charge =  0 Multiplicity = 1

 SCF Done:  E(RB3LYP) =  -602.333605998     A.U. after    1 cycles

  Exact polarizability: 146.148 -10.947 140.527  -2.404  -1.455 121.796
 Approx polarizability: 184.251 -18.470 196.348  -2.983  -3.623 181.938

                      1                      2                      3
                      A                      A                      A
 Frequencies --     32.6918                35.6629                45.7905
 Red. masses --      3.1071                 3.1556                 2.0267
 Frc consts  --      0.0020                 0.0024                 0.0025
 IR Inten    --      0.8411                 0.1808                 1.8991

                      4                      5                      6
                      A                      A                      A
 Frequencies --     66.0815                83.3299               104.8744
 Red. masses --      2.9117                 3.0416                 2.5721
 Frc consts  --      0.0075                 0.0124                 0.0167
 IR Inten    --      0.0414                 0.7764                 0.0345

                      7                      8                      9
                      A                      A                      A
 Frequencies --    108.9042               166.4088               186.9570
 Red. masses --      2.8015                 1.7063                 1.4682
 Frc consts  --      0.0196                 0.0278                 0.0302
 IR Inten    --      0.5944                 0.4586                 0.6733

                     10                     11                     12
                      A                      A                      A
 Frequencies --    206.0723               222.0532               237.9086
 Red. masses --      2.0822                 1.7408                 1.4138
 Frc consts  --      0.0521                 0.0506                 0.0471
 IR Inten    --      0.2717                 0.6939                 0.3760

                     13                     14                     15
                      A                      A                      A
 Frequencies --    246.1356               252.7549               274.0216
 Red. masses --      1.2243                 1.4714                 1.3016
 Frc consts  --      0.0437                 0.0554                 0.0576
 IR Inten    --      0.1688                 0.4931                 2.2736

                     16                     17                     18
                      A                      A                      A
 Frequencies --    304.5115               314.1595               344.7864
 Red. masses --      2.1063                 2.1176                 2.2788
 Frc consts  --      0.1151                 0.1231                 0.1596
 IR Inten    --      1.8290                 1.4942                 0.8653

                     19                     20                     21
                      A                      A                      A
 Frequencies --    361.1024               371.6743               393.6923
 Red. masses --      2.2798                 2.3550                 2.0912
 Frc consts  --      0.1752                 0.1917                 0.1910
 IR Inten    --      0.3785                 5.6186                 3.8023

                     22                     23                     24
                      A                      A                      A
 Frequencies --    407.0436               433.3310               442.6558
 Red. masses --      2.1678                 2.4970                 2.1373
 Frc consts  --      0.2116                 0.2763                 0.2467
 IR Inten    --      0.5011                14.0640                 1.7038

                     25                     26                     27
                      A                      A                      A
 Frequencies --    457.7585               495.6921               534.3983
 Red. masses --      2.2884                 2.9643                 1.7951
 Frc consts  --      0.2825                 0.4291                 0.3020
 IR Inten    --      6.9682                 0.7893                 2.8997

                     28                     29                     30
                      A                      A                      A
 Frequencies --    595.8184               651.2485               690.5383
 Red. masses --      2.4030                 2.0737                 1.8042
 Frc consts  --      0.5026                 0.5182                 0.5069
 IR Inten    --      5.0472                78.3876                 2.4661

                     31                     32                     33
                      A                      A                      A
 Frequencies --    741.0580               795.9198               856.4168
 Red. masses --      3.7551                 2.0467                 2.2560
 Frc consts  --      1.2150                 0.7639                 0.9749
 IR Inten    --     20.9519                 2.2339                 3.8853

                     34                     35                     36
                      A                      A                      A
 Frequencies --    880.4890               891.0381               923.9367
 Red. masses --      2.1975                 1.8274                 1.7301
 Frc consts  --      1.0038                 0.8548                 0.8701
 IR Inten    --     17.9659                 3.1996                 9.5042

                     37                     38                     39
                      A                      A                      A
 Frequencies --    930.1652               934.6344               935.0002
 Red. masses --      1.5722                 1.4692                 1.4895
 Frc consts  --      0.8014                 0.7561                 0.7672
 IR Inten    --      3.0801                21.6833                19.9559

                     40                     41                     42
                      A                      A                      A
 Frequencies --    964.3491               984.3143              1005.4576
 Red. masses --      1.5713                 1.3921                 1.4278
 Frc consts  --      0.8610                 0.7947                 0.8504
 IR Inten    --      1.3894                 7.1684                 5.7040

                     43                     44                     45
                      A                      A                      A
 Frequencies --   1030.5755              1037.1568              1053.9626
 Red. masses --      1.4435                 1.2039                 1.2794
 Frc consts  --      0.9033                 0.7630                 0.8374
 IR Inten    --      4.1471                 8.7748                 4.6749

                     46                     47                     48
                      A                      A                      A
 Frequencies --   1064.7806              1118.4343              1131.1643
 Red. masses --      3.1124                 3.1466                 2.3079
 Frc consts  --      2.0790                 2.3191                 1.7399
 IR Inten    --      4.3265                79.2810                38.1348

                     49                     50                     51
                      A                      A                      A
 Frequencies --   1152.6155              1168.1170              1180.0777
 Red. masses --      1.9741                 2.1983                 2.9428
 Frc consts  --      1.5452                 1.7673                 2.4146
 IR Inten    --     20.2926                22.7850                86.8620

                     52                     53                     54
                      A                      A                      A
 Frequencies --   1189.7639              1204.5137              1208.6674
 Red. masses --      1.2883                 2.0307                 2.0477
 Frc consts  --      1.0745                 1.7359                 1.7625
 IR Inten    --      1.1152                12.2438                10.8421

                     55                     56                     57
                      A                      A                      A
 Frequencies --   1223.4813              1232.6308              1271.9124
 Red. masses --      2.2367                 2.0470                 1.3678
 Frc consts  --      1.9727                 1.8325                 1.3038
 IR Inten    --      6.4217                55.2980                 5.8139

                     58                     59                     60
                      A                      A                      A
 Frequencies --   1287.9583              1308.9561              1330.2380
 Red. masses --      2.4800                 1.3755                 1.3427
 Frc consts  --      2.4239                 1.3885                 1.3999
 IR Inten    --      5.8708                 7.3383                 4.7296

                     61                     62                     63
                      A                      A                      A
 Frequencies --   1335.0464              1345.5826              1376.4848
 Red. masses --      1.2955                 1.3699                 1.3264
 Frc consts  --      1.3604                 1.4614                 1.4807
 IR Inten    --      0.3426                 0.9070                 4.6532

                     64                     65                     66
                      A                      A                      A
 Frequencies --   1394.6082              1403.7819              1415.7876
 Red. masses --      1.3081                 1.2973                 1.2572
 Frc consts  --      1.4990                 1.5062                 1.4847
 IR Inten    --      1.3347                 4.4208                 4.2866

                     67                     68                     69
                      A                      A                      A
 Frequencies --   1422.7117              1428.0693              1441.0572
 Red. masses --      1.2959                 1.2679                 1.2336
 Frc consts  --      1.5454                 1.5235                 1.5094
 IR Inten    --      4.8104                11.8386                12.6456

                     70                     71                     72
                      A                      A                      A
 Frequencies --   1442.4312              1472.7253              1497.2605
 Red. masses --      1.2456                 1.1729                 1.0835
 Frc consts  --      1.5269                 1.4989                 1.4311
 IR Inten    --      8.9012                 2.9097                 1.1784

                     73                     74                     75
                      A                      A                      A
 Frequencies --   1499.3906              1510.5629              1512.2689
 Red. masses --      1.1292                 1.0784                 1.1041
 Frc consts  --      1.4957                 1.4498                 1.4878
 IR Inten    --      1.3190                10.4194                 8.0654

                     76                     77                     78
                      A                      A                      A
 Frequencies --   1512.9141              1518.2193              1526.1687
 Red. masses --      1.1086                 1.0659                 1.1152
 Frc consts  --      1.4950                 1.4475                 1.5305
 IR Inten    --      6.6060                 3.9680                16.2139

                     79                     80                     81
                      A                      A                      A
 Frequencies --   1529.8084              1531.9442              1536.0439
 Red. masses --      1.0629                 1.0566                 1.0560
 Frc consts  --      1.4656                 1.4610                 1.4680
 IR Inten    --      2.8382                 4.3349                 0.7581

                     82                     83                     84
                      A                      A                      A
 Frequencies --   1537.0879              1540.8649              1548.0237
 Red. masses --      1.0822                 1.0555                 1.0660
 Frc consts  --      1.5065                 1.4765                 1.5051
 IR Inten    --      8.0625                 2.9357                 8.9289

                     85                     86                     87
                      A                      A                      A
 Frequencies --   1551.7773              1729.5986              3004.9043
 Red. masses --      1.0476                 4.4432                 1.0789
 Frc consts  --      1.4863                 7.8314                 5.7398
 IR Inten    --      3.7682                 6.1722                18.2590

                     88                     89                     90
                      A                      A                      A
 Frequencies --   3013.8556              3018.1166              3028.1538
 Red. masses --      1.0352                 1.0748                 1.0670
 Frc consts  --      5.5400                 5.7685                 5.7647
 IR Inten    --     59.5022                50.7903                43.3467

                     91                     92                     93
                      A                      A                      A
 Frequencies --   3033.6256              3044.7167              3052.0434
 Red. masses --      1.0495                 1.0380                 1.0441
 Frc consts  --      5.6904                 5.6692                 5.7305
 IR Inten    --     27.9528                25.2045                 2.3376

                     94                     95                     96
                      A                      A                      A
 Frequencies --   3060.3590              3064.9784              3084.7025
 Red. masses --      1.0367                 1.0949                 1.0834
 Frc consts  --      5.7205                 6.0599                 6.0739
 IR Inten    --     21.4367                73.4376                 6.6814

                     97                     98                     99
                      A                      A                      A
 Frequencies --   3102.3420              3105.5566              3111.5211
 Red. masses --      1.1010                 1.0953                 1.0907
 Frc consts  --      6.2435                 6.2236                 6.2216
 IR Inten    --     37.4134                 5.0698                19.7703

                    100                    101                    102
                      A                      A                      A
 Frequencies --   3112.3599              3118.7268              3124.2378
 Red. masses --      1.0930                 1.1014                 1.1004
 Frc consts  --      6.2380                 6.3120                 6.3281
 IR Inten    --     29.8684                 1.4880                58.2087

                    103                    104                    105
                      A                      A                      A
 Frequencies --   3126.0674              3128.7188              3130.8821
 Red. masses --      1.0972                 1.1025                 1.0994
 Frc consts  --      6.3172                 6.3585                 6.3495
 IR Inten    --     47.9830                16.1172                20.8849

                    106                    107                    108
                      A                      A                      A
 Frequencies --   3134.6839              3143.9345              3155.9637
 Red. masses --      1.1020                 1.0768                 1.0718
 Frc consts  --      6.3799                 6.2710                 6.2900
 IR Inten    --     46.1958                27.1965                 6.6715

                    109                    110                    111
                      A                      A                      A
 Frequencies --   3158.0313              3231.7590              3531.3478
 Red. masses --      1.0980                 1.1159                 1.0738
 Frc consts  --      6.4520                 6.8665                 7.8893
 IR Inten    --     19.3737                25.7964                 0.2306

 - Thermochemistry -
 -------------------
 Temperature   298.150 Kelvin.  Pressure   1.00000 Atm.
 Atom     1 has atomic number  6 and mass  12.00000

 Molecular mass:   199.19361 amu.
 Principal axes and moments of inertia in atomic units:
                           1         2         3
     Eigenvalues --  1874.598874451.509755144.54493
           X            0.99994  -0.01039  -0.00425
           Y            0.01042   0.99990   0.00926
           Z            0.00415  -0.00930   0.99995
 This molecule is an asymmetric top.
 Rotational symmetry number  1.
 Warning -- assumption of classical behavior for rotation
           may cause significant error
 Rotational temperatures (Kelvin)      0.04620     0.01946     0.01684
 Rotational constants (GHZ):           0.96273     0.40542     0.35081
 Zero-point vibrational energy     941985.4 (Joules/Mol)
                                  225.13990 (Kcal/Mol)
 Warning -- explicit consideration of  28 degrees of freedom as
           vibrations may cause significant error
 Vibrational temperatures:     47.04    51.31    65.88    95.08   119.89
          (Kelvin)            150.89   156.69   239.43   268.99   296.49
                              319.49   342.30   354.13   363.66   394.26
                              438.12   452.01   496.07   519.55   534.76
                              566.44   585.65   623.47   636.88   658.61
                              713.19   768.88   857.25   937.00   993.53
                             1066.22  1145.15  1232.19  1266.83  1282.01
                             1329.34  1338.30  1344.73  1345.26  1387.48
                             1416.21  1446.63  1482.77  1492.24  1516.42
                             1531.98  1609.18  1627.49  1658.36  1680.66
                             1697.87  1711.80  1733.03  1739.00  1760.32
                             1773.48  1830.00  1853.08  1883.30  1913.92
                             1920.83  1935.99  1980.45  2006.53  2019.73
                             2037.00  2046.96  2054.67  2073.36  2075.34
                             2118.92  2154.22  2157.29  2173.36  2175.82
                             2176.75  2184.38  2195.82  2201.05  2204.13
                             2210.02  2211.53  2216.96  2227.26  2232.66
                             2488.51  4323.39  4336.27  4342.40  4356.84
                             4364.71  4380.67  4391.21  4403.17  4409.82
                             4438.20  4463.58  4468.20  4476.78  4477.99
                             4487.15  4495.08  4497.71  4501.53  4504.64
                             4510.11  4523.42  4540.73  4543.70  4649.78
                             5080.82

 Zero-point correction=                           0.358783 (Hartree/Particle)
 Thermal correction to Energy=                    0.376710
 Thermal correction to Enthalpy=                  0.377654
 Thermal correction to Gibbs Free Energy=         0.312946
 Sum of electronic and zero-point Energies=           -601.974823
 Sum of electronic and thermal Energies=              -601.956896
 Sum of electronic and thermal Enthalpies=            -601.955952
 Sum of electronic and thermal Free Energies=         -602.020660

                     E (Thermal)             CV                S
                      KCal/Mol        Cal/Mol-Kelvin    Cal/Mol-Kelvin
 Total                  236.389             66.697            136.189
 Electronic               0.000              0.000              0.000
 Translational            0.889              2.981             41.772
 Rotational               0.889              2.981             32.129
 Vibrational            234.611             60.735             62.288
 Vibration     1          0.594              1.983              5.659
 Vibration     2          0.594              1.982              5.487
 Vibration     3          0.595              1.979              4.991
 Vibration     4          0.597              1.970              4.267
 Vibration     5          0.600              1.961              3.811
 Vibration     6          0.605              1.945              3.362
 Vibration     7          0.606              1.942              3.288
 Vibration     8          0.624              1.884              2.476
 Vibration     9          0.632              1.858              2.258
 Vibration    10          0.641              1.831              2.078
 Vibration    11          0.648              1.807              1.942
 Vibration    12          0.656              1.783              1.818
 Vibration    13          0.661              1.769              1.758
 Vibration    14          0.664              1.758              1.711
 Vibration    15          0.676              1.721              1.571
 Vibration    16          0.695              1.665              1.392
 Vibration    17          0.702              1.647              1.340
 Vibration    18          0.723              1.586              1.190
 Vibration    19          0.735              1.552              1.117
 Vibration    20          0.743              1.530              1.073
 Vibration    21          0.761              1.484              0.986
 Vibration    22          0.772              1.455              0.937
 Vibration    23          0.794              1.398              0.848
 Vibration    24          0.802              1.377              0.818
 Vibration    25          0.816              1.344              0.773
 Vibration    26          0.851              1.260              0.669
 Vibration    27          0.889              1.174              0.577
 Vibration    28          0.954              1.041              0.457

                           ! Non-Optimized Parameters !
 Normal termination of Gaussian 16 at Thu Dec 10 09:32:01 2020.

 ----------------------------------------------------------------------
 # B3LYP/6-311++G(d,p) empiricaldispersion=gd3bj scf=xqc pop=npa geom=c
 heck
 ----------------------------------------------------------------------

 ---------------------------------------
 CID_115728628_JID_4052_Energie_neutraal
 ---------------------------------------
 Structure from the checkpoint file:  "JID_4052.chk"
 Charge =  0 Multiplicity = 1

 SCF Done:  E(RB3LYP) =  -602.509657559     A.U. after   14 cycles
 Normal termination of Gaussian 16 at Thu Dec 10 09:38:26 2020.

 ----------------------------------------------------------------------
 # B3LYP/6-311++G(d,p) empiricaldispersion=gd3bj scf=xqc pop=npa geom=c
 heck
 ----------------------------------------------------------------------

 -------------------------------------
 CID_115728628_JID_4052_Energie_kation
 -------------------------------------
 Structure from the checkpoint file:  "JID_4052.chk"
 Charge =  1 Multiplicity = 2

 SCF Done:  E(UB3LYP) =  -602.228022745     A.U. after   21 cycles
 Normal termination of Gaussian 16 at Thu Dec 10 09:50:15 2020.
 Gaussian 16:  ES64L-G16RevA.03 25-Dec-2016

 ----------------------------------------------------------------------
 # B3LYP/6-311++G(d,p) empiricaldispersion=gd3bj scf=xqc pop=npa geom=c
 heck
 ----------------------------------------------------------------------

 ------------------------------------
 CID_115728628_JID_4052_Energie_anion
 ------------------------------------
 Structure from the checkpoint file:  "JID_4052.chk"
 Charge = -1 Multiplicity = 2

                         Standard orientation:
 ---------------------------------------------------------------------
 Center     Atomic      Atomic             Coordinates (Angstroms)
 Number     Number       Type             X           Y           Z
 ---------------------------------------------------------------------
      1          6           0        3.249212   -1.535846   -0.577426
      2          6           0        2.407173   -0.781495    0.463022
      3          6           0        2.892051    0.677892    0.631478
      4          6           0        2.806917    1.513230   -0.615846
      5          6           0        2.116644    2.649330   -0.728943
      6          6           0        0.889786   -0.837935    0.153338
      7          6           0        0.386785   -2.275403   -0.029118
      8          7           0        0.150115   -0.130230    1.210877
      9          6           0       -0.842433    0.859650    0.839686
     10          6           0       -2.207762    0.394733    0.273748
     11          6           0       -2.891808   -0.589215    1.230556
     12          6           0       -3.085014    1.634848    0.051375
     13          8           0       -1.883817   -0.223901   -0.984025
     14          6           0       -2.939475   -0.798966   -1.725057
     15          1           0        3.000456   -1.221068   -1.598366
     16          1           0        3.095577   -2.617349   -0.520116
     17          1           0        4.318498   -1.347601   -0.423949
     18          1           0        2.554128   -1.269717    1.438611
     19          1           0        2.305302    1.146650    1.426423
     20          1           0        3.940004    0.646479    0.966559
     21          1           0        3.363537    1.153314   -1.482075
     22          1           0        2.095760    3.221200   -1.653061
     23          1           0        1.551678    3.054525    0.108057
     24          1           0        0.714316   -0.294767   -0.780949
     25          1           0        0.553534   -2.864038    0.884349
     26          1           0       -0.681606   -2.264314   -0.252623
     27          1           0        0.896456   -2.790014   -0.849462
     28          1           0       -0.200100   -0.776646    1.911053
     29          1           0       -1.055036    1.473613    1.726234
     30          1           0       -0.388013    1.520933    0.094840
     31          1           0       -3.003241   -0.132888    2.220584
     32          1           0       -3.892624   -0.866853    0.885075
     33          1           0       -2.302324   -1.504726    1.337543
     34          1           0       -2.605042    2.313379   -0.661794
     35          1           0       -4.074348    1.371143   -0.336110
     36          1           0       -3.236069    2.172744    0.993475
     37          1           0       -3.413681   -1.640916   -1.201182
     38          1           0       -3.717796   -0.069330   -1.989286
     39          1           0       -2.492088   -1.175861   -2.648651
 ---------------------------------------------------------------------

 SCF Done:  E(UB3LYP) =  -602.494072659     A.U. after   33 cycles
 SCF Done:  E(UB3LYP) =  -602.494072660     a.u. after    1 cycles

 The electronic state is 2-A.
 Alpha  occ. eigenvalues --  -19.01838 -14.18926 -10.12515 -10.10645 -10.09190
 Alpha  occ. eigenvalues --  -10.08787 -10.08342 -10.07406 -10.07195 -10.06957
 Alpha  occ. eigenvalues --  -10.06474 -10.05857 -10.05764 -10.05206  -0.93101
 Alpha  occ. eigenvalues --   -0.80294  -0.72017  -0.69300  -0.66986  -0.62470
 Alpha  occ. eigenvalues --   -0.59550  -0.59058  -0.58642  -0.55582  -0.52460
 Alpha  occ. eigenvalues --   -0.48165  -0.45493  -0.44768  -0.39879  -0.38500
 Alpha  occ. eigenvalues --   -0.37752  -0.36949  -0.36168  -0.34746  -0.34499
 Alpha  occ. eigenvalues --   -0.33823  -0.32554  -0.31649  -0.30656  -0.30027
 Alpha  occ. eigenvalues --   -0.29560  -0.28712  -0.28257  -0.27989  -0.27303
 Alpha  occ. eigenvalues --   -0.26761  -0.25688  -0.25267  -0.24578  -0.23511
 Alpha  occ. eigenvalues --   -0.22915  -0.21701  -0.20593  -0.16839  -0.15863
 Alpha  occ. eigenvalues --   -0.11507   0.04407
 Alpha virt. eigenvalues --    0.06057   0.06997   0.07058   0.08096   0.08230
 Alpha virt. eigenvalues --    0.08553   0.09015   0.09316   0.09876   0.10635
 Alpha virt. eigenvalues --    0.10882   0.11090   0.11300   0.11689   0.12558

  Beta  occ. eigenvalues --  -19.01834 -14.18917 -10.12511 -10.10607 -10.09187
  Beta  occ. eigenvalues --  -10.08778 -10.08337 -10.07400 -10.07185 -10.06951
  Beta  occ. eigenvalues --  -10.06454 -10.05825 -10.05725 -10.05186  -0.93093
  Beta  occ. eigenvalues --   -0.80278  -0.72001  -0.69278  -0.66966  -0.62444
  Beta  occ. eigenvalues --   -0.59486  -0.59003  -0.58604  -0.55541  -0.52424
  Beta  occ. eigenvalues --   -0.48135  -0.45434  -0.44738  -0.39848  -0.38484
  Beta  occ. eigenvalues --   -0.37723  -0.36915  -0.36134  -0.34712  -0.34475
  Beta  occ. eigenvalues --   -0.33806  -0.32531  -0.31612  -0.30616  -0.29989
  Beta  occ. eigenvalues --   -0.29533  -0.28688  -0.28225  -0.27967  -0.27277
  Beta  occ. eigenvalues --   -0.26738  -0.25660  -0.25241  -0.24553  -0.23488
  Beta  occ. eigenvalues --   -0.22895  -0.21682  -0.20567  -0.16817  -0.15846
  Beta  occ. eigenvalues --   -0.11495
  Beta virt. eigenvalues --    0.06265   0.06986   0.07434   0.07510   0.08438
  Beta virt. eigenvalues --    0.08655   0.09033   0.09289   0.09652   0.10258
  Beta virt. eigenvalues --    0.10893   0.11250   0.11496   0.11666   0.12099

 Mulliken charges and spin densities:
               1          2
     1  C    0.208590  -1.005046
     2  C   -0.256975   1.018109
     3  C   -0.030314  -0.505468
     4  C   -0.448423   0.630990
     5  C   -0.159354  -0.397786
     6  C   -0.662271  -0.099630
     7  C    0.891162  -1.381841
     8  N    0.175224  -0.006029
     9  C   -0.867458   0.200961
    10  C   -1.482000   1.598155
    11  C    1.362647  -1.916523
    12  C    0.722331  -1.233195
    13  O   -0.006845   0.016804
    14  C    0.993938  -1.246380
    15  H    0.044271   0.118046
    16  H   -0.075034   0.214550
    17  H   -0.146886   0.291036
    18  H   -0.052922   0.237524
    19  H    0.080010   0.086940
    20  H    0.025430   0.138517
    21  H   -0.020600   0.179503
    22  H    0.017877   0.099707
    23  H   -0.024862   0.148003
    24  H    0.139724   0.032461
    25  H   -0.261462   0.411174
    26  H    0.278172  -0.125429
    27  H    0.040059   0.098859
    28  H    0.188590   0.038371
    29  H   -0.150123   0.324950
    30  H    0.483312  -0.311397
    31  H   -0.278806   0.450827
    32  H   -0.308889   0.472403
    33  H   -0.196499   0.336979
    34  H   -0.112374   0.269708
    35  H   -0.220405   0.371927
    36  H   -0.164902   0.308395
    37  H   -0.396633   0.542002
    38  H   -0.295363   0.425397
    39  H   -0.031937   0.166424
 Sum of Mulliken charges =  -1.00000   1.00000

 Dipole moment (field-independent basis, Debye):
    X=              4.9703    Y=              1.5511    Z=             -0.6369  Tot=              5.2455
 Quadrupole moment (field-independent basis, Debye-Ang):
   XX=           -176.8405   YY=           -137.6894   ZZ=           -129.8066
   XY=              0.9609   XZ=              0.2549   YZ=             -0.1601

 Summary of Natural Population Analysis:

                                       Natural Population
                Natural  -----------------------------------------------
    Atom  No    Charge         Core      Valence    Rydberg      Total
 -----------------------------------------------------------------------
      C    1   -0.29063      0.99965     2.28486    0.00611     3.29063
      C    2   -0.10560      0.99958     2.09523    0.01080     3.10560
      C    3   -0.21001      0.99959     2.20022    0.01020     3.21001
      C    4   -0.08074      0.99956     2.07170    0.00947     3.08074
      C    5   -0.19526      0.99956     2.18888    0.00681     3.19526
      C    6   -0.01278      0.99957     2.00037    0.01284     3.01278
      C    7   -0.29118      0.99964     2.28560    0.00594     3.29118
      N    8   -0.34708      0.99973     2.83555    0.01180     3.84708
      C    9   -0.08819      0.99954     2.07495    0.01369     3.08819
      C   10    0.12962      0.99952     1.85428    0.01658     2.87038
      C   11   -0.30665      0.99960     2.29953    0.00752     3.30665
      C   12   -0.30075      0.99961     2.29422    0.00692     3.30075
      O   13   -0.31396      0.99987     3.30300    0.01109     4.31396
      C   14   -0.09842      0.99959     2.08942    0.00941     3.09842
      H   15    0.09664      0.00000     0.40235    0.00100     0.40336
      H   16    0.10208      0.00000     0.39711    0.00081     0.39792
      H   17    0.09757      0.00000     0.40146    0.00097     0.40243
      H   18    0.09455      0.00000     0.40386    0.00159     0.40545
      H   19    0.11039      0.00000     0.38792    0.00169     0.38961
      H   20    0.09957      0.00000     0.39938    0.00105     0.40043
      H   21    0.09057      0.00000     0.40832    0.00111     0.40943
      H   22    0.09181      0.00000     0.40717    0.00102     0.40819
      H   23    0.09129      0.00000     0.40748    0.00123     0.40871
      H   24    0.09975      0.00000     0.39775    0.00250     0.40025
      H   25    0.09239      0.00000     0.40645    0.00116     0.40761
      H   26    0.10836      0.00000     0.39004    0.00160     0.39164
      H   27    0.09837      0.00000     0.40070    0.00093     0.40163
      H   28    0.17477      0.00000     0.32247    0.00276     0.32523
      H   29    0.09222      0.00000     0.40661    0.00117     0.40778
      H   30    0.09918      0.00000     0.39870    0.00212     0.40082
      H   31    0.10447      0.00000     0.39412    0.00141     0.39553
      H   32    0.10492      0.00000     0.39359    0.00149     0.39508
      H   33    0.10313      0.00000     0.39536    0.00151     0.39687
      H   34    0.10244      0.00000     0.39650    0.00106     0.39756
      H   35    0.10326      0.00000     0.39547    0.00127     0.39674
      H   36    0.10317      0.00000     0.39567    0.00116     0.39683
      H   37    0.08066      0.00000     0.41774    0.00160     0.41934
      H   38    0.08042      0.00000     0.41805    0.00153     0.41958
      H   39    0.08964      0.00000     0.40937    0.00098     0.41036
 =======================================================================
   * Total *   -0.00000     13.99461    41.83148    0.17391    56.00000

 Normal termination of Gaussian 16 at Thu Dec 10 10:09:15 2020.
