 Gaussian 16, Revision A.03,

 -----------------------------------------------------------
 # opt freq B3LYP/6-31G(d) empiricaldispersion=gd3bj scf=xqc
 -----------------------------------------------------------

 -------------------------------
 CID_143684703_JID_2242_neutraal
 -------------------------------
 Symbolic Z-matrix:
 Charge =  0 Multiplicity = 1

 SCF Done:  E(RB3LYP) =  -517.629682061     A.U. after   15 cycles
 SCF Done:  E(RB3LYP) =  -517.632356724     A.U. after   12 cycles
 SCF Done:  E(RB3LYP) =  -517.633169906     A.U. after   11 cycles
 SCF Done:  E(RB3LYP) =  -517.633727021     A.U. after   12 cycles
 SCF Done:  E(RB3LYP) =  -517.633970407     A.U. after   11 cycles
 SCF Done:  E(RB3LYP) =  -517.634090774     A.U. after   11 cycles
 SCF Done:  E(RB3LYP) =  -517.634106068     A.U. after    9 cycles
 SCF Done:  E(RB3LYP) =  -517.634114151     A.U. after    9 cycles
 SCF Done:  E(RB3LYP) =  -517.634119988     A.U. after    9 cycles
 SCF Done:  E(RB3LYP) =  -517.634129984     A.U. after    9 cycles
 SCF Done:  E(RB3LYP) =  -517.634137773     A.U. after    9 cycles
 SCF Done:  E(RB3LYP) =  -517.634143281     A.U. after    9 cycles
 SCF Done:  E(RB3LYP) =  -517.634144626     A.U. after    8 cycles
 SCF Done:  E(RB3LYP) =  -517.634144688     A.U. after    7 cycles
 Optimization completed.
    -- Stationary point found.
 Normal termination of Gaussian 16 at Wed Dec  9 16:55:40 2020.

 --------------------------------------------------------------------
 #N Geom=AllCheck Guess=TCheck SCRF=Check GenChk RB3LYP/6-31G(d) Freq
 --------------------------------------------------------------------

 Structure from the checkpoint file:  "JID_2242.chk"
 -------------------------------
 CID_143684703_JID_2242_neutraal
 -------------------------------
 Charge =  0 Multiplicity = 1

 SCF Done:  E(RB3LYP) =  -517.634144688     A.U. after    1 cycles

  Exact polarizability: 180.260  -3.225 105.907  -0.542   0.600  58.671
 Approx polarizability: 251.150   3.885 182.110  -3.347  -1.808  90.846

                      1                      2                      3
                      A                      A                      A
 Frequencies --     37.7728                77.5243               102.8094
 Red. masses --      3.9641                 2.8675                 1.1750
 Frc consts  --      0.0033                 0.0102                 0.0073
 IR Inten    --      3.1714                 0.1553                 0.4454

                      4                      5                      6
                      A                      A                      A
 Frequencies --    126.4962               180.2784               215.7041
 Red. masses --      3.7585                 2.4915                 2.2275
 Frc consts  --      0.0354                 0.0477                 0.0611
 IR Inten    --      1.5209                 0.2280                 1.1651

                      7                      8                      9
                      A                      A                      A
 Frequencies --    294.1788               306.6296               326.1694
 Red. masses --      3.7391                 4.0125                 4.2341
 Frc consts  --      0.1906                 0.2223                 0.2654
 IR Inten    --      1.8644                 0.4587                 1.3263

                     10                     11                     12
                      A                      A                      A
 Frequencies --    430.8244               464.0067               517.4763
 Red. masses --      2.9998                 4.0998                 2.9559
 Frc consts  --      0.3281                 0.5201                 0.4664
 IR Inten    --      1.6593                11.7143                 0.5472

                     13                     14                     15
                      A                      A                      A
 Frequencies --    539.4868               630.1639               633.6787
 Red. masses --      3.0405                 5.7226                 4.8337
 Frc consts  --      0.5214                 1.3389                 1.1436
 IR Inten    --      0.2665                 0.2145                 6.0896

                     16                     17                     18
                      A                      A                      A
 Frequencies --    699.0450               711.0614               739.6623
 Red. masses --      1.9486                 4.0006                 2.1021
 Frc consts  --      0.5610                 1.1918                 0.6776
 IR Inten    --     22.3432                 7.3854                18.2933

                     19                     20                     21
                      A                      A                      A
 Frequencies --    771.5067               805.9345               890.3091
 Red. masses --      1.7097                 1.3880                 3.7937
 Frc consts  --      0.5996                 0.5312                 1.7717
 IR Inten    --      3.6046                24.2857                16.7090

                     22                     23                     24
                      A                      A                      A
 Frequencies --    933.9705               940.2812               955.7666
 Red. masses --      3.9125                 1.4999                 3.8148
 Frc consts  --      2.0108                 0.7813                 2.0532
 IR Inten    --     26.3004                 5.1025                 4.9821

                     25                     26                     27
                      A                      A                      A
 Frequencies --    983.3687               999.7296              1017.0338
 Red. masses --      1.4297                 2.7444                 2.7293
 Frc consts  --      0.8146                 1.6161                 1.6633
 IR Inten    --      0.2754                 0.2969                 7.5362

                     28                     29                     30
                      A                      A                      A
 Frequencies --   1019.9910              1042.0882              1055.1483
 Red. masses --      2.6636                 2.3278                 1.9850
 Frc consts  --      1.6327                 1.4894                 1.3021
 IR Inten    --      0.6500                14.5308                 2.1041

                     31                     32                     33
                      A                      A                      A
 Frequencies --   1075.7054              1081.2018              1106.4404
 Red. masses --      2.5186                 1.5012                 1.8031
 Frc consts  --      1.7171                 1.0339                 1.3005
 IR Inten    --      0.7641                 3.7268                 2.1472

                     34                     35                     36
                      A                      A                      A
 Frequencies --   1187.6957              1201.8461              1209.1321
 Red. masses --      1.4139                 1.2508                 1.2954
 Frc consts  --      1.1751                 1.0645                 1.1159
 IR Inten    --      1.3951                 1.5021                 4.4414

                     37                     38                     39
                      A                      A                      A
 Frequencies --   1277.5866              1311.3547              1345.1714
 Red. masses --      1.3538                 3.0747                 1.3947
 Frc consts  --      1.3019                 3.1152                 1.4870
 IR Inten    --     16.1245                11.2761                 3.1379

                     40                     41                     42
                      A                      A                      A
 Frequencies --   1383.5448              1407.7226              1436.5391
 Red. masses --      1.5316                 1.8351                 1.8947
 Frc consts  --      1.7274                 2.1427                 2.3037
 IR Inten    --      3.0965                 8.0811                25.1402

                     43                     44                     45
                      A                      A                      A
 Frequencies --   1441.2217              1458.7595              1498.9100
 Red. masses --      1.2910                 3.2648                 1.1455
 Frc consts  --      1.5800                 4.0933                 1.5164
 IR Inten    --      2.1572                70.5915                 1.7685

                     46                     47                     48
                      A                      A                      A
 Frequencies --   1503.9415              1509.0274              1511.5688
 Red. masses --      1.0424                 2.2994                 1.1267
 Frc consts  --      1.3892                 3.0851                 1.5168
 IR Inten    --      7.0409                 5.2288                 0.8509

                     49                     50                     51
                      A                      A                      A
 Frequencies --   1523.7323              1641.8417              1662.7733
 Red. masses --      1.5754                 7.1087                 6.9963
 Frc consts  --      2.1551                11.2902                11.3968
 IR Inten    --     12.8431                60.5398                39.6988

                     52                     53                     54
                      A                      A                      A
 Frequencies --   1718.8084              2987.3288              3000.5546
 Red. masses --      5.6821                 1.0739                 1.0698
 Frc consts  --      9.8903                 5.6467                 5.6747
 IR Inten    --      0.3768                16.1537                49.8028

                     55                     56                     57
                      A                      A                      A
 Frequencies --   3058.5256              3083.2052              3091.2506
 Red. masses --      1.0371                 1.0895                 1.0896
 Frc consts  --      5.7161                 6.1024                 6.1348
 IR Inten    --     21.3134                32.2522                25.9396

                     58                     59                     60
                      A                      A                      A
 Frequencies --   3114.5208              3151.6828              3178.2739
 Red. masses --      1.1015                 1.1012                 1.0849
 Frc consts  --      6.2952                 6.4449                 6.4567
 IR Inten    --      9.6561                 9.0898                 4.2641

                     61                     62                     63
                      A                      A                      A
 Frequencies --   3197.9483              3212.0716              3291.9463
 Red. masses --      1.0957                 1.0929                 1.0978
 Frc consts  --      6.6022                 6.6435                 7.0095
 IR Inten    --     40.7111                 7.1188                 0.7047

 - Thermochemistry -
 -------------------
 Temperature   298.150 Kelvin.  Pressure   1.00000 Atm.
 Atom     1 has atomic number  6 and mass  12.00000

 Molecular mass:   161.08406 amu.
 Principal axes and moments of inertia in atomic units:
                           1         2         3
     Eigenvalues --   612.313073745.682484273.56217
           X            0.99996  -0.00827   0.00287
           Y            0.00825   0.99993   0.00814
           Z           -0.00293  -0.00812   0.99996
 This molecule is an asymmetric top.
 Rotational symmetry number  1.
 Warning -- assumption of classical behavior for rotation
           may cause significant error
 Rotational temperatures (Kelvin)      0.14145     0.02312     0.02027
 Rotational constants (GHZ):           2.94742     0.48182     0.42230
 Zero-point vibrational energy     498304.0 (Joules/Mol)
                                  119.09752 (Kcal/Mol)
 Warning -- explicit consideration of  13 degrees of freedom as
           vibrations may cause significant error
 Vibrational temperatures:     54.35   111.54   147.92   182.00   259.38
          (Kelvin)            310.35   423.26   441.17   469.29   619.86
                              667.60   744.53   776.20   906.67   911.72
                             1005.77  1023.06  1064.21  1110.03  1159.56
                             1280.96  1343.78  1352.85  1375.13  1414.85
                             1438.39  1463.28  1467.54  1499.33  1518.12
                             1547.70  1555.61  1591.92  1708.83  1729.19
                             1739.67  1838.16  1886.75  1935.40  1990.61
                             2025.40  2066.86  2073.60  2098.83  2156.60
                             2163.84  2171.15  2174.81  2192.31  2362.24
                             2392.36  2472.98  4298.10  4317.13  4400.54
                             4436.04  4447.62  4481.10  4534.57  4572.83
                             4601.13  4621.45  4736.38

 Zero-point correction=                           0.189794 (Hartree/Particle)
 Thermal correction to Energy=                    0.200372
 Thermal correction to Enthalpy=                  0.201316
 Thermal correction to Gibbs Free Energy=         0.152656
 Sum of electronic and zero-point Energies=           -517.444351
 Sum of electronic and thermal Energies=              -517.433773
 Sum of electronic and thermal Enthalpies=            -517.432829
 Sum of electronic and thermal Free Energies=         -517.481489

                     E (Thermal)             CV                S
                      KCal/Mol        Cal/Mol-Kelvin    Cal/Mol-Kelvin
 Total                  125.735             40.080            102.414
 Electronic               0.000              0.000              0.000
 Translational            0.889              2.981             41.139
 Rotational               0.889              2.981             30.662
 Vibrational            123.958             34.119             30.613
 Vibration     1          0.594              1.982              5.373
 Vibration     2          0.599              1.964              3.953
 Vibration     3          0.605              1.947              3.400
 Vibration     4          0.611              1.927              2.999
 Vibration     5          0.629              1.866              2.326
 Vibration     6          0.645              1.817              1.995
 Vibration     7          0.689              1.685              1.450
 Vibration     8          0.697              1.661              1.380
 Vibration     9          0.710              1.623              1.279
 Vibration    10          0.792              1.403              0.856
 Vibration    11          0.822              1.330              0.755
 Vibration    12          0.872              1.211              0.616
 Vibration    13          0.895              1.163              0.566

 Optimization completed.
    -- Stationary point found.
 Normal termination of Gaussian 16 at Wed Dec  9 17:00:57 2020.

 ----------------------------------------------------------------------
 # B3LYP/6-311++G(d,p) empiricaldispersion=gd3bj scf=xqc pop=npa geom=c
 heck
 ----------------------------------------------------------------------

 ---------------------------------------
 CID_143684703_JID_2242_Energie_neutraal
 ---------------------------------------
 Structure from the checkpoint file:  "JID_2242.chk"
 Charge =  0 Multiplicity = 1

 SCF Done:  E(RB3LYP) =  -517.769680545     A.U. after   16 cycles
 Normal termination of Gaussian 16 at Wed Dec  9 17:03:27 2020.

 ----------------------------------------------------------------------
 # B3LYP/6-311++G(d,p) empiricaldispersion=gd3bj scf=xqc pop=npa geom=c
 heck
 ----------------------------------------------------------------------

 -------------------------------------
 CID_143684703_JID_2242_Energie_kation
 -------------------------------------
 Structure from the checkpoint file:  "JID_2242.chk"
 Charge =  1 Multiplicity = 2

 SCF Done:  E(UB3LYP) =  -517.487983258     A.U. after   23 cycles
 Normal termination of Gaussian 16 at Wed Dec  9 17:08:24 2020.
 Gaussian 16:  ES64L-G16RevA.03 25-Dec-2016

 ----------------------------------------------------------------------
 # B3LYP/6-311++G(d,p) empiricaldispersion=gd3bj scf=xqc pop=npa geom=c
 heck
 ----------------------------------------------------------------------

 ------------------------------------
 CID_143684703_JID_2242_Energie_anion
 ------------------------------------
 Structure from the checkpoint file:  "JID_2242.chk"
 Charge = -1 Multiplicity = 2

                         Standard orientation:
 ---------------------------------------------------------------------
 Center     Atomic      Atomic             Coordinates (Angstroms)
 Number     Number       Type             X           Y           Z
 ---------------------------------------------------------------------
      1          6           0       -4.196751    0.714681   -0.097004
      2          6           0       -2.789026    0.236230   -0.030018
      3          6           0       -1.579535    0.842393   -0.178038
      4          6           0       -0.625002   -0.208944    0.008103
      5          7           0       -1.231963   -1.358020    0.260340
      6          8           0       -2.601321   -1.076234    0.232458
      7          6           0        0.833735   -0.113296   -0.066396
      8          6           0        1.622433   -1.209265   -0.135850
      9          6           0        3.071161   -1.093452   -0.246676
     10          6           0        3.690661    0.075179   -0.005827
     11          6           0        2.889040    1.279651    0.420452
     12          6           0        1.472284    1.259337   -0.171330
     13          1           0       -4.752965    0.187527   -0.880292
     14          1           0       -4.715607    0.539202    0.852131
     15          1           0       -4.220113    1.785317   -0.313847
     16          1           0       -1.391245    1.881003   -0.401446
     17          1           0        1.170004   -2.196238   -0.129121
     18          1           0        3.640478   -1.983793   -0.500818
     19          1           0        4.774275    0.152244   -0.046616
     20          1           0        3.395754    2.208959    0.137528
     21          1           0        2.827930    1.286329    1.521927
     22          1           0        0.857851    2.014797    0.329126
     23          1           0        1.513942    1.545585   -1.235105
 ---------------------------------------------------------------------

 SCF Done:  E(UB3LYP) =  -517.771421256     A.U. after   33 cycles
 SCF Done:  E(UB3LYP) =  -517.771421342     a.u. after    2 cycles

 The electronic state is 2-A.
 Alpha  occ. eigenvalues --  -19.04829 -14.18085 -10.09965 -10.07100 -10.04703
 Alpha  occ. eigenvalues --  -10.03434 -10.03417 -10.03160 -10.01197 -10.00780
 Alpha  occ. eigenvalues --  -10.00556  -9.99565  -0.98673  -0.72304  -0.68675
 Alpha  occ. eigenvalues --   -0.66863  -0.59813  -0.59247  -0.58956  -0.48314
 Alpha  occ. eigenvalues --   -0.47212  -0.44498  -0.40766  -0.37497  -0.34750
 Alpha  occ. eigenvalues --   -0.34068  -0.33638  -0.30851  -0.30077  -0.29277
 Alpha  occ. eigenvalues --   -0.29022  -0.27041  -0.25407  -0.24786  -0.23611
 Alpha  occ. eigenvalues --   -0.23456  -0.18692  -0.17853  -0.17636  -0.14682
 Alpha  occ. eigenvalues --   -0.14440  -0.11863  -0.06091   0.05193
 Alpha virt. eigenvalues --    0.06885   0.09056   0.09823   0.10696   0.10814
 Alpha virt. eigenvalues --    0.11423   0.12015   0.12748   0.13411   0.13687
 Alpha virt. eigenvalues --    0.14031   0.15471   0.16263   0.17777   0.17950

  Beta  occ. eigenvalues --  -19.04646 -14.17647 -10.09950 -10.07085 -10.04662
  Beta  occ. eigenvalues --  -10.03454 -10.03435 -10.03166 -10.01223 -10.00557
  Beta  occ. eigenvalues --  -10.00190  -9.99358  -0.98306  -0.71833  -0.68333
  Beta  occ. eigenvalues --   -0.66725  -0.59595  -0.58856  -0.58617  -0.48147
  Beta  occ. eigenvalues --   -0.46734  -0.44264  -0.40452  -0.37386  -0.34432
  Beta  occ. eigenvalues --   -0.33694  -0.33448  -0.30617  -0.29984  -0.29027
  Beta  occ. eigenvalues --   -0.28485  -0.26859  -0.25284  -0.24650  -0.23450
  Beta  occ. eigenvalues --   -0.23043  -0.18493  -0.17480  -0.16635  -0.14162
  Beta  occ. eigenvalues --   -0.13500  -0.10821  -0.04240
  Beta virt. eigenvalues --    0.07204   0.09013   0.09940   0.10623   0.10831
  Beta virt. eigenvalues --    0.10896   0.11476   0.11979   0.12739   0.13532
  Beta virt. eigenvalues --    0.13921   0.14458   0.15450   0.16249   0.17763

 Mulliken charges and spin densities:
               1          2
     1  C    0.328268  -0.773720
     2  C   -0.572872   0.403023
     3  C    0.233912   0.274922
     4  C   -0.427849  -0.392419
     5  N   -0.484024   0.235964
     6  O    0.215754   0.036054
     7  C    0.854674   0.080035
     8  C    0.305311   0.271026
     9  C   -0.714928   0.013318
    10  C    0.068595   0.265667
    11  C   -0.693226   0.022098
    12  C   -0.836416  -0.065534
    13  H   -0.060473   0.212348
    14  H    0.100948   0.046416
    15  H   -0.141927   0.287780
    16  H    0.086703   0.067408
    17  H    0.177399  -0.013960
    18  H    0.091561   0.001532
    19  H    0.119326  -0.021021
    20  H    0.099172   0.004236
    21  H    0.098634   0.014585
    22  H    0.046956   0.034144
    23  H    0.104502  -0.003901
 Sum of Mulliken charges =  -1.00000   1.00000

 Dipole moment (field-independent basis, Debye):
    X=             -0.7187    Y=              3.2045    Z=             -0.1573  Tot=              3.2879
 Quadrupole moment (field-independent basis, Debye-Ang):
   XX=           -117.1013   YY=            -88.2633   ZZ=            -83.2839
   XY=              0.1217   XZ=             -0.5477   YZ=              1.1957

 Summary of Natural Population Analysis:

                                       Natural Population
                Natural  -----------------------------------------------
    Atom  No    Charge         Core      Valence    Rydberg      Total
 -----------------------------------------------------------------------
      C    1   -0.30661      0.99963     2.30134    0.00564     3.30661
      C    2    0.15682      0.99951     1.82887    0.01480     2.84318
      C    3   -0.17962      0.99945     2.17154    0.00863     3.17962
      C    4    0.07013      0.99957     1.91609    0.01421     2.92987
      N    5   -0.02712      0.99968     2.51412    0.01333     3.52712
      O    6   -0.16597      0.99985     3.15684    0.00928     4.16597
      C    7    0.00333      0.99946     1.98668    0.01052     2.99667
      C    8   -0.06182      0.99949     2.05353    0.00880     3.06182
      C    9   -0.12863      0.99954     2.11888    0.01021     3.12863
      C   10   -0.02533      0.99956     2.01513    0.01064     3.02533
      C   11   -0.20274      0.99964     2.19601    0.00709     3.20274
      C   12   -0.18960      0.99962     2.18376    0.00622     3.18960
      H   13    0.10514      0.00000     0.39333    0.00152     0.39486
      H   14    0.10303      0.00000     0.39575    0.00122     0.39697
      H   15    0.10434      0.00000     0.39488    0.00077     0.39566
      H   16    0.10583      0.00000     0.39328    0.00090     0.39417
      H   17    0.09903      0.00000     0.39959    0.00138     0.40097
      H   18    0.08849      0.00000     0.41035    0.00116     0.41151
      H   19    0.08031      0.00000     0.41853    0.00116     0.41969
      H   20    0.09113      0.00000     0.40761    0.00126     0.40887
      H   21    0.09455      0.00000     0.40375    0.00170     0.40545
      H   22    0.09294      0.00000     0.40432    0.00274     0.40706
      H   23    0.09235      0.00000     0.40620    0.00145     0.40765
 =======================================================================
   * Total *   -0.00000     11.99499    30.87038    0.13463    43.00000

 Normal termination of Gaussian 16 at Wed Dec  9 17:21:47 2020.
