 Gaussian 16, Revision A.03,

 -----------------------------------------------------------
 # opt freq B3LYP/6-31G(d) empiricaldispersion=gd3bj scf=xqc
 -----------------------------------------------------------

 -------------------------------
 CID_150207916_JID_1052_neutraal
 -------------------------------
 Symbolic Z-matrix:
 Charge =  0 Multiplicity = 1

 SCF Done:  E(RB3LYP) =  -872.907141371     A.U. after   17 cycles
 SCF Done:  E(RB3LYP) =  -872.911970974     A.U. after   14 cycles
 SCF Done:  E(RB3LYP) =  -872.912767430     A.U. after   14 cycles
 SCF Done:  E(RB3LYP) =  -872.912974054     A.U. after   14 cycles
 SCF Done:  E(RB3LYP) =  -872.912912636     A.U. after   13 cycles
 SCF Done:  E(RB3LYP) =  -872.913449280     A.U. after   13 cycles
 SCF Done:  E(RB3LYP) =  -872.913587638     A.U. after   13 cycles
 SCF Done:  E(RB3LYP) =  -872.913766812     A.U. after   14 cycles
 SCF Done:  E(RB3LYP) =  -872.913925901     A.U. after   14 cycles
 SCF Done:  E(RB3LYP) =  -872.913839729     A.U. after   16 cycles
 SCF Done:  E(RB3LYP) =  -872.914082622     A.U. after   14 cycles
 SCF Done:  E(RB3LYP) =  -872.914073290     A.U. after   12 cycles
 SCF Done:  E(RB3LYP) =  -872.914082738     A.U. after   12 cycles
 SCF Done:  E(RB3LYP) =  -872.914082804     A.U. after    8 cycles
 SCF Done:  E(RB3LYP) =  -872.914082849     A.U. after    8 cycles
 Optimization completed.
    -- Stationary point found.
 Normal termination of Gaussian 16 at Tue Dec  8 19:16:30 2020.

 --------------------------------------------------------------------
 #N Geom=AllCheck Guess=TCheck SCRF=Check GenChk RB3LYP/6-31G(d) Freq
 --------------------------------------------------------------------

 Structure from the checkpoint file:  "JID_1052.chk"
 -------------------------------
 CID_150207916_JID_1052_neutraal
 -------------------------------
 Charge =  0 Multiplicity = 1

 SCF Done:  E(RB3LYP) =  -872.914082849     A.U. after    1 cycles

  Exact polarizability: 132.642   0.358  96.960   2.007   0.272  76.170
 Approx polarizability: 206.528  -5.005 141.810   4.674   2.619 119.325

                      1                      2                      3
                      A                      A                      A
 Frequencies --     27.5627                63.3442                75.8160
 Red. masses --      8.2075                 3.8215                 8.5290
 Frc consts  --      0.0037                 0.0090                 0.0289
 IR Inten    --      0.7622                 0.2769                 0.5796

                      4                      5                      6
                      A                      A                      A
 Frequencies --     88.4596               115.5675               144.9998
 Red. masses --      6.4604                 2.4054                 6.3395
 Frc consts  --      0.0298                 0.0189                 0.0785
 IR Inten    --      0.1919                 0.6223                 0.2620

                      7                      8                      9
                      A                      A                      A
 Frequencies --    189.2903               204.4501               230.1172
 Red. masses --      4.4113                 2.4944                 1.3681
 Frc consts  --      0.0931                 0.0614                 0.0427
 IR Inten    --      0.7196                 1.2847                 5.6517

                     10                     11                     12
                      A                      A                      A
 Frequencies --    242.2982               304.2923               338.4784
 Red. masses --      1.3706                 1.7757                 2.9471
 Frc consts  --      0.0474                 0.0969                 0.1989
 IR Inten    --      4.3791                 2.0614                 9.8841

                     13                     14                     15
                      A                      A                      A
 Frequencies --    381.1400               435.3377               511.0570
 Red. masses --      3.8205                 2.4972                 9.8720
 Frc consts  --      0.3270                 0.2788                 1.5191
 IR Inten    --      4.5172                 1.6786                 0.4263

                     16                     17                     18
                      A                      A                      A
 Frequencies --    543.4219               586.4371               625.0428
 Red. masses --      4.9925                 8.8186                 3.9539
 Frc consts  --      0.8686                 1.7869                 0.9101
 IR Inten    --      9.3758                10.9078                17.6962

                     19                     20                     21
                      A                      A                      A
 Frequencies --    673.9459               716.4272               767.9306
 Red. masses --      5.1407                 1.8191                 1.2801
 Frc consts  --      1.3757                 0.5501                 0.4448
 IR Inten    --      0.1512                16.3407                 5.6932

                     22                     23                     24
                      A                      A                      A
 Frequencies --    828.6172               865.5317               890.6533
 Red. masses --      2.4256                 1.7111                 3.0553
 Frc consts  --      0.9812                 0.7552                 1.4280
 IR Inten    --     13.7829                 4.3613                 1.0348

                     25                     26                     27
                      A                      A                      A
 Frequencies --    917.1377               947.9271              1017.6139
 Red. masses --      2.9370                 1.6475                 1.8750
 Frc consts  --      1.4555                 0.8722                 1.1440
 IR Inten    --     11.0429                 5.4869                41.9692

                     28                     29                     30
                      A                      A                      A
 Frequencies --   1056.5855              1083.2960              1104.4082
 Red. masses --      1.5076                 2.1915                 2.6158
 Frc consts  --      0.9916                 1.5153                 1.8798
 IR Inten    --      6.0034                 2.0731               211.5066

                     31                     32                     33
                      A                      A                      A
 Frequencies --   1142.1984              1162.8940              1239.0118
 Red. masses --      1.9579                 1.7587                 1.1954
 Frc consts  --      1.5050                 1.4013                 1.0812
 IR Inten    --      3.9306                74.0846                 7.3418

                     34                     35                     36
                      A                      A                      A
 Frequencies --   1258.8456              1283.1483              1302.1679
 Red. masses --      1.4930                 6.2939                 1.3612
 Frc consts  --      1.3940                 6.1055                 1.3599
 IR Inten    --      4.8746               390.8623                58.9510

                     37                     38                     39
                      A                      A                      A
 Frequencies --   1330.0974              1349.8782              1363.3028
 Red. masses --      1.3378                 1.2461                 1.4972
 Frc consts  --      1.3944                 1.3378                 1.6395
 IR Inten    --     18.9254                34.7909                36.5646

                     40                     41                     42
                      A                      A                      A
 Frequencies --   1400.7034              1409.6105              1445.8154
 Red. masses --      1.3828                 1.4771                 1.2604
 Frc consts  --      1.5985                 1.7292                 1.5523
 IR Inten    --      3.4845                 2.9943                 6.3250

                     43                     44                     45
                      A                      A                      A
 Frequencies --   1488.6538              1519.3088              1524.4104
 Red. masses --      1.0860                 1.0748                 1.0562
 Frc consts  --      1.4179                 1.4618                 1.4461
 IR Inten    --     15.8279                 6.6171                 1.9484

                     46                     47                     48
                      A                      A                      A
 Frequencies --   1534.0626              1539.3967              1799.0110
 Red. masses --      1.0558                 1.0683                12.6436
 Frc consts  --      1.4640                 1.4916                24.1096
 IR Inten    --      8.8017                 6.3829               173.3255

                     49                     50                     51
                      A                      A                      A
 Frequencies --   2299.4494              2675.4307              3006.8566
 Red. masses --     13.9869                 1.0386                 1.0800
 Frc consts  --     43.5731                 4.3802                 5.7533
 IR Inten    --    522.1900                23.2821                10.1732

                     52                     53                     54
                      A                      A                      A
 Frequencies --   3039.1536              3047.1332              3063.5301
 Red. masses --      1.0630                 1.0364                 1.0780
 Frc consts  --      5.7847                 5.6694                 5.9607
 IR Inten    --     25.1690                25.6433                 6.6660

                     55                     56                     57
                      A                      A                      A
 Frequencies --   3074.7926              3108.7318              3111.7968
 Red. masses --      1.0828                 1.1004                 1.0666
 Frc consts  --      6.0315                 6.2654                 6.0852
 IR Inten    --     22.5431                16.7850                17.8674

                     58                     59                     60
                      A                      A                      A
 Frequencies --   3114.2352              3118.7707              3165.5262
 Red. masses --      1.0981                 1.1015                 1.1060
 Frc consts  --      6.2746                 6.3123                 6.5295
 IR Inten    --     55.5522                40.3678                 3.5251

 - Thermochemistry -
 -------------------
 Temperature   298.150 Kelvin.  Pressure   1.00000 Atm.
 Atom     1 has atomic number  6 and mass  12.00000

 Molecular mass:   173.06228 amu.
 Principal axes and moments of inertia in atomic units:
                           1         2         3
     Eigenvalues --  1533.102352991.474514069.69325
           X            0.99850  -0.05471   0.00186
           Y            0.05471   0.99850  -0.00063
           Z           -0.00182   0.00073   1.00000
 This molecule is an asymmetric top.
 Rotational symmetry number  1.
 Warning -- assumption of classical behavior for rotation
           may cause significant error
 Rotational temperatures (Kelvin)      0.05650     0.02895     0.02128
 Rotational constants (GHZ):           1.17718     0.60329     0.44346
 Zero-point vibrational energy     459934.9 (Joules/Mol)
                                  109.92708 (Kcal/Mol)
 Warning -- explicit consideration of  17 degrees of freedom as
           vibrations may cause significant error
 Vibrational temperatures:     39.66    91.14   109.08   127.27   166.28
          (Kelvin)            208.62   272.35   294.16   331.09   348.61
                              437.81   486.99   548.38   626.35   735.30
                              781.86   843.75   899.30   969.66  1030.78
                             1104.88  1192.20  1245.31  1281.45  1319.56
                             1363.86  1464.12  1520.19  1558.62  1589.00
                             1643.37  1673.15  1782.66  1811.20  1846.16
                             1873.53  1913.71  1942.17  1961.49  2015.30
                             2028.12  2080.21  2141.84  2185.95  2193.29
                             2207.17  2214.85  2588.38  3308.39  3849.35
                             4326.20  4372.66  4384.15  4407.74  4423.94
                             4472.77  4477.18  4480.69  4487.22  4554.49

 Zero-point correction=                           0.175180 (Hartree/Particle)
 Thermal correction to Energy=                    0.187741
 Thermal correction to Enthalpy=                  0.188685
 Thermal correction to Gibbs Free Energy=         0.134787
 Sum of electronic and zero-point Energies=           -872.738903
 Sum of electronic and thermal Energies=              -872.726342
 Sum of electronic and thermal Enthalpies=            -872.725398
 Sum of electronic and thermal Free Energies=         -872.779296

                     E (Thermal)             CV                S
                      KCal/Mol        Cal/Mol-Kelvin    Cal/Mol-Kelvin
 Total                  117.809             43.931            113.439
 Electronic               0.000              0.000              0.000
 Translational            0.889              2.981             41.353
 Rotational               0.889              2.981             31.301
 Vibrational            116.032             37.969             40.785
 Vibration     1          0.593              1.984              5.998
 Vibration     2          0.597              1.972              4.350
 Vibration     3          0.599              1.965              3.996
 Vibration     4          0.601              1.957              3.694
 Vibration     5          0.608              1.936              3.173
 Vibration     6          0.616              1.908              2.737
 Vibration     7          0.633              1.855              2.235
 Vibration     8          0.640              1.834              2.093
 Vibration     9          0.652              1.795              1.878
 Vibration    10          0.658              1.775              1.786
 Vibration    11          0.695              1.666              1.393
 Vibration    12          0.719              1.599              1.219
 Vibration    13          0.751              1.510              1.035
 Vibration    14          0.796              1.393              0.841
 Vibration    15          0.866              1.225              0.631
 Vibration    16          0.899              1.154              0.558
 Vibration    17          0.944              1.061              0.474

 Optimization completed.
    -- Stationary point found.
 Normal termination of Gaussian 16 at Tue Dec  8 19:20:41 2020.

 ----------------------------------------------------------------------
 # B3LYP/6-311++G(d,p) empiricaldispersion=gd3bj scf=xqc pop=npa geom=c
 heck
 ----------------------------------------------------------------------

 ---------------------------------------
 CID_150207916_JID_1052_Energie_neutraal
 ---------------------------------------
 Structure from the checkpoint file:  "JID_1052.chk"
 Charge =  0 Multiplicity = 1

 SCF Done:  E(RB3LYP) =  -873.080998572     A.U. after   16 cycles
 Normal termination of Gaussian 16 at Tue Dec  8 19:22:23 2020.

 ----------------------------------------------------------------------
 # B3LYP/6-311++G(d,p) empiricaldispersion=gd3bj scf=xqc pop=npa geom=c
 heck
 ----------------------------------------------------------------------

 -------------------------------------
 CID_150207916_JID_1052_Energie_kation
 -------------------------------------
 Structure from the checkpoint file:  "JID_1052.chk"
 Charge =  1 Multiplicity = 2

 SCF Done:  E(UB3LYP) =  -872.751732503     A.U. after   24 cycles
 Normal termination of Gaussian 16 at Tue Dec  8 19:25:50 2020.
 Gaussian 16:  ES64L-G16RevA.03 25-Dec-2016

 ----------------------------------------------------------------------
 # B3LYP/6-311++G(d,p) empiricaldispersion=gd3bj scf=xqc pop=npa geom=c
 heck
 ----------------------------------------------------------------------

 ------------------------------------
 CID_150207916_JID_1052_Energie_anion
 ------------------------------------
 Structure from the checkpoint file:  "JID_1052.chk"
 Charge = -1 Multiplicity = 2

                         Standard orientation:
 ---------------------------------------------------------------------
 Center     Atomic      Atomic             Coordinates (Angstroms)
 Number     Number       Type             X           Y           Z
 ---------------------------------------------------------------------
      1          6           0        2.638385   -2.322666    0.555389
      2          6           0        2.344348   -1.389379   -0.622667
      3          6           0        0.874399   -0.959179   -0.732748
      4          6           0        0.344927   -0.198280    0.498439
      5          6           0        1.145658    1.056666    0.866016
      6         16           0        1.269014    2.316968   -0.472260
      7          6           0       -1.130830    0.153742    0.384188
      8          8           0       -1.628788    1.199532    0.737152
      9          7           0       -1.898185   -0.934943   -0.148792
     10          7           0       -3.121991   -0.707238   -0.232414
     11          7           0       -4.242933   -0.597087   -0.348555
     12          1           0        2.483825   -1.826685    1.520691
     13          1           0        3.676627   -2.670303    0.531278
     14          1           0        1.988523   -3.205719    0.528881
     15          1           0        2.994439   -0.506291   -0.561457
     16          1           0        2.615852   -1.893828   -1.558350
     17          1           0        0.742874   -0.325971   -1.617497
     18          1           0        0.250739   -1.845521   -0.886559
     19          1           0        0.401773   -0.878390    1.363829
     20          1           0        0.654092    1.575034    1.690422
     21          1           0        2.151786    0.786645    1.192176
     22          1           0        2.305993    1.752723   -1.127846
 ---------------------------------------------------------------------

 SCF Done:  E(UB3LYP) =  -873.083501498     A.U. after   33 cycles
 SCF Done:  E(UB3LYP) =  -873.083501498     a.u. after    1 cycles

 The electronic state is 2-A.
 Alpha  occ. eigenvalues --  -88.73154 -18.95789 -14.33109 -14.24422 -14.22469
 Alpha  occ. eigenvalues --  -10.12654 -10.08776 -10.06837 -10.06237 -10.05350
 Alpha  occ. eigenvalues --  -10.05330  -7.81810  -5.78186  -5.77842  -5.77189
 Alpha  occ. eigenvalues --   -1.00722  -0.91207  -0.83291  -0.71491  -0.66614
 Alpha  occ. eigenvalues --   -0.62600  -0.56435  -0.54995  -0.49167  -0.45004
 Alpha  occ. eigenvalues --   -0.39541  -0.38433  -0.36980  -0.36392  -0.32942
 Alpha  occ. eigenvalues --   -0.32684  -0.32398  -0.31543  -0.29843  -0.28157
 Alpha  occ. eigenvalues --   -0.26800  -0.25738  -0.25561  -0.23252  -0.22749
 Alpha  occ. eigenvalues --   -0.22062  -0.20552  -0.19411  -0.14506  -0.13314
 Alpha  occ. eigenvalues --   -0.12362   0.04674
 Alpha virt. eigenvalues --    0.06567   0.08324   0.08789   0.09565   0.10187
 Alpha virt. eigenvalues --    0.10648   0.11959   0.12215   0.12639   0.13141
 Alpha virt. eigenvalues --    0.13409   0.15284   0.15763   0.15820   0.16710

  Beta  occ. eigenvalues --  -88.73149 -18.95466 -14.32740 -14.24021 -14.22635
  Beta  occ. eigenvalues --  -10.12302 -10.08745 -10.06869 -10.06222 -10.05325
  Beta  occ. eigenvalues --  -10.05284  -7.81806  -5.78173  -5.77840  -5.77187
  Beta  occ. eigenvalues --   -1.00110  -0.90622  -0.83044  -0.71405  -0.66570
  Beta  occ. eigenvalues --   -0.62393  -0.56294  -0.54623  -0.49015  -0.44884
  Beta  occ. eigenvalues --   -0.39349  -0.37204  -0.36574  -0.35931  -0.32644
  Beta  occ. eigenvalues --   -0.32261  -0.31997  -0.31224  -0.29679  -0.27874
  Beta  occ. eigenvalues --   -0.26624  -0.25627  -0.24407  -0.23157  -0.22610
  Beta  occ. eigenvalues --   -0.22020  -0.20197  -0.19320  -0.13667  -0.13110
  Beta  occ. eigenvalues --   -0.12184
  Beta virt. eigenvalues --    0.07160   0.08452   0.09109   0.09892   0.10500
  Beta virt. eigenvalues --    0.10703   0.11046   0.12135   0.12411   0.12860
  Beta virt. eigenvalues --    0.13228   0.13529   0.15371   0.15776   0.15990

 Mulliken charges and spin densities:
               1          2
     1  C    0.798503  -1.397203
     2  C   -0.796538   0.720445
     3  C   -0.410542  -0.453001
     4  C    0.652275   0.512153
     5  C   -0.153581  -0.602847
     6  S   -0.186581   0.049884
     7  C   -0.246468  -0.186411
     8  O   -0.357611   0.116209
     9  N    0.145487  -0.214556
    10  N    0.319323   0.188588
    11  N   -0.502138   0.295362
    12  H   -0.219963   0.365312
    13  H   -0.657787   0.807262
    14  H    0.063795   0.065528
    15  H    0.082538  -0.000892
    16  H   -0.082714   0.224757
    17  H    0.174058   0.028124
    18  H    0.134424   0.018167
    19  H    0.063708   0.174796
    20  H    0.194127   0.046978
    21  H   -0.015487   0.214667
    22  H    0.001170   0.026679
 Sum of Mulliken charges =  -1.00000   1.00000

 Dipole moment (field-independent basis, Debye):
    X=              1.2648    Y=              0.4712    Z=             -1.6271  Tot=              2.1141
 Quadrupole moment (field-independent basis, Debye-Ang):
   XX=           -137.1095   YY=           -106.9157   ZZ=            -88.5091
   XY=             12.6326   XZ=             -6.0113   YZ=              0.6619

 Summary of Natural Population Analysis:

                                       Natural Population
                Natural  -----------------------------------------------
    Atom  No    Charge         Core      Valence    Rydberg      Total
 -----------------------------------------------------------------------
      C    1   -0.28803      0.99967     2.28285    0.00551     3.28803
      C    2   -0.19197      0.99964     2.18319    0.00913     3.19197
      C    3   -0.19006      0.99961     2.18177    0.00868     3.19006
      C    4   -0.15996      0.99953     2.14871    0.01172     3.15996
      C    5   -0.24354      0.99956     2.23124    0.01273     3.24354
      S    6   -0.02311      4.99966     3.00842    0.01503     8.02311
      C    7    0.38175      0.99966     1.59313    0.02546     2.61825
      O    8   -0.28238      0.99987     3.27608    0.00643     4.28238
      N    9   -0.25479      0.99967     2.74263    0.01249     3.75479
      N   10    0.16608      0.99971     2.31736    0.01685     3.33392
      N   11    0.01709      0.99981     2.47067    0.01243     3.48291
      H   12    0.09770      0.00000     0.40108    0.00122     0.40230
      H   13    0.09999      0.00000     0.39804    0.00197     0.40001
      H   14    0.09497      0.00000     0.40406    0.00097     0.40503
      H   15    0.09021      0.00000     0.40851    0.00128     0.40979
      H   16    0.09356      0.00000     0.40553    0.00091     0.40644
      H   17    0.10192      0.00000     0.39690    0.00119     0.39808
      H   18    0.10707      0.00000     0.39155    0.00138     0.39293
      H   19    0.11531      0.00000     0.38308    0.00161     0.38469
      H   20    0.11580      0.00000     0.38305    0.00115     0.38420
      H   21    0.10338      0.00000     0.39538    0.00124     0.39662
      H   22    0.04904      0.00000     0.44801    0.00295     0.45096
 =======================================================================
   * Total *    0.00000     14.99641    30.85125    0.15235    46.00000

 Normal termination of Gaussian 16 at Tue Dec  8 19:30:59 2020.
