 Gaussian 16, Revision A.03,

 -----------------------------------------------------------
 # opt freq B3LYP/6-31G(d) empiricaldispersion=gd3bj scf=xqc
 -----------------------------------------------------------

 ------------------------------
 CID_79387644_JID_9823_neutraal
 ------------------------------
 Symbolic Z-matrix:
 Charge =  0 Multiplicity = 1

 SCF Done:  E(RB3LYP) =  -883.166937892     A.U. after   15 cycles
 SCF Done:  E(RB3LYP) =  -883.172538680     A.U. after   12 cycles
 SCF Done:  E(RB3LYP) =  -883.170843729     A.U. after   13 cycles
 SCF Done:  E(RB3LYP) =  -883.173110810     A.U. after   12 cycles
 SCF Done:  E(RB3LYP) =  -883.174176963     A.U. after   12 cycles
 SCF Done:  E(RB3LYP) =  -883.174456397     A.U. after   12 cycles
 SCF Done:  E(RB3LYP) =  -883.174567046     A.U. after   11 cycles
 SCF Done:  E(RB3LYP) =  -883.174675816     A.U. after   11 cycles
 SCF Done:  E(RB3LYP) =  -883.174762221     A.U. after   10 cycles
 SCF Done:  E(RB3LYP) =  -883.174835253     A.U. after   11 cycles
 SCF Done:  E(RB3LYP) =  -883.176953769     A.U. after   10 cycles
 SCF Done:  E(RB3LYP) =  -883.176954650     A.U. after    8 cycles
 SCF Done:  E(RB3LYP) =  -883.176955247     A.U. after    8 cycles
 SCF Done:  E(RB3LYP) =  -883.176955342     A.U. after    7 cycles
 SCF Done:  E(RB3LYP) =  -883.176955432     A.U. after    7 cycles
 Optimization completed.
    -- Stationary point found.
 Normal termination of Gaussian 16 at Sun Dec 13 21:09:25 2020.

 --------------------------------------------------------------------
 #N Geom=AllCheck Guess=TCheck SCRF=Check GenChk RB3LYP/6-31G(d) Freq
 --------------------------------------------------------------------

 Structure from the checkpoint file:  "JID_9823.chk"
 ------------------------------
 CID_79387644_JID_9823_neutraal
 ------------------------------
 Charge =  0 Multiplicity = 1

 SCF Done:  E(RB3LYP) =  -883.176955432     A.U. after    1 cycles

  Exact polarizability: 171.163  -2.748 166.824   7.444   8.864 157.384
 Approx polarizability: 238.506 -14.358 237.444  19.268  18.339 244.408

                      1                      2                      3
                      A                      A                      A
 Frequencies --     35.6763                37.5308                47.8888
 Red. masses --      3.7047                 3.2911                 4.1278
 Frc consts  --      0.0028                 0.0027                 0.0056
 IR Inten    --      0.0323                 0.4465                 0.2424

                      4                      5                      6
                      A                      A                      A
 Frequencies --     62.1459                65.7010                75.3464
 Red. masses --      3.0277                 3.0455                 5.0196
 Frc consts  --      0.0069                 0.0077                 0.0168
 IR Inten    --      0.1129                 0.3119                 1.1195

                      7                      8                      9
                      A                      A                      A
 Frequencies --    102.6860               111.3955               134.0988
 Red. masses --      3.1939                 3.9255                 3.0378
 Frc consts  --      0.0198                 0.0287                 0.0322
 IR Inten    --      1.5016                 0.6183                 0.7128

                     10                     11                     12
                      A                      A                      A
 Frequencies --    143.1090               157.1676               185.4701
 Red. masses --      1.4647                 2.1911                 2.7903
 Frc consts  --      0.0177                 0.0319                 0.0566
 IR Inten    --      1.7334                 2.5487                 4.5123

                     13                     14                     15
                      A                      A                      A
 Frequencies --    217.7067               227.5676               233.5721
 Red. masses --      1.7027                 1.3483                 1.3373
 Frc consts  --      0.0475                 0.0411                 0.0430
 IR Inten    --      1.4833                 1.1578                 0.5202

                     16                     17                     18
                      A                      A                      A
 Frequencies --    237.2506               241.2302               256.1652
 Red. masses --      1.5777                 1.3508                 1.3130
 Frc consts  --      0.0523                 0.0463                 0.0508
 IR Inten    --      0.7854                 0.0716                 0.6457

                     19                     20                     21
                      A                      A                      A
 Frequencies --    274.6646               281.9689               289.6939
 Red. masses --      2.4085                 1.1402                 2.3652
 Frc consts  --      0.1071                 0.0534                 0.1169
 IR Inten    --     22.4204                62.6594                 1.7866

                     22                     23                     24
                      A                      A                      A
 Frequencies --    296.8076               312.2053               347.2302
 Red. masses --      2.4875                 1.3242                 2.4775
 Frc consts  --      0.1291                 0.0761                 0.1760
 IR Inten    --      9.9029                 2.0916                 2.4276

                     25                     26                     27
                      A                      A                      A
 Frequencies --    356.9229               384.8232               398.4518
 Red. masses --      3.0760                 2.6068                 3.6738
 Frc consts  --      0.2309                 0.2275                 0.3436
 IR Inten    --      6.8034                 0.9989                 1.1375

                     28                     29                     30
                      A                      A                      A
 Frequencies --    406.6896               441.9700               459.0176
 Red. masses --      3.6689                 2.9764                 2.5573
 Frc consts  --      0.3575                 0.3426                 0.3175
 IR Inten    --      1.3587                 6.9485                 5.6950

                     31                     32                     33
                      A                      A                      A
 Frequencies --    470.2032               478.2708               555.2885
 Red. masses --      2.8970                 3.1094                 4.5484
 Frc consts  --      0.3774                 0.4191                 0.8263
 IR Inten    --      3.6563                 1.2048                 5.1104

                     34                     35                     36
                      A                      A                      A
 Frequencies --    562.6024               625.2934               669.2387
 Red. masses --      3.5219                 3.3499                 6.1296
 Frc consts  --      0.6568                 0.7717                 1.6175
 IR Inten    --     11.8697                 3.8540                 2.3974

                     37                     38                     39
                      A                      A                      A
 Frequencies --    705.2865               728.5816               762.7517
 Red. masses --      4.6611                 3.8263                 4.8728
 Frc consts  --      1.3661                 1.1967                 1.6703
 IR Inten    --     11.3232                 3.6852                 2.5373

                     40                     41                     42
                      A                      A                      A
 Frequencies --    770.6596               792.7536               808.7238
 Red. masses --      4.1493                 7.1690                 1.3993
 Frc consts  --      1.4519                 2.6545                 0.5392
 IR Inten    --     10.2997                13.1835                 6.1765

                     43                     44                     45
                      A                      A                      A
 Frequencies --    866.3825               889.4950               904.5902
 Red. masses --      2.5703                 2.7148                 2.0703
 Frc consts  --      1.1367                 1.2655                 0.9981
 IR Inten    --     13.3011                 0.0161                17.4716

                     46                     47                     48
                      A                      A                      A
 Frequencies --    921.8276               931.9316               945.8532
 Red. masses --      7.6822                 2.1030                 1.7091
 Frc consts  --      3.8462                 1.0761                 0.9009
 IR Inten    --      7.7244                 5.5472                 4.4113

                     49                     50                     51
                      A                      A                      A
 Frequencies --    951.3597               978.3081              1000.9747
 Red. masses --      1.2219                 1.5339                 1.6383
 Frc consts  --      0.6516                 0.8650                 0.9672
 IR Inten    --      0.8437                 0.2017                 9.0380

                     52                     53                     54
                      A                      A                      A
 Frequencies --   1014.6115              1035.1416              1043.7484
 Red. masses --      2.6517                 1.4124                 2.3466
 Frc consts  --      1.6083                 0.8917                 1.5062
 IR Inten    --      9.5640                 1.9775                 4.8103

                     55                     56                     57
                      A                      A                      A
 Frequencies --   1048.8357              1083.1079              1088.5376
 Red. masses --      2.4469                 1.5087                 1.8027
 Frc consts  --      1.5859                 1.0428                 1.2585
 IR Inten    --      9.6519                 4.4481                18.1559

                     58                     59                     60
                      A                      A                      A
 Frequencies --   1118.0642              1122.4233              1133.7532
 Red. masses --      2.1442                 1.7748                 2.3352
 Frc consts  --      1.5793                 1.3174                 1.7685
 IR Inten    --     17.4734                20.9990                 1.7551

                     61                     62                     63
                      A                      A                      A
 Frequencies --   1152.3232              1171.2861              1206.7502
 Red. masses --      2.0021                 1.5884                 1.9026
 Frc consts  --      1.5663                 1.2839                 1.6324
 IR Inten    --    160.6184                13.7590                 2.2241

                     64                     65                     66
                      A                      A                      A
 Frequencies --   1221.5174              1244.8954              1269.8206
 Red. masses --      3.0002                 3.3562                 2.7714
 Frc consts  --      2.6376                 3.0646                 2.6329
 IR Inten    --     23.6817                14.1805                18.2994

                     67                     68                     69
                      A                      A                      A
 Frequencies --   1302.3201              1328.0756              1361.6178
 Red. masses --      3.2905                 2.3849                 1.3238
 Frc consts  --      3.2881                 2.4783                 1.4461
 IR Inten    --     32.4639                46.2765                 2.6128

                     70                     71                     72
                      A                      A                      A
 Frequencies --   1366.0350              1377.0974              1387.6896
 Red. masses --      1.3827                 1.4807                 1.5919
 Frc consts  --      1.5202                 1.6544                 1.8061
 IR Inten    --     11.7310                 7.0628                 1.2003

                     73                     74                     75
                      A                      A                      A
 Frequencies --   1402.3420              1418.9636              1420.9866
 Red. masses --      1.4297                 1.3298                 1.4274
 Frc consts  --      1.6565                 1.5775                 1.6981
 IR Inten    --     52.3362                 3.6178                 5.9092

                     76                     77                     78
                      A                      A                      A
 Frequencies --   1425.3831              1428.2422              1434.0741
 Red. masses --      1.2244                 1.2921                 1.3046
 Frc consts  --      1.4656                 1.5529                 1.5807
 IR Inten    --      2.9871                 9.9091                25.3210

                     79                     80                     81
                      A                      A                      A
 Frequencies --   1446.4210              1449.0539              1452.5709
 Red. masses --      1.2648                 1.2503                 1.8828
 Frc consts  --      1.5591                 1.5468                 2.3406
 IR Inten    --      5.4154                 7.9990                53.6720

                     82                     83                     84
                      A                      A                      A
 Frequencies --   1480.6030              1494.9765              1502.1449
 Red. masses --      2.8343                 1.0936                 1.0716
 Frc consts  --      3.6607                 1.4400                 1.4246
 IR Inten    --    123.8135                 9.2730                 4.2126

                     85                     86                     87
                      A                      A                      A
 Frequencies --   1509.3331              1514.2616              1515.7557
 Red. masses --      1.3157                 1.0555                 1.1055
 Frc consts  --      1.7659                 1.4260                 1.4965
 IR Inten    --      6.5749                 2.9150                 6.5452

                     88                     89                     90
                      A                      A                      A
 Frequencies --   1516.9439              1518.4651              1521.6284
 Red. masses --      1.0438                 1.0568                 1.0510
 Frc consts  --      1.4152                 1.4356                 1.4337
 IR Inten    --      1.6088                 0.4939                 4.2458

                     91                     92                     93
                      A                      A                      A
 Frequencies --   1525.3275              1531.1124              1532.2992
 Red. masses --      1.1446                 1.0457                 1.0722
 Frc consts  --      1.5691                 1.4443                 1.4833
 IR Inten    --     26.5394                 3.4236                 1.7605

                     94                     95                     96
                      A                      A                      A
 Frequencies --   1538.9094              1540.5744              1544.1011
 Red. masses --      1.0618                 1.1038                 1.0866
 Frc consts  --      1.4815                 1.5434                 1.5263
 IR Inten    --      5.0722                18.0139                31.9498

                     97                     98                     99
                      A                      A                      A
 Frequencies --   1569.8881              1668.3539              1735.0684
 Red. masses --      3.3816                 8.1734                10.8424
 Frc consts  --      4.9104                13.4038                19.2313
 IR Inten    --      7.2980                69.5001               254.7468

                    100                    101                    102
                      A                      A                      A
 Frequencies --   3044.5045              3049.9296              3054.0796
 Red. masses --      1.0381                 1.0383                 1.0349
 Frc consts  --      5.6690                 5.6907                 5.6872
 IR Inten    --     11.8935                28.1294                18.2534

                    103                    104                    105
                      A                      A                      A
 Frequencies --   3054.3709              3057.4300              3065.2775
 Red. masses --      1.0370                 1.0352                 1.0842
 Frc consts  --      5.6998                 5.7013                 6.0022
 IR Inten    --     28.9518                22.5884                 8.4813

                    106                    107                    108
                      A                      A                      A
 Frequencies --   3070.2445              3080.3167              3089.2249
 Red. masses --      1.0347                 1.0631                 1.0683
 Frc consts  --      5.7468                 5.9430                 6.0067
 IR Inten    --     12.2030                16.2889                27.0529

                    109                    110                    111
                      A                      A                      A
 Frequencies --   3105.4236              3114.0073              3117.1332
 Red. masses --      1.0995                 1.1006                 1.0994
 Frc consts  --      6.2473                 6.2884                 6.2937
 IR Inten    --      4.8534                46.0342                37.2208

                    112                    113                    114
                      A                      A                      A
 Frequencies --   3121.0761              3126.8663              3129.4236
 Red. masses --      1.1027                 1.1028                 1.1027
 Frc consts  --      6.3290                 6.3528                 6.3626
 IR Inten    --     32.6961                27.5077                21.4971

                    115                    116                    117
                      A                      A                      A
 Frequencies --   3131.7660              3134.2106              3134.3682
 Red. masses --      1.1041                 1.1035                 1.1006
 Frc consts  --      6.3803                 6.3866                 6.3708
 IR Inten    --     12.9689                 8.9935                 6.8926

                    118                    119                    120
                      A                      A                      A
 Frequencies --   3138.4555              3151.7057              3154.6564
 Red. masses --      1.1023                 1.1003                 1.1023
 Frc consts  --      6.3968                 6.4397                 6.4631
 IR Inten    --     32.7269                16.2025                24.3021

                    121                    122                    123
                      A                      A                      A
 Frequencies --   3160.0060              3169.8588              3739.7093
 Red. masses --      1.1043                 1.0946                 1.0661
 Frc consts  --      6.4968                 6.4800                 8.7845
 IR Inten    --     10.0488                14.5155                11.7693

 - Thermochemistry -
 -------------------
 Temperature   298.150 Kelvin.  Pressure   1.00000 Atm.
 Atom     1 has atomic number  6 and mass  12.00000

 Molecular mass:   268.17869 amu.
 Principal axes and moments of inertia in atomic units:
                           1         2         3
     Eigenvalues --  4153.013035913.675426401.11133
           X            0.99907   0.04295   0.00332
           Y           -0.04302   0.99878   0.02411
           Z           -0.00229  -0.02423   0.99970
 This molecule is an asymmetric top.
 Rotational symmetry number  1.
 Warning -- assumption of classical behavior for rotation
           may cause significant error
 Rotational temperatures (Kelvin)      0.02086     0.01465     0.01353
 Rotational constants (GHZ):           0.43456     0.30518     0.28194
 Zero-point vibrational energy     981248.9 (Joules/Mol)
                                  234.52412 (Kcal/Mol)
 Warning -- explicit consideration of  34 degrees of freedom as
           vibrations may cause significant error
 Vibrational temperatures:     51.33    54.00    68.90    89.41    94.53
          (Kelvin)            108.41   147.74   160.27   192.94   205.90
                              226.13   266.85   313.23   327.42   336.06
                              341.35   347.08   368.56   395.18   405.69
                              416.80   427.04   449.19   499.59   513.53
                              553.67   573.28   585.14   635.90   660.42
                              676.52   688.12   798.94   809.46   899.66
                              962.89  1014.75  1048.27  1097.43  1108.81
                             1140.60  1163.57  1246.53  1279.78  1301.50
                             1326.30  1340.84  1360.87  1368.79  1407.57
                             1440.18  1459.80  1489.34  1501.72  1509.04
                             1558.35  1566.16  1608.65  1614.92  1631.22
                             1657.94  1685.22  1736.24  1757.49  1791.13
                             1826.99  1873.75  1910.80  1959.06  1965.42
                             1981.34  1996.58  2017.66  2041.57  2044.48
                             2050.81  2054.92  2063.31  2081.08  2084.87
                             2089.93  2130.26  2150.94  2161.25  2171.59
                             2178.68  2180.83  2182.54  2184.73  2189.28
                             2194.61  2202.93  2204.64  2214.15  2216.54
                             2221.62  2258.72  2400.39  2496.38  4380.36
                             4388.17  4394.14  4394.56  4398.96  4410.25
                             4417.40  4431.89  4444.71  4468.01  4480.36
                             4484.86  4490.53  4498.86  4502.54  4505.91
                             4509.43  4509.66  4515.54  4534.60  4538.85
                             4546.54  4560.72  5380.61

 Zero-point correction=                           0.373738 (Hartree/Particle)
 Thermal correction to Energy=                    0.395545
 Thermal correction to Enthalpy=                  0.396490
 Thermal correction to Gibbs Free Energy=         0.323297
 Sum of electronic and zero-point Energies=           -882.803217
 Sum of electronic and thermal Energies=              -882.781410
 Sum of electronic and thermal Enthalpies=            -882.780466
 Sum of electronic and thermal Free Energies=         -882.853659

                     E (Thermal)             CV                S
                      KCal/Mol        Cal/Mol-Kelvin    Cal/Mol-Kelvin
 Total                  248.208             80.620            154.047
 Electronic               0.000              0.000              0.000
 Translational            0.889              2.981             42.659
 Rotational               0.889              2.981             33.419
 Vibrational            246.431             74.658             77.970
 Vibration     1          0.594              1.982              5.486
 Vibration     2          0.594              1.982              5.385
 Vibration     3          0.595              1.978              4.903
 Vibration     4          0.597              1.972              4.388
 Vibration     5          0.597              1.971              4.278
 Vibration     6          0.599              1.965              4.009
 Vibration     7          0.605              1.947              3.403
 Vibration     8          0.607              1.940              3.244
 Vibration     9          0.613              1.919              2.886
 Vibration    10          0.616              1.910              2.762
 Vibration    11          0.621              1.895              2.584
 Vibration    12          0.632              1.860              2.273
 Vibration    13          0.646              1.814              1.978
 Vibration    14          0.651              1.799              1.898
 Vibration    15          0.654              1.790              1.851
 Vibration    16          0.656              1.784              1.823
 Vibration    17          0.658              1.777              1.794
 Vibration    18          0.666              1.752              1.688
 Vibration    19          0.677              1.720              1.567
 Vibration    20          0.681              1.707              1.522
 Vibration    21          0.686              1.693              1.476
 Vibration    22          0.690              1.680              1.435
 Vibration    23          0.701              1.650              1.351
 Vibration    24          0.725              1.581              1.179
 Vibration    25          0.732              1.561              1.135
 Vibration    26          0.754              1.503              1.020
 Vibration    27          0.765              1.473              0.968
 Vibration    28          0.771              1.456              0.938
 Vibration    29          0.802              1.379              0.820
 Vibration    30          0.817              1.341              0.769
 Vibration    31          0.827              1.316              0.737
 Vibration    32          0.835              1.298              0.715
 Vibration    33          0.911              1.128              0.533
 Vibration    34          0.918              1.112              0.519

 Optimization completed.
    -- Stationary point found.
 Normal termination of Gaussian 16 at Sun Dec 13 21:33:05 2020.

 ----------------------------------------------------------------------
 # B3LYP/6-311++G(d,p) empiricaldispersion=gd3bj scf=xqc pop=npa geom=c
 heck
 ----------------------------------------------------------------------

 --------------------------------------
 CID_79387644_JID_9823_Energie_neutraal
 --------------------------------------
 Structure from the checkpoint file:  "JID_9823.chk"
 Charge =  0 Multiplicity = 1

 SCF Done:  E(RB3LYP) =  -883.430452182     A.U. after   16 cycles
 Normal termination of Gaussian 16 at Sun Dec 13 21:43:18 2020.

 ----------------------------------------------------------------------
 # B3LYP/6-311++G(d,p) empiricaldispersion=gd3bj scf=xqc pop=npa geom=c
 heck
 ----------------------------------------------------------------------

 ------------------------------------
 CID_79387644_JID_9823_Energie_kation
 ------------------------------------
 Structure from the checkpoint file:  "JID_9823.chk"
 Charge =  1 Multiplicity = 2

 SCF Done:  E(UB3LYP) =  -883.123813840     A.U. after   29 cycles
 Normal termination of Gaussian 16 at Sun Dec 13 22:07:34 2020.
 Gaussian 16:  ES64L-G16RevA.03 25-Dec-2016

 ----------------------------------------------------------------------
 # B3LYP/6-311++G(d,p) empiricaldispersion=gd3bj scf=xqc pop=npa geom=c
 heck
 ----------------------------------------------------------------------

 -----------------------------------
 CID_79387644_JID_9823_Energie_anion
 -----------------------------------
 Structure from the checkpoint file:  "JID_9823.chk"
 Charge = -1 Multiplicity = 2

                         Standard orientation:
 ---------------------------------------------------------------------
 Center     Atomic      Atomic             Coordinates (Angstroms)
 Number     Number       Type             X           Y           Z
 ---------------------------------------------------------------------
      1          6           0       -1.333346    3.211666   -1.405482
      2          6           0       -2.019819    1.890236   -1.061533
      3          7           0       -1.090272    0.945304   -0.425882
      4          6           0       -1.347904    0.507756    0.939467
      5          6           0       -2.288507   -0.709069    1.080541
      6          6           0       -2.468060   -1.011991    2.573264
      7          6           0       -3.641244   -0.507663    0.392575
      8          8           0       -1.587396   -1.790305    0.449945
      9          6           0       -0.199079    0.308975   -1.262461
     10          8           0       -0.276690    0.416787   -2.485535
     11          6           0        0.916658   -0.460011   -0.654193
     12          6           0        1.876050   -0.059070    0.230598
     13          8           0        2.783731   -1.047811    0.384007
     14          7           0        2.420565   -2.145544   -0.425171
     15          6           0        1.325058   -1.777186   -1.044235
     16          6           0        0.633603   -2.681082   -2.009262
     17          6           0        2.131324    1.221948    0.963797
     18          6           0        2.262614    0.984702    2.478467
     19          6           0        3.379466    1.925926    0.398538
     20          1           0       -0.929565    3.688108   -0.504892
     21          1           0       -2.045025    3.902485   -1.871537
     22          1           0       -0.514752    3.036551   -2.107969
     23          1           0       -2.845800    2.060531   -0.367475
     24          1           0       -2.427779    1.433894   -1.967895
     25          1           0       -0.406530    0.235649    1.415147
     26          1           0       -1.766816    1.351706    1.496293
     27          1           0       -2.968556   -0.187373    3.093560
     28          1           0       -3.080371   -1.911466    2.708838
     29          1           0       -1.496620   -1.188948    3.045932
     30          1           0       -3.507015   -0.358241   -0.681400
     31          1           0       -4.270400   -1.395237    0.537210
     32          1           0       -4.184486    0.349026    0.806320
     33          1           0       -2.170108   -2.565643    0.464323
     34          1           0        1.175538   -3.624674   -2.105418
     35          1           0       -0.385800   -2.876947   -1.661474
     36          1           0        0.558643   -2.195266   -2.986661
     37          1           0        1.261356    1.862162    0.775811
     38          1           0        3.114523    0.331909    2.692261
     39          1           0        2.417443    1.935990    2.998592
     40          1           0        1.365274    0.511202    2.891551
     41          1           0        3.267304    2.122022   -0.672445
     42          1           0        3.540800    2.880711    0.910853
     43          1           0        4.268649    1.303333    0.540012
 ---------------------------------------------------------------------

 SCF Done:  E(UB3LYP) =  -883.426209561     A.U. after   33 cycles
 SCF Done:  E(UB3LYP) =  -883.426209561     a.u. after    1 cycles

 The electronic state is 2-A.
 Alpha  occ. eigenvalues --  -19.11276 -19.02747 -18.99810 -14.26426 -14.25011
 Alpha  occ. eigenvalues --  -10.18619 -10.15397 -10.14015 -10.12507 -10.11346
 Alpha  occ. eigenvalues --  -10.11193 -10.11041 -10.09199 -10.08589 -10.08228
 Alpha  occ. eigenvalues --  -10.08156 -10.07028 -10.06640 -10.06582  -1.04652
 Alpha  occ. eigenvalues --   -0.95007  -0.93349  -0.84392  -0.79091  -0.74334
 Alpha  occ. eigenvalues --   -0.69999  -0.69265  -0.66452  -0.63505  -0.61077
 Alpha  occ. eigenvalues --   -0.60779  -0.60005  -0.56931  -0.54635  -0.51616
 Alpha  occ. eigenvalues --   -0.49990  -0.46838  -0.44963  -0.42761  -0.41367
 Alpha  occ. eigenvalues --   -0.39163  -0.38874  -0.38526  -0.37754  -0.36932
 Alpha  occ. eigenvalues --   -0.35551  -0.34742  -0.33613  -0.33560  -0.33139
 Alpha  occ. eigenvalues --   -0.32368  -0.32137  -0.31283  -0.30902  -0.30767
 Alpha  occ. eigenvalues --   -0.30658  -0.29789  -0.29319  -0.28502  -0.27843
 Alpha  occ. eigenvalues --   -0.27274  -0.27131  -0.26831  -0.26480  -0.26239
 Alpha  occ. eigenvalues --   -0.25731  -0.24327  -0.21767  -0.19758  -0.18617
 Alpha  occ. eigenvalues --   -0.17882  -0.15950  -0.15264   0.03596
 Alpha virt. eigenvalues --    0.05672   0.06502   0.06752   0.07484   0.08326
 Alpha virt. eigenvalues --    0.08464   0.08707   0.08804   0.09261   0.09938
 Alpha virt. eigenvalues --    0.10209   0.10706   0.11188   0.11472   0.11528

  Beta  occ. eigenvalues --  -19.11273 -19.02707 -18.99804 -14.26425 -14.25012
  Beta  occ. eigenvalues --  -10.18612 -10.15395 -10.14014 -10.12504 -10.11317
  Beta  occ. eigenvalues --  -10.11188 -10.11025 -10.09200 -10.08577 -10.08209
  Beta  occ. eigenvalues --  -10.08149 -10.07007 -10.06598 -10.06538  -1.04649
  Beta  occ. eigenvalues --   -0.94995  -0.93266  -0.84379  -0.79085  -0.74324
  Beta  occ. eigenvalues --   -0.69953  -0.69252  -0.66424  -0.63494  -0.61043
  Beta  occ. eigenvalues --   -0.60723  -0.59934  -0.56901  -0.54605  -0.51595
  Beta  occ. eigenvalues --   -0.49912  -0.46823  -0.44934  -0.42731  -0.41313
  Beta  occ. eigenvalues --   -0.39145  -0.38840  -0.38512  -0.37726  -0.36902
  Beta  occ. eigenvalues --   -0.35535  -0.34711  -0.33589  -0.33541  -0.33089
  Beta  occ. eigenvalues --   -0.32341  -0.32109  -0.31273  -0.30871  -0.30744
  Beta  occ. eigenvalues --   -0.30618  -0.29748  -0.29308  -0.28465  -0.27811
  Beta  occ. eigenvalues --   -0.27231  -0.27112  -0.26810  -0.26450  -0.26209
  Beta  occ. eigenvalues --   -0.25706  -0.24274  -0.21759  -0.19751  -0.18577
  Beta  occ. eigenvalues --   -0.17874  -0.15941  -0.15250
  Beta virt. eigenvalues --    0.05868   0.06495   0.06674   0.07354   0.07837
  Beta virt. eigenvalues --    0.08613   0.08800   0.08933   0.09065   0.09659
  Beta virt. eigenvalues --    0.10147   0.10522   0.10963   0.11392   0.11702

 Mulliken charges and spin densities:
               1          2
     1  C    0.426089  -0.898119
     2  C   -0.566599   0.479897
     3  N    0.377068   0.055256
     4  C    0.757050  -1.864395
     5  C   -2.284011   2.622345
     6  C    1.120226  -1.497998
     7  C    0.931882  -1.559455
     8  O   -0.103898  -0.004347
     9  C   -1.982082   0.586320
    10  O   -0.246610  -0.002276
    11  C    3.086403  -1.175538
    12  C   -0.440222  -1.050188
    13  O    0.251705   0.004989
    14  N   -0.349605  -0.005235
    15  C    0.071940   0.449209
    16  C    0.441036  -0.670981
    17  C   -1.652018   1.965815
    18  C   -0.163332  -0.506765
    19  C   -0.232181  -0.404291
    20  H   -0.181420   0.332347
    21  H   -0.066122   0.208637
    22  H    0.132633   0.053489
    23  H   -0.212992   0.350977
    24  H    0.081223   0.096356
    25  H    0.935742  -0.836899
    26  H   -0.661477   0.899306
    27  H   -0.288136   0.450527
    28  H   -0.304265   0.454579
    29  H   -0.041366   0.194640
    30  H    0.126576   0.053087
    31  H   -0.539227   0.692752
    32  H   -0.071158   0.249854
    33  H   -0.022905   0.288163
    34  H    0.142543   0.016741
    35  H    0.087813   0.088268
    36  H    0.178173   0.016177
    37  H    0.226447  -0.063660
    38  H    0.112997   0.052952
    39  H   -0.260606   0.439013
    40  H   -0.008239   0.151311
    41  H    0.143292  -0.000178
    42  H   -0.079742   0.243634
    43  H    0.127375   0.043683
 Sum of Mulliken charges =  -1.00000   1.00000

 Dipole moment (field-independent basis, Debye):
    X=              4.7438    Y=              0.0786    Z=             -3.0519  Tot=              5.6413
 Quadrupole moment (field-independent basis, Debye-Ang):
   XX=           -184.7428   YY=           -171.1998   ZZ=           -164.9238
   XY=              1.1843   XZ=             10.1895   YZ=             -1.6498

 Summary of Natural Population Analysis:

                                       Natural Population
                Natural  -----------------------------------------------
    Atom  No    Charge         Core      Valence    Rydberg      Total
 -----------------------------------------------------------------------
      C    1   -0.28923      0.99966     2.28446    0.00512     3.28923
      C    2   -0.08665      0.99961     2.07610    0.01094     3.08665
      N    3   -0.25626      0.99965     2.74346    0.01316     3.75626
      C    4   -0.08970      0.99953     2.07657    0.01361     3.08970
      C    5    0.12073      0.99955     1.86486    0.01486     2.87927
      C    6   -0.29573      0.99961     2.28918    0.00693     3.29573
      C    7   -0.29960      0.99961     2.29312    0.00687     3.29960
      O    8   -0.38052      0.99989     3.37327    0.00736     4.38052
      C    9    0.34827      0.99959     1.63030    0.02184     2.65173
      O   10   -0.32022      0.99988     3.31560    0.00473     4.32022
      C   11   -0.11670      0.99932     2.10646    0.01092     3.11670
      C   12    0.19540      0.99941     1.78925    0.01595     2.80460
      O   13   -0.17467      0.99985     3.16685    0.00797     4.17467
      N   14   -0.08931      0.99966     2.57768    0.01197     3.58931
      C   15    0.11063      0.99957     1.87585    0.01395     2.88937
      C   16   -0.30285      0.99962     2.29878    0.00445     3.30285
      C   17   -0.14133      0.99957     2.13230    0.00946     3.14133
      C   18   -0.28008      0.99965     2.27432    0.00611     3.28008
      C   19   -0.27882      0.99965     2.27330    0.00587     3.27882
      H   20    0.09831      0.00000     0.40037    0.00132     0.40169
      H   21    0.09811      0.00000     0.40118    0.00072     0.40189
      H   22    0.10482      0.00000     0.39430    0.00088     0.39518
      H   23    0.09937      0.00000     0.39924    0.00140     0.40063
      H   24    0.10288      0.00000     0.39594    0.00118     0.39712
      H   25    0.10523      0.00000     0.39162    0.00316     0.39477
      H   26    0.10652      0.00000     0.39089    0.00259     0.39348
      H   27    0.10524      0.00000     0.39302    0.00175     0.39476
      H   28    0.10317      0.00000     0.39527    0.00156     0.39683
      H   29    0.10250      0.00000     0.39624    0.00127     0.39750
      H   30    0.10389      0.00000     0.39444    0.00168     0.39611
      H   31    0.10283      0.00000     0.39560    0.00157     0.39717
      H   32    0.10518      0.00000     0.39319    0.00163     0.39482
      H   33    0.23326      0.00000     0.26253    0.00421     0.26674
      H   34    0.10539      0.00000     0.39343    0.00118     0.39461
      H   35    0.11609      0.00000     0.38269    0.00122     0.38391
      H   36    0.11441      0.00000     0.38449    0.00110     0.38559
      H   37    0.11024      0.00000     0.38714    0.00262     0.38976
      H   38    0.10120      0.00000     0.39773    0.00107     0.39880
      H   39    0.10120      0.00000     0.39793    0.00087     0.39880
      H   40    0.10331      0.00000     0.39573    0.00096     0.39669
      H   41    0.10274      0.00000     0.39657    0.00069     0.39726
      H   42    0.10026      0.00000     0.39902    0.00072     0.39974
      H   43    0.10052      0.00000     0.39858    0.00090     0.39948
 =======================================================================
   * Total *   -0.00000     18.99286    53.77883    0.22830    73.00000

 Normal termination of Gaussian 16 at Sun Dec 13 22:34:56 2020.
