 Gaussian 16, Revision A.03,

 -----------------------------------------------------------
 # opt freq B3LYP/6-31G(d) empiricaldispersion=gd3bj scf=xqc
 -----------------------------------------------------------

 ---------------------------
 CID_99134_JID_1497_neutraal
 ---------------------------
 Symbolic Z-matrix:
 Charge =  0 Multiplicity = 1

 SCF Done:  E(RB3LYP) =  -535.330384737     A.U. after   15 cycles
 SCF Done:  E(RB3LYP) =  -535.332498805     A.U. after   14 cycles
 SCF Done:  E(RB3LYP) =  -535.332855653     A.U. after   12 cycles
 SCF Done:  E(RB3LYP) =  -535.332971628     A.U. after   13 cycles
 SCF Done:  E(RB3LYP) =  -535.333215513     A.U. after   13 cycles
 SCF Done:  E(RB3LYP) =  -535.333372596     A.U. after   11 cycles
 SCF Done:  E(RB3LYP) =  -535.333432551     A.U. after   13 cycles
 SCF Done:  E(RB3LYP) =  -535.333484241     A.U. after   12 cycles
 SCF Done:  E(RB3LYP) =  -535.333486510     A.U. after    9 cycles
 SCF Done:  E(RB3LYP) =  -535.333487114     A.U. after    9 cycles
 Optimization completed.
    -- Stationary point found.
 Normal termination of Gaussian 16 at Tue Dec  8 20:08:23 2020.

 --------------------------------------------------------------------
 #N Geom=AllCheck Guess=TCheck SCRF=Check GenChk RB3LYP/6-31G(d) Freq
 --------------------------------------------------------------------

 Structure from the checkpoint file:  "JID_1497.chk"
 ---------------------------
 CID_99134_JID_1497_neutraal
 ---------------------------
 Charge =  0 Multiplicity = 1

 SCF Done:  E(RB3LYP) =  -535.333487114     A.U. after    1 cycles

  Exact polarizability: 115.662  20.141 107.250  -0.234  -0.481  46.710
 Approx polarizability: 174.743  79.514 223.840  -0.692  -0.058  71.325

                      1                      2                      3
                      A                      A                      A
 Frequencies --     64.4146               104.8065               130.8811
 Red. masses --      5.7211                 3.3690                 1.2160
 Frc consts  --      0.0140                 0.0218                 0.0123
 IR Inten    --      3.1408                11.3125                 0.0509

                      4                      5                      6
                      A                      A                      A
 Frequencies --    148.5245               180.2607               191.2797
 Red. masses --      2.6792                 5.1153                 3.3520
 Frc consts  --      0.0348                 0.0979                 0.0723
 IR Inten    --      3.4120                 0.2768                 1.8812

                      7                      8                      9
                      A                      A                      A
 Frequencies --    290.7178               319.6022               335.2367
 Red. masses --      3.3614                 2.7515                 2.1879
 Frc consts  --      0.1674                 0.1656                 0.1449
 IR Inten    --      0.4186                39.6644                53.0109

                     10                     11                     12
                      A                      A                      A
 Frequencies --    370.2210               398.3501               403.6459
 Red. masses --      2.0158                 3.0222                 8.0074
 Frc consts  --      0.1628                 0.2826                 0.7687
 IR Inten    --     56.4000                 0.3471                17.4947

                     13                     14                     15
                      A                      A                      A
 Frequencies --    476.7827               521.2329               616.6393
 Red. masses --     10.8430                 6.5616                 4.5098
 Frc consts  --      1.4522                 1.0503                 1.0104
 IR Inten    --      5.9216                10.8941                 1.9190

                     16                     17                     18
                      A                      A                      A
 Frequencies --    668.1717               698.6399               708.9278
 Red. masses --      3.2100                 5.8729                 5.0096
 Frc consts  --      0.8444                 1.6889                 1.4834
 IR Inten    --      6.8077                 4.9347                 2.3919

                     19                     20                     21
                      A                      A                      A
 Frequencies --    786.1758               852.9363               883.1883
 Red. masses --      5.8192                 2.8419                 1.2542
 Frc consts  --      2.1191                 1.2181                 0.5764
 IR Inten    --      0.3037                 6.6192                 0.9645

                     22                     23                     24
                      A                      A                      A
 Frequencies --    938.6608               995.9632              1031.0479
 Red. masses --      1.5717                 1.5446                 1.6493
 Frc consts  --      0.8159                 0.9027                 1.0330
 IR Inten    --     38.7909                25.7402                24.3932

                     25                     26                     27
                      A                      A                      A
 Frequencies --   1056.1982              1072.7156              1119.6425
 Red. masses --      6.8441                 1.5220                 4.4261
 Frc consts  --      4.4984                 1.0319                 3.2691
 IR Inten    --     36.1268                 2.8449                58.1207

                     28                     29                     30
                      A                      A                      A
 Frequencies --   1167.7113              1215.7201              1232.7445
 Red. masses --      2.7240                 1.1093                 1.4809
 Frc consts  --      2.1884                 0.9660                 1.3259
 IR Inten    --     30.0310                15.0664                14.1225

                     31                     32                     33
                      A                      A                      A
 Frequencies --   1266.5984              1352.5419              1381.5350
 Red. masses --      3.2263                 2.2043                 2.4792
 Frc consts  --      3.0495                 2.3759                 2.7880
 IR Inten    --     87.9943                32.2143                22.7212

                     34                     35                     36
                      A                      A                      A
 Frequencies --   1405.4628              1433.9883              1442.2773
 Red. masses --      1.2764                 1.5766                 1.3690
 Frc consts  --      1.4855                 1.9101                 1.6778
 IR Inten    --     18.6585                30.2281                12.6439

                     37                     38                     39
                      A                      A                      A
 Frequencies --   1497.6689              1503.4755              1506.2596
 Red. masses --      1.0446                 1.0896                 1.0686
 Frc consts  --      1.3805                 1.4511                 1.4284
 IR Inten    --      7.7119                 7.0100                 9.3480

                     40                     41                     42
                      A                      A                      A
 Frequencies --   1685.2753              1714.4920              1745.3323
 Red. masses --      7.6075                 9.4901                11.4240
 Frc consts  --     12.7301                16.4358                20.5034
 IR Inten    --     52.1410                 0.9464               303.2049

                     43                     44                     45
                      A                      A                      A
 Frequencies --   1750.9309              3033.2234              3060.6902
 Red. masses --      9.6691                 1.0680                 1.0359
 Frc consts  --     17.4652                 5.7893                 5.7175
 IR Inten    --     54.6353                19.2346                 7.6728

                     46                     47                     48
                      A                      A                      A
 Frequencies --   3092.9308              3116.1517              3149.4865
 Red. masses --      1.0944                 1.0994                 1.1040
 Frc consts  --      6.1683                 6.2897                 6.4521
 IR Inten    --     10.8255                 6.6902                11.7251

                     49                     50                     51
                      A                      A                      A
 Frequencies --   3200.2432              3218.7316              3739.6118
 Red. masses --      1.0920                 1.0911                 1.0663
 Frc consts  --      6.5891                 6.6599                 8.7855
 IR Inten    --      6.2179                 0.4263                17.0457

 - Thermochemistry -
 -------------------
 Temperature   298.150 Kelvin.  Pressure   1.00000 Atm.
 Atom     1 has atomic number  6 and mass  12.00000

 Molecular mass:   152.04734 amu.
 Principal axes and moments of inertia in atomic units:
                           1         2         3
     Eigenvalues --  1004.272962157.017493131.47077
           X            0.99956  -0.02967   0.00211
           Y            0.02968   0.99955  -0.00394
           Z           -0.00199   0.00400   0.99999
 This molecule is an asymmetric top.
 Rotational symmetry number  1.
 Warning -- assumption of classical behavior for rotation
           may cause significant error
 Rotational temperatures (Kelvin)      0.08625     0.04015     0.02766
 Rotational constants (GHZ):           1.79706     0.83668     0.57632
 Zero-point vibrational energy     384467.5 (Joules/Mol)
                                   91.88994 (Kcal/Mol)
 Warning -- explicit consideration of  15 degrees of freedom as
           vibrations may cause significant error
 Vibrational temperatures:     92.68   150.79   188.31   213.69   259.35
          (Kelvin)            275.21   418.28   459.84   482.33   532.67
                              573.14   580.76   685.98   749.94   887.21
                              961.35  1005.19  1019.99  1131.13  1227.19
                             1270.71  1350.52  1432.97  1483.45  1519.63
                             1543.40  1610.92  1680.08  1749.15  1773.64
                             1822.35  1946.01  1987.72  2022.15  2063.19
                             2075.12  2154.81  2163.17  2167.17  2424.74
                             2466.77  2511.14  2519.20  4364.13  4403.65
                             4450.04  4483.45  4531.41  4604.44  4631.04
                             5380.47

 Zero-point correction=                           0.146436 (Hartree/Particle)
 Thermal correction to Energy=                    0.156925
 Thermal correction to Enthalpy=                  0.157869
 Thermal correction to Gibbs Free Energy=         0.110284
 Sum of electronic and zero-point Energies=           -535.187051
 Sum of electronic and thermal Energies=              -535.176562
 Sum of electronic and thermal Enthalpies=            -535.175618
 Sum of electronic and thermal Free Energies=         -535.223203

                     E (Thermal)             CV                S
                      KCal/Mol        Cal/Mol-Kelvin    Cal/Mol-Kelvin
 Total                   98.472             38.345            100.151
 Electronic               0.000              0.000              0.000
 Translational            0.889              2.981             40.967
 Rotational               0.889              2.981             30.296
 Vibrational             96.694             32.384             28.888
 Vibration     1          0.597              1.971              4.317
 Vibration     2          0.605              1.945              3.363
 Vibration     3          0.612              1.922              2.933
 Vibration     4          0.618              1.904              2.691
 Vibration     5          0.629              1.866              2.326
 Vibration     6          0.634              1.852              2.215
 Vibration     7          0.687              1.691              1.470
 Vibration     8          0.706              1.636              1.312
 Vibration     9          0.716              1.605              1.235
 Vibration    10          0.742              1.533              1.079
 Vibration    11          0.765              1.474              0.969
 Vibration    12          0.769              1.462              0.949
 Vibration    13          0.833              1.302              0.719
 Vibration    14          0.876              1.203              0.607
 Vibration    15          0.976              0.997              0.422

 Optimization completed.
    -- Stationary point found.
 Normal termination of Gaussian 16 at Tue Dec  8 20:12:10 2020.

 ----------------------------------------------------------------------
 # B3LYP/6-311++G(d,p) empiricaldispersion=gd3bj scf=xqc pop=npa geom=c
 heck
 ----------------------------------------------------------------------

 -----------------------------------
 CID_99134_JID_1497_Energie_neutraal
 -----------------------------------
 Structure from the checkpoint file:  "JID_1497.chk"
 Charge =  0 Multiplicity = 1

 SCF Done:  E(RB3LYP) =  -535.495668424     A.U. after   17 cycles
 Normal termination of Gaussian 16 at Tue Dec  8 20:13:36 2020.

 ----------------------------------------------------------------------
 # B3LYP/6-311++G(d,p) empiricaldispersion=gd3bj scf=xqc pop=npa geom=c
 heck
 ----------------------------------------------------------------------

 ---------------------------------
 CID_99134_JID_1497_Energie_kation
 ---------------------------------
 Structure from the checkpoint file:  "JID_1497.chk"
 Charge =  1 Multiplicity = 2

 SCF Done:  E(UB3LYP) =  -535.146146915     A.U. after   32 cycles
 Normal termination of Gaussian 16 at Tue Dec  8 20:18:26 2020.
 Gaussian 16:  ES64L-G16RevA.03 25-Dec-2016

 ----------------------------------------------------------------------
 # B3LYP/6-311++G(d,p) empiricaldispersion=gd3bj scf=xqc pop=npa geom=c
 heck
 ----------------------------------------------------------------------

 --------------------------------
 CID_99134_JID_1497_Energie_anion
 --------------------------------
 Structure from the checkpoint file:  "JID_1497.chk"
 Charge = -1 Multiplicity = 2

                         Standard orientation:
 ---------------------------------------------------------------------
 Center     Atomic      Atomic             Coordinates (Angstroms)
 Number     Number       Type             X           Y           Z
 ---------------------------------------------------------------------
      1          6           0       -3.302789    0.282507    0.038730
      2          6           0       -1.805747    0.284383    0.012767
      3          6           0       -1.048134    1.397748    0.019730
      4          6           0        0.428035    1.356181   -0.002682
      5          8           0        1.096305    2.385994    0.009355
      6          6           0        1.093469    0.020204   -0.042437
      7          6           0        0.345512   -1.096368   -0.059517
      8          6           0       -1.131412   -1.054234   -0.024022
      9          8           0       -1.794202   -2.085742   -0.025022
     10          6           0        2.601558    0.013175   -0.072321
     11          8           0        3.165666   -1.281145    0.028520
     12          1           0       -3.670478   -0.272077    0.909181
     13          1           0       -3.699550    1.300356    0.067416
     14          1           0       -3.700658   -0.234029   -0.841848
     15          1           0       -1.484624    2.392744    0.045333
     16          1           0        0.798639   -2.081565   -0.108708
     17          1           0        2.942729    0.425595   -1.028533
     18          1           0        2.979470    0.696045    0.702158
     19          1           0        3.009366   -1.601495    0.930706
 ---------------------------------------------------------------------

 SCF Done:  E(UB3LYP) =  -535.564566067     A.U. after   20 cycles

 The electronic state is 2-A.
 Alpha  occ. eigenvalues --  -19.01037 -18.92770 -18.92655 -10.09125 -10.07535
 Alpha  occ. eigenvalues --  -10.07365 -10.03578 -10.02960 -10.02669 -10.01668
 Alpha  occ. eigenvalues --  -10.01608  -0.91178  -0.86873  -0.86649  -0.68104
 Alpha  occ. eigenvalues --   -0.64238  -0.57574  -0.55200  -0.49421  -0.44617
 Alpha  occ. eigenvalues --   -0.41351  -0.38579  -0.34325  -0.32403  -0.30910
 Alpha  occ. eigenvalues --   -0.30025  -0.29252  -0.28805  -0.26303  -0.25511
 Alpha  occ. eigenvalues --   -0.25113  -0.23418  -0.23057  -0.22333  -0.21163
 Alpha  occ. eigenvalues --   -0.16861  -0.13456  -0.11403  -0.09450  -0.08417
 Alpha  occ. eigenvalues --    0.00077
 Alpha virt. eigenvalues --    0.09004   0.09572   0.11537   0.12070   0.12504
 Alpha virt. eigenvalues --    0.13236   0.13907   0.14726   0.15431   0.16674
 Alpha virt. eigenvalues --    0.17091   0.17145   0.18343   0.18786   0.19940

  Beta  occ. eigenvalues --  -19.01038 -18.92128 -18.92003 -10.09137 -10.07391
  Beta  occ. eigenvalues --  -10.07234 -10.03590 -10.02813 -10.02537 -10.01580
  Beta  occ. eigenvalues --  -10.01499  -0.91178  -0.85774  -0.85523  -0.67576
  Beta  occ. eigenvalues --   -0.63987  -0.57416  -0.54831  -0.48638  -0.44232
  Beta  occ. eigenvalues --   -0.41011  -0.38427  -0.34116  -0.32133  -0.30614
  Beta  occ. eigenvalues --   -0.29676  -0.28804  -0.28670  -0.26119  -0.24859
  Beta  occ. eigenvalues --   -0.23972  -0.22908  -0.22055  -0.21017  -0.20046
  Beta  occ. eigenvalues --   -0.16766  -0.10679  -0.10497  -0.08848  -0.07831
  Beta virt. eigenvalues --    0.07093   0.09004   0.09561   0.11559   0.12143
  Beta virt. eigenvalues --    0.12658   0.13363   0.13946   0.15397   0.15883
  Beta virt. eigenvalues --    0.16798   0.17145   0.18325   0.18744   0.18892

 Mulliken charges and spin densities:
               1          2
     1  C   -0.402810   0.005532
     2  C    1.271238   0.120218
     3  C   -0.516621   0.044962
     4  C   -1.142771   0.100829
     5  O   -0.387239   0.228223
     6  C    0.977226   0.106430
     7  C   -0.275923   0.066286
     8  C   -0.990169   0.084392
     9  O   -0.379974   0.231907
    10  C   -0.096828   0.004065
    11  O   -0.277838  -0.000108
    12  H    0.146559   0.006212
    13  H    0.118276  -0.000163
    14  H    0.148277   0.006151
    15  H    0.104592  -0.008685
    16  H    0.114516  -0.009444
    17  H    0.182319   0.009395
    18  H    0.169090   0.004417
    19  H    0.238079  -0.000619
 Sum of Mulliken charges =  -1.00000   1.00000

 Dipole moment (field-independent basis, Debye):
    X=              0.4859    Y=              0.0672    Z=              1.1916  Tot=              1.2886
 Quadrupole moment (field-independent basis, Debye-Ang):
   XX=            -87.7867   YY=            -95.0232   ZZ=            -67.0937
   XY=            -11.5047   XZ=              3.7603   YZ=             -2.7415

 Summary of Natural Population Analysis:

                                       Natural Population
                Natural  -----------------------------------------------
    Atom  No    Charge         Core      Valence    Rydberg      Total
 -----------------------------------------------------------------------
      C    1   -0.29728      0.99964     2.29142    0.00622     3.29728
      C    2    0.00079      0.99948     1.99111    0.00861     2.99921
      C    3   -0.10701      0.99946     2.09782    0.00973     3.10701
      C    4    0.24869      0.99959     1.73147    0.02025     2.75131
      O    5   -0.23223      0.99988     3.22534    0.00701     4.23223
      C    6   -0.02172      0.99946     2.01381    0.00845     3.02172
      C    7   -0.10224      0.99946     2.09251    0.01026     3.10224
      C    8    0.24588      0.99959     1.73424    0.02029     2.75412
      O    9   -0.22568      0.99988     3.21886    0.00693     4.22568
      C   10   -0.02084      0.99955     2.00817    0.01312     3.02084
      O   11   -0.37081      0.99990     3.36465    0.00626     4.37081
      H   12    0.10432      0.00000     0.39443    0.00124     0.39568
      H   13    0.09088      0.00000     0.40812    0.00099     0.40912
      H   14    0.10439      0.00000     0.39437    0.00124     0.39561
      H   15    0.08811      0.00000     0.40897    0.00292     0.41189
      H   16    0.09485      0.00000     0.40202    0.00313     0.40515
      H   17    0.09139      0.00000     0.40709    0.00152     0.40861
      H   18    0.08516      0.00000     0.41312    0.00172     0.41484
      H   19    0.22333      0.00000     0.27389    0.00279     0.27667
 =======================================================================
   * Total *    0.00000     10.99591    28.87144    0.13266    40.00000

 Normal termination of Gaussian 16 at Tue Dec  8 20:21:50 2020.
