 Gaussian 16, Revision A.03,

 -----------------------------------------------------------
 # opt freq B3LYP/6-31G(d) empiricaldispersion=gd3bj scf=xqc
 -----------------------------------------------------------

 ------------------------------
 CID_18778584_JID_8482_neutraal
 ------------------------------
 Symbolic Z-matrix:
 Charge =  0 Multiplicity = 1

 SCF Done:  E(RB3LYP) =  -1165.58740465     A.U. after   14 cycles
 SCF Done:  E(RB3LYP) =  -1165.59116595     A.U. after   12 cycles
 SCF Done:  E(RB3LYP) =  -1165.59195179     A.U. after   11 cycles
 SCF Done:  E(RB3LYP) =  -1165.59219471     A.U. after   11 cycles
 SCF Done:  E(RB3LYP) =  -1165.59230146     A.U. after   10 cycles
 SCF Done:  E(RB3LYP) =  -1165.59234789     A.U. after   11 cycles
 SCF Done:  E(RB3LYP) =  -1165.59240981     A.U. after   11 cycles
 SCF Done:  E(RB3LYP) =  -1165.59242264     A.U. after   10 cycles
 SCF Done:  E(RB3LYP) =  -1165.59243198     A.U. after   10 cycles
 SCF Done:  E(RB3LYP) =  -1165.59243573     A.U. after    9 cycles
 SCF Done:  E(RB3LYP) =  -1165.59268843     A.U. after    9 cycles
 SCF Done:  E(RB3LYP) =  -1165.59268865     A.U. after    9 cycles
 SCF Done:  E(RB3LYP) =  -1165.59268872     A.U. after    8 cycles
 SCF Done:  E(RB3LYP) =  -1165.59268877     A.U. after    8 cycles
 SCF Done:  E(RB3LYP) =  -1165.59268879     A.U. after    8 cycles
 Optimization completed.
    -- Stationary point found.
 Normal termination of Gaussian 16 at Sun Dec 13 20:49:27 2020.

 --------------------------------------------------------------------
 #N Geom=AllCheck Guess=TCheck SCRF=Check GenChk RB3LYP/6-31G(d) Freq
 --------------------------------------------------------------------

 Structure from the checkpoint file:  "JID_8482.chk"
 ------------------------------
 CID_18778584_JID_8482_neutraal
 ------------------------------
 Charge =  0 Multiplicity = 1

 SCF Done:  E(RB3LYP) =  -1165.59268879     A.U. after    1 cycles

  Exact polarizability: 259.172  -4.303 154.942  -7.009  -8.797 116.411
 Approx polarizability: 316.127  -3.130 259.707  -9.462 -28.601 187.957

                      1                      2                      3
                      A                      A                      A
 Frequencies --     17.2208                18.1762                36.5348
 Red. masses --      5.0546                 4.3865                 3.5891
 Frc consts  --      0.0009                 0.0009                 0.0028
 IR Inten    --      0.5696                 1.9371                 2.4248

                      4                      5                      6
                      A                      A                      A
 Frequencies --     53.3438                73.2557               114.5013
 Red. masses --      4.3473                 4.1925                 3.8291
 Frc consts  --      0.0073                 0.0133                 0.0296
 IR Inten    --      0.6513                 1.6746                12.6953

                      7                      8                      9
                      A                      A                      A
 Frequencies --    128.6741               158.4434               168.4262
 Red. masses --      3.1395                 2.3658                 3.5502
 Frc consts  --      0.0306                 0.0350                 0.0593
 IR Inten    --     12.5454                20.8933                 8.1073

                     10                     11                     12
                      A                      A                      A
 Frequencies --    184.8150               231.5386               234.7686
 Red. masses --      2.7835                 1.8257                 3.0776
 Frc consts  --      0.0560                 0.0577                 0.0999
 IR Inten    --      4.3012                 2.0783                16.0718

                     13                     14                     15
                      A                      A                      A
 Frequencies --    266.1468               301.0189               324.7639
 Red. masses --      3.3812                 1.2684                 4.1791
 Frc consts  --      0.1411                 0.0677                 0.2597
 IR Inten    --      6.1430                69.3105                 3.0939

                     16                     17                     18
                      A                      A                      A
 Frequencies --    334.5940               341.2051               367.4230
 Red. masses --      2.0822                 3.4347                 3.8968
 Frc consts  --      0.1373                 0.2356                 0.3099
 IR Inten    --      6.7239                 4.7522                11.4524

                     19                     20                     21
                      A                      A                      A
 Frequencies --    415.1459               426.1966               439.2262
 Red. masses --      2.9028                 3.1893                 3.1650
 Frc consts  --      0.2948                 0.3413                 0.3597
 IR Inten    --      5.2109                 2.2389                 2.3488

                     22                     23                     24
                      A                      A                      A
 Frequencies --    448.5257               456.6461               482.7067
 Red. masses --      2.8150                 3.0723                 5.9507
 Frc consts  --      0.3337                 0.3775                 0.8169
 IR Inten    --      1.1446                 6.8365                 3.6746

                     25                     26                     27
                      A                      A                      A
 Frequencies --    503.6234               534.0462               543.0482
 Red. masses --      2.6109                 3.0005                 3.6423
 Frc consts  --      0.3902                 0.5042                 0.6329
 IR Inten    --      7.6837                33.2871                83.3436

                     28                     29                     30
                      A                      A                      A
 Frequencies --    589.2640               648.1033               688.0209
 Red. masses --      2.5936                 6.9877                 6.0515
 Frc consts  --      0.5306                 1.7293                 1.6878
 IR Inten    --     51.6943                 2.5600                62.8568

                     31                     32                     33
                      A                      A                      A
 Frequencies --    708.3668               722.0658               794.0567
 Red. masses --      3.3118                 3.6490                 2.3925
 Frc consts  --      0.9791                 1.1209                 0.8888
 IR Inten    --    109.0931               104.1891                 1.7413

                     34                     35                     36
                      A                      A                      A
 Frequencies --    803.7521               814.2184               828.3696
 Red. masses --      1.5556                 1.2804                 1.7721
 Frc consts  --      0.5921                 0.5001                 0.7165
 IR Inten    --      0.4223                 2.3863                37.7676

                     37                     38                     39
                      A                      A                      A
 Frequencies --    859.7782               861.6583               877.5462
 Red. masses --      2.9304                 2.2277                 1.8450
 Frc consts  --      1.2763                 0.9745                 0.8371
 IR Inten    --      1.8045                 2.1345                 2.3873

                     40                     41                     42
                      A                      A                      A
 Frequencies --    895.5546               915.1371               939.8256
 Red. masses --      1.8364                 1.7869                 1.5903
 Frc consts  --      0.8678                 0.8817                 0.8276
 IR Inten    --    147.6390                 5.6073                 0.3055

                     43                     44                     45
                      A                      A                      A
 Frequencies --    948.5066               965.5491               986.5753
 Red. masses --      1.2899                 1.2817                 2.0969
 Frc consts  --      0.6837                 0.7040                 1.2025
 IR Inten    --      0.0885                 0.3839                 0.9985

                     46                     47                     48
                      A                      A                      A
 Frequencies --    988.8081              1024.7572              1053.6418
 Red. masses --      1.5303                 3.4335                 1.8341
 Frc consts  --      0.8815                 2.1243                 1.1997
 IR Inten    --      3.5475                 6.3055                 0.4275

                     49                     50                     51
                      A                      A                      A
 Frequencies --   1076.6517              1093.6783              1102.0419
 Red. masses --      1.4848                 3.7689                 1.2861
 Frc consts  --      1.0141                 2.6561                 0.9203
 IR Inten    --      0.3728                59.8666                 2.7988

                     52                     53                     54
                      A                      A                      A
 Frequencies --   1110.0585              1116.8373              1123.2664
 Red. masses --      2.5215                 1.4957                 2.6646
 Frc consts  --      1.8306                 1.0992                 1.9809
 IR Inten    --      0.1669                 6.8398                 3.0582

                     55                     56                     57
                      A                      A                      A
 Frequencies --   1139.0776              1152.0041              1163.1741
 Red. masses --      2.1144                 3.4091                 1.4840
 Frc consts  --      1.6164                 2.6656                 1.1829
 IR Inten    --      1.8821               392.3422                27.8555

                     58                     59                     60
                      A                      A                      A
 Frequencies --   1187.7621              1223.1417              1224.4279
 Red. masses --      2.2021                 1.2494                 1.4528
 Frc consts  --      1.8304                 1.1013                 1.2833
 IR Inten    --      2.4140                 4.9200                 9.1443

                     61                     62                     63
                      A                      A                      A
 Frequencies --   1257.3709              1291.4009              1305.4732
 Red. masses --      1.2560                 1.3224                 1.2573
 Frc consts  --      1.1699                 1.2994                 1.2625
 IR Inten    --     10.5248                 2.4483                 6.8662

                     64                     65                     66
                      A                      A                      A
 Frequencies --   1309.8487              1317.6059              1333.7464
 Red. masses --      1.5346                 1.2638                 6.6332
 Frc consts  --      1.5513                 1.2927                 6.9522
 IR Inten    --     24.1060                 1.6172               150.2940

                     67                     68                     69
                      A                      A                      A
 Frequencies --   1343.1126              1346.9272              1362.9102
 Red. masses --      1.3149                 1.5093                 1.3057
 Frc consts  --      1.3976                 1.6133                 1.4290
 IR Inten    --      0.8290                 9.2731                 0.8177

                     70                     71                     72
                      A                      A                      A
 Frequencies --   1386.5491              1389.9060              1400.4866
 Red. masses --      1.7861                 2.2372                 1.4326
 Frc consts  --      2.0231                 2.5464                 1.6556
 IR Inten    --     50.9111                97.8870                13.1036

                     73                     74                     75
                      A                      A                      A
 Frequencies --   1403.6829              1406.8334              1420.1223
 Red. masses --      1.5049                 1.5396                 1.4596
 Frc consts  --      1.7470                 1.7954                 1.7343
 IR Inten    --      1.0196                 0.9244                 0.0735

                     76                     77                     78
                      A                      A                      A
 Frequencies --   1428.4727              1462.8799              1509.8197
 Red. masses --      1.6267                 2.7880                 1.1037
 Frc consts  --      1.9557                 3.5153                 1.4824
 IR Inten    --      0.5856                25.5514                 1.0520

                     79                     80                     81
                      A                      A                      A
 Frequencies --   1515.3019              1517.6342              1521.9440
 Red. masses --      1.0974                 1.1001                 1.0929
 Frc consts  --      1.4846                 1.4928                 1.4915
 IR Inten    --      0.7622                 2.6871                 8.5801

                     82                     83                     84
                      A                      A                      A
 Frequencies --   1531.6257              1536.2870              1552.2194
 Red. masses --      1.6358                 1.1292                 1.1127
 Frc consts  --      2.2609                 1.5702                 1.5796
 IR Inten    --     17.2930                 1.1545               100.6890

                     85                     86                     87
                      A                      A                      A
 Frequencies --   1570.4324              1621.6528              1632.7410
 Red. masses --      2.6907                 1.1407                 3.9426
 Frc consts  --      3.9098                 1.7674                 6.1926
 IR Inten    --    191.2249                25.0272                20.1651

                     88                     89                     90
                      A                      A                      A
 Frequencies --   1666.8425              2981.3342              3004.2778
 Red. masses --      5.5601                 1.0684                 1.0793
 Frc consts  --      9.1016                 5.5952                 5.7396
 IR Inten    --    357.7408                31.6418                 9.2934

                     91                     92                     93
                      A                      A                      A
 Frequencies --   3018.3873              3024.2295              3025.4186
 Red. masses --      1.0652                 1.0691                 1.0668
 Frc consts  --      5.7179                 5.7610                 5.7534
 IR Inten    --     23.9111                32.8606                14.3523

                     94                     95                     96
                      A                      A                      A
 Frequencies --   3027.1800              3032.2342              3035.7717
 Red. masses --      1.0648                 1.0614                 1.0944
 Frc consts  --      5.7489                 5.7498                 5.9423
 IR Inten    --      5.6332                58.2740                27.4847

                     97                     98                     99
                      A                      A                      A
 Frequencies --   3062.0305              3072.1119              3078.2980
 Red. masses --      1.0988                 1.0978                 1.0987
 Frc consts  --      6.0697                 6.1044                 6.1339
 IR Inten    --     70.9209                55.2232                35.7755

                    100                    101                    102
                      A                      A                      A
 Frequencies --   3078.6964              3084.1584              3180.5220
 Red. masses --      1.0923                 1.1046                 1.0891
 Frc consts  --      6.0999                 6.1908                 6.4913
 IR Inten    --     61.3208                89.0547                16.0772

                    103                    104                    105
                      A                      A                      A
 Frequencies --   3220.2496              3224.4474              3234.2423
 Red. masses --      1.0873                 1.0927                 1.0939
 Frc consts  --      6.6434                 6.6936                 6.7416
 IR Inten    --      7.5027                 1.9066                 6.7139

                    106                    107                    108
                      A                      A                      A
 Frequencies --   3476.7410              3586.8889              3627.3493
 Red. masses --      1.0471                 1.0968                 1.0760
 Frc consts  --      7.4571                 8.3137                 8.3416
 IR Inten    --     22.9597                22.2680                40.7492

 - Thermochemistry -
 -------------------
 Temperature   298.150 Kelvin.  Pressure   1.00000 Atm.
 Atom     1 has atomic number  6 and mass  12.00000

 Molecular mass:   268.12455 amu.
 Principal axes and moments of inertia in atomic units:
                           1         2         3
     Eigenvalues --  1231.35679********************
           X            1.00000  -0.00244  -0.00165
           Y            0.00246   0.99997   0.00774
           Z            0.00164  -0.00774   0.99997
 This molecule is an asymmetric top.
 Rotational symmetry number  1.
 Warning -- assumption of classical behavior for rotation
           may cause significant error
 Rotational temperatures (Kelvin)      0.07034     0.00527     0.00511
 Rotational constants (GHZ):           1.46565     0.10983     0.10653
 Zero-point vibrational energy     853225.1 (Joules/Mol)
                                  203.92568 (Kcal/Mol)
 Warning -- explicit consideration of  28 degrees of freedom as
           vibrations may cause significant error
 Vibrational temperatures:     24.78    26.15    52.57    76.75   105.40
          (Kelvin)            164.74   185.13   227.96   242.33   265.91
                              333.13   337.78   382.93   433.10   467.26
                              481.41   490.92   528.64   597.30   613.20
                              631.95   645.33   657.01   694.51   724.60
                              768.37   781.33   847.82   932.48   989.91
                             1019.18  1038.89  1142.47  1156.42  1171.48
                             1191.84  1237.03  1239.73  1262.59  1288.50
                             1316.68  1352.20  1364.69  1389.21  1419.46
                             1422.67  1474.40  1515.96  1549.06  1573.56
                             1585.59  1597.13  1606.88  1616.13  1638.88
                             1657.48  1673.55  1708.92  1759.83  1761.68
                             1809.08  1858.04  1878.28  1884.58  1895.74
                             1918.96  1932.44  1937.93  1960.92  1994.93
                             1999.76  2014.99  2019.59  2024.12  2043.24
                             2055.25  2104.76  2172.29  2180.18  2183.54
                             2189.74  2203.67  2210.37  2233.30  2259.50
                             2333.20  2349.15  2398.21  4289.47  4322.49
                             4342.79  4351.19  4352.90  4355.44  4362.71
                             4367.80  4405.58  4420.08  4428.98  4429.56
                             4437.42  4576.06  4633.22  4639.26  4653.35
                             5002.25  5160.73  5218.95

 Zero-point correction=                           0.324976 (Hartree/Particle)
 Thermal correction to Energy=                    0.342875
 Thermal correction to Enthalpy=                  0.343819
 Thermal correction to Gibbs Free Energy=         0.276546
 Sum of electronic and zero-point Energies=          -1165.267713
 Sum of electronic and thermal Energies=             -1165.249814
 Sum of electronic and thermal Enthalpies=           -1165.248870
 Sum of electronic and thermal Free Energies=        -1165.316143

                     E (Thermal)             CV                S
                      KCal/Mol        Cal/Mol-Kelvin    Cal/Mol-Kelvin
 Total                  215.157             68.596            141.589
 Electronic               0.000              0.000              0.000
 Translational            0.889              2.981             42.658
 Rotational               0.889              2.981             34.193
 Vibrational            213.380             62.634             64.738
 Vibration     1          0.593              1.986              6.931
 Vibration     2          0.593              1.986              6.824
 Vibration     3          0.594              1.982              5.439
 Vibration     4          0.596              1.976              4.689
 Vibration     5          0.599              1.967              4.064
 Vibration     6          0.607              1.937              3.191
 Vibration     7          0.611              1.925              2.966
 Vibration     8          0.621              1.893              2.568
 Vibration     9          0.625              1.881              2.453
 Vibration    10          0.631              1.861              2.279
 Vibration    11          0.653              1.793              1.867
 Vibration    12          0.655              1.788              1.842
 Vibration    13          0.672              1.735              1.621
 Vibration    14          0.693              1.672              1.411
 Vibration    15          0.709              1.626              1.286
 Vibration    16          0.716              1.606              1.238
 Vibration    17          0.721              1.593              1.207
 Vibration    18          0.740              1.539              1.091
 Vibration    19          0.779              1.437              0.909
 Vibration    20          0.788              1.413              0.871
 Vibration    21          0.799              1.385              0.829
 Vibration    22          0.808              1.364              0.800
 Vibration    23          0.815              1.346              0.776
 Vibration    24          0.839              1.288              0.703
 Vibration    25          0.859              1.242              0.649
 Vibration    26          0.889              1.175              0.578
 Vibration    27          0.898              1.155              0.559
 Vibration    28          0.947              1.055              0.468

 Optimization completed.
    -- Stationary point found.
 Normal termination of Gaussian 16 at Sun Dec 13 21:05:43 2020.

 ----------------------------------------------------------------------
 # B3LYP/6-311++G(d,p) empiricaldispersion=gd3bj scf=xqc pop=npa geom=c
 heck
 ----------------------------------------------------------------------

 --------------------------------------
 CID_18778584_JID_8482_Energie_neutraal
 --------------------------------------
 Structure from the checkpoint file:  "JID_8482.chk"
 Charge =  0 Multiplicity = 1

 SCF Done:  E(RB3LYP) =  -1165.83849147     A.U. after   15 cycles
 Normal termination of Gaussian 16 at Sun Dec 13 21:13:46 2020.

 ----------------------------------------------------------------------
 # B3LYP/6-311++G(d,p) empiricaldispersion=gd3bj scf=xqc pop=npa geom=c
 heck
 ----------------------------------------------------------------------

 ------------------------------------
 CID_18778584_JID_8482_Energie_kation
 ------------------------------------
 Structure from the checkpoint file:  "JID_8482.chk"
 Charge =  1 Multiplicity = 2

 SCF Done:  E(UB3LYP) =  -1165.55609573     A.U. after   22 cycles
 Normal termination of Gaussian 16 at Sun Dec 13 21:30:37 2020.
 Gaussian 16:  ES64L-G16RevA.03 25-Dec-2016

 ----------------------------------------------------------------------
 # B3LYP/6-311++G(d,p) empiricaldispersion=gd3bj scf=xqc pop=npa geom=c
 heck
 ----------------------------------------------------------------------

 -----------------------------------
 CID_18778584_JID_8482_Energie_anion
 -----------------------------------
 Structure from the checkpoint file:  "JID_8482.chk"
 Charge = -1 Multiplicity = 2

                         Standard orientation:
 ---------------------------------------------------------------------
 Center     Atomic      Atomic             Coordinates (Angstroms)
 Number     Number       Type             X           Y           Z
 ---------------------------------------------------------------------
      1          6           0        6.390433    0.267494    0.625688
      2          6           0        6.057484   -0.912836   -0.295448
      3          6           0        4.599776   -1.360166   -0.128062
      4          6           0        3.613247   -0.202508   -0.353590
      5          6           0        3.958305    0.975720    0.575703
      6          6           0        5.414166    1.429885    0.406850
      7          6           0        2.172971   -0.688755   -0.170579
      8          7           0        1.212839    0.315299   -0.590929
      9          6           0       -0.142189    0.194702   -0.412641
     10          6           0       -0.982299    1.305046   -0.667167
     11          6           0       -2.352420    1.206426   -0.518787
     12          6           0       -2.919236   -0.006464   -0.106580
     13          6           0       -2.111842   -1.114254    0.144653
     14          6           0       -0.732824   -1.018625   -0.003078
     15         16           0       -4.675772   -0.138426    0.066098
     16          8           0       -5.336862    0.566551   -1.036976
     17          8           0       -4.992342   -1.540331    0.370555
     18          7           0       -4.981802    0.835442    1.432349
     19          1           0        7.422221    0.600627    0.460973
     20          1           0        6.328959   -0.062582    1.672883
     21          1           0        6.224355   -0.614356   -1.340465
     22          1           0        6.732479   -1.754340   -0.098510
     23          1           0        4.456088   -1.756083    0.888527
     24          1           0        4.372762   -2.181172   -0.819800
     25          1           0        3.721406    0.135325   -1.396429
     26          1           0        3.791289    0.659189    1.616006
     27          1           0        3.285241    1.825903    0.403045
     28          1           0        5.633285    2.250210    1.100858
     29          1           0        5.551250    1.831523   -0.607622
     30          1           0        2.021290   -1.601814   -0.763067
     31          1           0        2.012875   -0.964037    0.885524
     32          1           0        1.565231    1.253043   -0.713017
     33          1           0       -0.537713    2.243036   -0.990957
     34          1           0       -2.990468    2.059483   -0.722969
     35          1           0       -2.571059   -2.048071    0.449470
     36          1           0       -0.114706   -1.887121    0.191470
     37          1           0       -5.907289    1.245940    1.311941
     38          1           0       -4.962190    0.261184    2.274219
 ---------------------------------------------------------------------

 SCF Done:  E(UB3LYP) =  -1165.83209194     A.U. after   33 cycles
 SCF Done:  E(UB3LYP) =  -1165.83209194     a.u. after    1 cycles

 The electronic state is 2-A.
 Alpha  occ. eigenvalues --  -88.97542 -19.02899 -19.02791 -14.25293 -14.24761
 Alpha  occ. eigenvalues --  -10.14256 -10.12453 -10.11097 -10.10591 -10.10301
 Alpha  occ. eigenvalues --  -10.09618 -10.09346 -10.09209 -10.08634 -10.08292
 Alpha  occ. eigenvalues --  -10.08276 -10.08031 -10.07928  -8.03721  -6.00017
 Alpha  occ. eigenvalues --   -5.99966  -5.99795  -1.03048  -0.92133  -0.86574
 Alpha  occ. eigenvalues --   -0.82079  -0.77869  -0.75492  -0.69667  -0.67612
 Alpha  occ. eigenvalues --   -0.66598  -0.66064  -0.60571  -0.57480  -0.54086
 Alpha  occ. eigenvalues --   -0.53120  -0.51053  -0.50583  -0.47639  -0.46220
 Alpha  occ. eigenvalues --   -0.44666  -0.43264  -0.42093  -0.40532  -0.39717
 Alpha  occ. eigenvalues --   -0.38197  -0.37275  -0.36410  -0.35853  -0.35419
 Alpha  occ. eigenvalues --   -0.34968  -0.34777  -0.33787  -0.32492  -0.30362
 Alpha  occ. eigenvalues --   -0.29954  -0.29077  -0.28484  -0.27223  -0.26984
 Alpha  occ. eigenvalues --   -0.26317  -0.26005  -0.24443  -0.23928  -0.23684
 Alpha  occ. eigenvalues --   -0.22928  -0.22444  -0.22166  -0.21911  -0.20127
 Alpha  occ. eigenvalues --   -0.18200  -0.12822   0.03466
 Alpha virt. eigenvalues --    0.04762   0.05692   0.05764   0.06236   0.06513
 Alpha virt. eigenvalues --    0.06584   0.07651   0.08354   0.08856   0.09320
 Alpha virt. eigenvalues --    0.09543   0.09800   0.10223   0.10282   0.11715

  Beta  occ. eigenvalues --  -88.97535 -19.02886 -19.02783 -14.25237 -14.24738
  Beta  occ. eigenvalues --  -10.14226 -10.12446 -10.11082 -10.10588 -10.10256
  Beta  occ. eigenvalues --  -10.09607 -10.09343 -10.09199 -10.08624 -10.08270
  Beta  occ. eigenvalues --  -10.08259 -10.08015 -10.07905  -8.03713  -6.00003
  Beta  occ. eigenvalues --   -5.99958  -5.99790  -1.03021  -0.92112  -0.86525
  Beta  occ. eigenvalues --   -0.81975  -0.77824  -0.75459  -0.69624  -0.67561
  Beta  occ. eigenvalues --   -0.66552  -0.66024  -0.60521  -0.57423  -0.54038
  Beta  occ. eigenvalues --   -0.53064  -0.51003  -0.50526  -0.47582  -0.46179
  Beta  occ. eigenvalues --   -0.44613  -0.43195  -0.42058  -0.40503  -0.39660
  Beta  occ. eigenvalues --   -0.38155  -0.37245  -0.36380  -0.35824  -0.35390
  Beta  occ. eigenvalues --   -0.34940  -0.34748  -0.33735  -0.32463  -0.30283
  Beta  occ. eigenvalues --   -0.29910  -0.29037  -0.28447  -0.27183  -0.26954
  Beta  occ. eigenvalues --   -0.26276  -0.25956  -0.24406  -0.23886  -0.23638
  Beta  occ. eigenvalues --   -0.22872  -0.22404  -0.22137  -0.21867  -0.20061
  Beta  occ. eigenvalues --   -0.18085  -0.12743
  Beta virt. eigenvalues --    0.05420   0.05667   0.05957   0.06378   0.06479
  Beta virt. eigenvalues --    0.06827   0.06984   0.08008   0.08651   0.09182
  Beta virt. eigenvalues --    0.09641   0.09745   0.09939   0.10397   0.10563

 Mulliken charges and spin densities:
               1          2
     1  C    0.140068  -0.500079
     2  C   -0.295887  -0.049775
     3  C    0.012489  -0.421088
     4  C   -0.212511   0.255969
     5  C    0.130743  -0.343703
     6  C    0.282520  -0.669747
     7  C   -0.413726  -0.051437
     8  N    0.098193   0.017079
     9  C    0.578936  -0.504846
    10  C   -0.286050  -0.124814
    11  C    0.251255  -0.499804
    12  C   -0.060725  -0.428703
    13  C   -0.656680   0.516443
    14  C   -0.295962   0.473342
    15  S    1.475771  -1.239964
    16  O   -0.255809   0.019079
    17  O   -0.190623  -0.000783
    18  N   -0.294048  -0.043694
    19  H   -0.281714   0.452293
    20  H    0.096873   0.014618
    21  H   -0.008101   0.139656
    22  H   -0.184536   0.361119
    23  H    0.019010   0.121285
    24  H    0.016235   0.124263
    25  H   -0.148636   0.333719
    26  H   -0.062280   0.211320
    27  H   -0.148894   0.266451
    28  H   -0.236720   0.410936
    29  H   -0.144426   0.284145
    30  H    0.130900   0.052101
    31  H    0.130017   0.027368
    32  H    0.096450   0.175109
    33  H   -0.491371   0.634319
    34  H    0.103319   0.137421
    35  H    0.144350   0.108542
    36  H   -0.008267   0.147093
    37  H    0.009409   0.279872
    38  H   -0.039574   0.314895
 Sum of Mulliken charges =  -1.00000   1.00000

 Dipole moment (field-independent basis, Debye):
    X=             -0.6726    Y=             -2.6793    Z=              1.2230  Tot=              3.0211
 Quadrupole moment (field-independent basis, Debye-Ang):
   XX=           -277.2061   YY=           -156.0546   ZZ=           -148.1004
   XY=            -10.9453   XZ=             -1.1228   YZ=             -1.6412

 Summary of Natural Population Analysis:

                                       Natural Population
                Natural  -----------------------------------------------
    Atom  No    Charge         Core      Valence    Rydberg      Total
 -----------------------------------------------------------------------
      C    1   -0.18927      0.99963     2.18155    0.00809     3.18927
      C    2   -0.18913      0.99963     2.18094    0.00856     3.18913
      C    3   -0.18563      0.99961     2.17855    0.00747     3.18563
      C    4   -0.11440      0.99958     2.10427    0.01055     3.11440
      C    5   -0.19049      0.99961     2.18067    0.01021     3.19049
      C    6   -0.18876      0.99963     2.18055    0.00858     3.18876
      C    7   -0.08139      0.99959     2.07193    0.00988     3.08139
      N    8   -0.29999      0.99966     2.79111    0.00922     3.79999
      C    9    0.11064      0.99951     1.87819    0.01165     2.88936
      C   10   -0.12147      0.99953     2.11213    0.00981     3.12147
      C   11   -0.07049      0.99951     2.06121    0.00977     3.07049
      C   12   -0.17095      0.99937     2.15694    0.01465     3.17095
      C   13   -0.08062      0.99952     2.07151    0.00960     3.08062
      C   14   -0.13701      0.99953     2.12966    0.00782     3.13701
      S   15    1.09345      4.99924     1.80591    0.10140     6.90655
      O   16   -0.46646      0.99991     3.46084    0.00571     4.46646
      O   17   -0.46797      0.99991     3.46260    0.00546     4.46797
      N   18   -0.51166      0.99979     3.00127    0.01060     4.01166
      H   19    0.10019      0.00000     0.39871    0.00110     0.39981
      H   20    0.09145      0.00000     0.40735    0.00120     0.40855
      H   21    0.09433      0.00000     0.40435    0.00132     0.40567
      H   22    0.09866      0.00000     0.40034    0.00099     0.40134
      H   23    0.09323      0.00000     0.40545    0.00132     0.40677
      H   24    0.09946      0.00000     0.39935    0.00119     0.40054
      H   25    0.09719      0.00000     0.40077    0.00204     0.40281
      H   26    0.09383      0.00000     0.40486    0.00132     0.40617
      H   27    0.10014      0.00000     0.39817    0.00170     0.39986
      H   28    0.10032      0.00000     0.39857    0.00111     0.39968
      H   29    0.09511      0.00000     0.40330    0.00159     0.40489
      H   30    0.09389      0.00000     0.40449    0.00161     0.40611
      H   31    0.08913      0.00000     0.40928    0.00159     0.41087
      H   32    0.19198      0.00000     0.30463    0.00339     0.30802
      H   33    0.10467      0.00000     0.39404    0.00129     0.39533
      H   34    0.11191      0.00000     0.38704    0.00105     0.38809
      H   35    0.11514      0.00000     0.38382    0.00104     0.38486
      H   36    0.10460      0.00000     0.39426    0.00113     0.39540
      H   37    0.19442      0.00000     0.30276    0.00282     0.30558
      H   38    0.19196      0.00000     0.30563    0.00241     0.30804
 =======================================================================
   * Total *    0.00000     21.99276    49.71699    0.29024    72.00000

 Normal termination of Gaussian 16 at Sun Dec 13 21:56:46 2020.
