 Gaussian 16, Revision A.03,

 -----------------------------------------------------------
 # opt freq B3LYP/6-31G(d) empiricaldispersion=gd3bj scf=xqc
 -----------------------------------------------------------

 ------------------------------
 CID_62881194_JID_6197_neutraal
 ------------------------------
 Symbolic Z-matrix:
 Charge =  0 Multiplicity = 1

 SCF Done:  E(RB3LYP) =  -721.845419620     A.U. after   16 cycles
 SCF Done:  E(RB3LYP) =  -721.855001512     A.U. after   13 cycles
 SCF Done:  E(RB3LYP) =  -721.857079598     A.U. after   13 cycles
 SCF Done:  E(RB3LYP) =  -721.858493986     A.U. after   14 cycles
 SCF Done:  E(RB3LYP) =  -721.859004064     A.U. after   12 cycles
 SCF Done:  E(RB3LYP) =  -721.859223776     A.U. after   12 cycles
 SCF Done:  E(RB3LYP) =  -721.859194326     A.U. after   12 cycles
 SCF Done:  E(RB3LYP) =  -721.859368516     A.U. after   11 cycles
 SCF Done:  E(RB3LYP) =  -721.859442344     A.U. after   11 cycles
 SCF Done:  E(RB3LYP) =  -721.859597642     A.U. after   13 cycles
 SCF Done:  E(RB3LYP) =  -721.859808668     A.U. after    8 cycles
 SCF Done:  E(RB3LYP) =  -721.859808784     A.U. after    7 cycles
 SCF Done:  E(RB3LYP) =  -721.859808864     A.U. after    7 cycles
 SCF Done:  E(RB3LYP) =  -721.859808902     A.U. after    7 cycles
 Optimization completed.
    -- Stationary point found.
 Normal termination of Gaussian 16 at Thu Dec 10 21:33:38 2020.

 --------------------------------------------------------------------
 #N Geom=AllCheck Guess=TCheck SCRF=Check GenChk RB3LYP/6-31G(d) Freq
 --------------------------------------------------------------------

 Structure from the checkpoint file:  "JID_6197.chk"
 ------------------------------
 CID_62881194_JID_6197_neutraal
 ------------------------------
 Charge =  0 Multiplicity = 1

 SCF Done:  E(RB3LYP) =  -721.859808902     A.U. after    1 cycles

  Exact polarizability: 193.897 -13.542 121.399   4.004   7.498 110.189
 Approx polarizability: 285.286 -14.391 187.877  18.760  14.665 183.480

                      1                      2                      3
                      A                      A                      A
 Frequencies --     17.6594                20.0158                49.5460
 Red. masses --      4.6025                 3.8018                 4.8651
 Frc consts  --      0.0008                 0.0009                 0.0070
 IR Inten    --      1.0165                 0.2144                 0.7994

                      4                      5                      6
                      A                      A                      A
 Frequencies --     94.7333               101.0291               123.1530
 Red. masses --      1.1202                 3.8255                 1.1590
 Frc consts  --      0.0059                 0.0230                 0.0104
 IR Inten    --      6.5975                 2.5251                 0.7337

                      7                      8                      9
                      A                      A                      A
 Frequencies --    137.5836               164.2481               202.3632
 Red. masses --      3.0644                 2.6155                 1.8291
 Frc consts  --      0.0342                 0.0416                 0.0441
 IR Inten    --      1.0915                13.9065                17.1412

                     10                     11                     12
                      A                      A                      A
 Frequencies --    207.3050               237.4876               262.5077
 Red. masses --      1.8891                 4.7512                 2.5482
 Frc consts  --      0.0478                 0.1579                 0.1035
 IR Inten    --     27.0167                 5.7974                 0.1109

                     13                     14                     15
                      A                      A                      A
 Frequencies --    286.5671               311.4470               344.9074
 Red. masses --      2.5414                 3.6653                 3.6575
 Frc consts  --      0.1230                 0.2095                 0.2564
 IR Inten    --      3.8113                 1.1972                 1.4953

                     16                     17                     18
                      A                      A                      A
 Frequencies --    359.0859               419.9914               459.1613
 Red. masses --      5.2189                 3.2813                 2.6680
 Frc consts  --      0.3965                 0.3410                 0.3314
 IR Inten    --      2.8832                 0.4640                12.6862

                     19                     20                     21
                      A                      A                      A
 Frequencies --    465.1843               518.7266               553.3020
 Red. masses --      5.1188                 6.1262                 3.0655
 Frc consts  --      0.6526                 0.9712                 0.5529
 IR Inten    --      5.4268                16.3054                 0.9462

                     22                     23                     24
                      A                      A                      A
 Frequencies --    608.6376               630.9375               642.2581
 Red. masses --      4.7491                 4.5859                 5.2131
 Frc consts  --      1.0365                 1.0756                 1.2670
 IR Inten    --     11.5543                11.5345                12.7114

                     25                     26                     27
                      A                      A                      A
 Frequencies --    664.1012               704.5185               714.9651
 Red. masses --      5.6699                 3.7264                 2.7784
 Frc consts  --      1.4733                 1.0897                 0.8368
 IR Inten    --      8.9839                45.4163                 1.5447

                     28                     29                     30
                      A                      A                      A
 Frequencies --    756.5795               797.5070               800.0641
 Red. masses --      1.9479                 3.5772                 4.1353
 Frc consts  --      0.6569                 1.3405                 1.5596
 IR Inten    --    153.7898                10.0661                25.3808

                     31                     32                     33
                      A                      A                      A
 Frequencies --    805.0130               833.4507               858.0796
 Red. masses --      1.3255                 5.5744                 2.2020
 Frc consts  --      0.5061                 2.2814                 0.9553
 IR Inten    --      2.6081                10.9037                57.5356

                     34                     35                     36
                      A                      A                      A
 Frequencies --    867.0067               956.1655               967.8563
 Red. masses --      2.8763                 1.2603                 1.2556
 Frc consts  --      1.2739                 0.6789                 0.6930
 IR Inten    --      4.7933                 0.1624                 0.7585

                     37                     38                     39
                      A                      A                      A
 Frequencies --    988.0148              1022.3620              1023.5935
 Red. masses --      2.1449                 1.7346                 2.6887
 Frc consts  --      1.2336                 1.0682                 1.6598
 IR Inten    --     10.0147                10.7061                 1.7953

                     40                     41                     42
                      A                      A                      A
 Frequencies --   1066.9653              1078.1746              1112.4158
 Red. masses --      1.8905                 1.4877                 1.6995
 Frc consts  --      1.2681                 1.0189                 1.2391
 IR Inten    --      1.6176                 2.9742                 5.0925

                     43                     44                     45
                      A                      A                      A
 Frequencies --   1138.5829              1161.2689              1192.2627
 Red. masses --      2.1484                 1.3237                 3.0200
 Frc consts  --      1.6410                 1.0517                 2.5293
 IR Inten    --      3.5844                12.2797               296.9783

                     46                     47                     48
                      A                      A                      A
 Frequencies --   1226.2244              1242.6225              1257.7703
 Red. masses --      1.4045                 1.9335                 1.9286
 Frc consts  --      1.2442                 1.7590                 1.7976
 IR Inten    --      4.0263                12.2034                 1.5953

                     49                     50                     51
                      A                      A                      A
 Frequencies --   1278.5866              1283.2388              1332.5420
 Red. masses --      1.3944                 2.7581                 2.4423
 Frc consts  --      1.3431                 2.6759                 2.5551
 IR Inten    --      6.1334                 5.5578                30.0405

                     52                     53                     54
                      A                      A                      A
 Frequencies --   1376.6865              1421.1513              1434.1933
 Red. masses --      1.7612                 1.5284                 1.4207
 Frc consts  --      1.9666                 1.8188                 1.7218
 IR Inten    --     37.2271                35.4107                 3.8559

                     55                     56                     57
                      A                      A                      A
 Frequencies --   1449.4007              1462.5977              1469.5882
 Red. masses --      2.1087                 1.8495                 1.5374
 Frc consts  --      2.6100                 2.3311                 1.9563
 IR Inten    --     23.8969                 2.2990                23.1314

                     58                     59                     60
                      A                      A                      A
 Frequencies --   1506.1000              1511.1250              1514.0046
 Red. masses --      2.4631                 1.2472                 1.1411
 Frc consts  --      3.2919                 1.6779                 1.5410
 IR Inten    --     45.6915                29.1050                31.5652

                     61                     62                     63
                      A                      A                      A
 Frequencies --   1519.2613              1526.1955              1531.5954
 Red. masses --      1.2814                 1.2504                 1.4676
 Frc consts  --      1.7427                 1.7160                 2.0284
 IR Inten    --      4.3382                31.2528                 3.6346

                     64                     65                     66
                      A                      A                      A
 Frequencies --   1539.4643              1578.9756              1605.3564
 Red. masses --      1.9627                 3.9892                 5.7265
 Frc consts  --      2.7406                 5.8599                 8.6952
 IR Inten    --     20.3823                65.2147                 5.1759

                     67                     68                     69
                      A                      A                      A
 Frequencies --   1629.7413              1689.9785              1696.2467
 Red. masses --      3.7551                 5.1805                 1.3167
 Frc consts  --      5.8763                 8.7174                 2.2321
 IR Inten    --     84.1778                 4.4003               101.8038

                     70                     71                     72
                      A                      A                      A
 Frequencies --   1745.3242              3014.4482              3044.8591
 Red. masses --      8.3686                 1.0699                 1.0400
 Frc consts  --     15.0194                 5.7281                 5.6810
 IR Inten    --    557.8729                64.6966                32.2735

                     73                     74                     75
                      A                      A                      A
 Frequencies --   3047.7827              3087.8285              3095.8119
 Red. masses --      1.0441                 1.0934                 1.0994
 Frc consts  --      5.7143                 6.1422                 6.2080
 IR Inten    --     59.2814                15.8612                14.7114

                     76                     77                     78
                      A                      A                      A
 Frequencies --   3123.0691              3149.7753              3180.3798
 Red. masses --      1.0943                 1.0995                 1.1024
 Frc consts  --      6.2884                 6.4271                 6.5698
 IR Inten    --     13.3807                10.6614                 2.4011

                     79                     80                     81
                      A                      A                      A
 Frequencies --   3203.0345              3219.8414              3230.8276
 Red. masses --      1.0888                 1.0873                 1.0951
 Frc consts  --      6.5814                 6.6418                 6.7352
 IR Inten    --      8.1492                 1.4244                 9.2313

                     82                     83                     84
                      A                      A                      A
 Frequencies --   3236.4549              3513.0342              3612.8650
 Red. masses --      1.0968                 1.0509                 1.0935
 Frc consts  --      6.7687                 7.6414                 8.4097
 IR Inten    --      3.6453                 6.5322                10.3225

 - Thermochemistry -
 -------------------
 Temperature   298.150 Kelvin.  Pressure   1.00000 Atm.
 Atom     1 has atomic number  6 and mass  12.00000

 Molecular mass:   218.11676 amu.
 Principal axes and moments of inertia in atomic units:
                           1         2         3
     Eigenvalues --  1595.721726515.885306928.99504
           X            0.99987  -0.01366  -0.00811
           Y            0.01371   0.99989   0.00632
           Z            0.00802  -0.00643   0.99995
 This molecule is an asymmetric top.
 Rotational symmetry number  1.
 Warning -- assumption of classical behavior for rotation
           may cause significant error
 Rotational temperatures (Kelvin)      0.05428     0.01329     0.01250
 Rotational constants (GHZ):           1.13099     0.27698     0.26046
 Zero-point vibrational energy     647866.2 (Joules/Mol)
                                  154.84374 (Kcal/Mol)
 Warning -- explicit consideration of  22 degrees of freedom as
           vibrations may cause significant error
 Vibrational temperatures:     25.41    28.80    71.29   136.30   145.36
          (Kelvin)            177.19   197.95   236.32   291.16   298.27
                              341.69   377.69   412.31   448.10   496.24
                              516.64   604.27   660.63   669.30   746.33
                              796.08   875.69   907.78   924.07   955.49
                             1013.64  1028.68  1088.55  1147.43  1151.11
                             1158.23  1199.15  1234.59  1247.43  1375.71
                             1392.53  1421.53  1470.95  1472.72  1535.13
                             1551.25  1600.52  1638.17  1670.81  1715.40
                             1764.26  1787.86  1809.65  1839.60  1846.29
                             1917.23  1980.74  2044.72  2063.48  2085.36
                             2104.35  2114.41  2166.94  2174.17  2178.31
                             2185.88  2195.85  2203.62  2214.95  2271.79
                             2309.75  2344.83  2431.50  2440.52  2511.13
                             4337.12  4380.87  4385.08  4442.70  4454.18
                             4493.40  4531.82  4575.86  4608.45  4632.63
                             4648.44  4656.54  5054.47  5198.11

 Zero-point correction=                           0.246759 (Hartree/Particle)
 Thermal correction to Energy=                    0.262316
 Thermal correction to Enthalpy=                  0.263260
 Thermal correction to Gibbs Free Energy=         0.201710
 Sum of electronic and zero-point Energies=           -721.613050
 Sum of electronic and thermal Energies=              -721.597493
 Sum of electronic and thermal Enthalpies=            -721.596549
 Sum of electronic and thermal Free Energies=         -721.658099

                     E (Thermal)             CV                S
                      KCal/Mol        Cal/Mol-Kelvin    Cal/Mol-Kelvin
 Total                  164.605             57.291            129.542
 Electronic               0.000              0.000              0.000
 Translational            0.889              2.981             42.043
 Rotational               0.889              2.981             32.643
 Vibrational            162.828             51.330             54.856
 Vibration     1          0.593              1.986              6.881
 Vibration     2          0.593              1.986              6.633
 Vibration     3          0.595              1.978              4.835
 Vibration     4          0.603              1.953              3.560
 Vibration     5          0.604              1.948              3.434
 Vibration     6          0.610              1.930              3.050
 Vibration     7          0.614              1.916              2.837
 Vibration     8          0.623              1.886              2.500
 Vibration     9          0.639              1.837              2.112
 Vibration    10          0.641              1.829              2.067
 Vibration    11          0.656              1.783              1.822
 Vibration    12          0.670              1.741              1.645
 Vibration    13          0.684              1.699              1.494
 Vibration    14          0.700              1.652              1.355
 Vibration    15          0.723              1.586              1.189
 Vibration    16          0.734              1.557              1.126
 Vibration    17          0.783              1.427              0.892
 Vibration    18          0.817              1.341              0.769
 Vibration    19          0.823              1.327              0.751
 Vibration    20          0.874              1.209              0.613
 Vibration    21          0.909              1.132              0.537
 Vibration    22          0.968              1.014              0.435

                           ! Non-Optimized Parameters !
 Normal termination of Gaussian 16 at Thu Dec 10 21:43:59 2020.

 ----------------------------------------------------------------------
 # B3LYP/6-311++G(d,p) empiricaldispersion=gd3bj scf=xqc pop=npa geom=c
 heck
 ----------------------------------------------------------------------

 --------------------------------------
 CID_62881194_JID_6197_Energie_neutraal
 --------------------------------------
 Structure from the checkpoint file:  "JID_6197.chk"
 Charge =  0 Multiplicity = 1

 SCF Done:  E(RB3LYP) =  -722.063948873     A.U. after   18 cycles
 Normal termination of Gaussian 16 at Thu Dec 10 21:49:39 2020.

 ----------------------------------------------------------------------
 # B3LYP/6-311++G(d,p) empiricaldispersion=gd3bj scf=xqc pop=npa geom=c
 heck
 ----------------------------------------------------------------------

 ------------------------------------
 CID_62881194_JID_6197_Energie_kation
 ------------------------------------
 Structure from the checkpoint file:  "JID_6197.chk"
 Charge =  1 Multiplicity = 2

 SCF Done:  E(UB3LYP) =  -721.779589172     A.U. after   33 cycles
 SCF Done:  E(UB3LYP) =  -721.779716599     a.u. after    4 cycles
 Normal termination of Gaussian 16 at Thu Dec 10 22:45:09 2020.
 Gaussian 16:  ES64L-G16RevA.03 25-Dec-2016

 ----------------------------------------------------------------------
 # B3LYP/6-311++G(d,p) empiricaldispersion=gd3bj scf=xqc pop=npa geom=c
 heck
 ----------------------------------------------------------------------

 -----------------------------------
 CID_62881194_JID_6197_Energie_anion
 -----------------------------------
 Structure from the checkpoint file:  "JID_6197.chk"
 Charge = -1 Multiplicity = 2

                         Standard orientation:
 ---------------------------------------------------------------------
 Center     Atomic      Atomic             Coordinates (Angstroms)
 Number     Number       Type             X           Y           Z
 ---------------------------------------------------------------------
      1          6           0        0.883595    2.638046   -0.442931
      2          6           0        1.607171    1.347593   -0.225618
      3          7           0        2.750559    1.085572   -0.848389
      4          7           0        3.094528   -0.175427   -0.445386
      5          6           0        2.201334   -0.693325    0.437475
      6          6           0        1.210468    0.268381    0.613655
      7          6           0        0.000095    0.187178    1.473964
      8          7           0       -1.262537    0.041350    0.715476
      9          6           0       -1.345882   -0.824269   -0.349237
     10          6           0       -2.515606   -1.063805   -0.993773
     11          6           0       -3.769149   -0.420483   -0.593874
     12          8           0       -4.849591   -0.619747   -1.158318
     13          6           0       -3.606265    0.489539    0.542370
     14          6           0       -2.403587    0.677316    1.141589
     15          7           0        2.338225   -1.997222    0.921431
     16          6           0        4.302710   -0.797580   -0.938045
     17          1           0       -0.102781    2.468655   -0.890916
     18          1           0        1.463304    3.281392   -1.109163
     19          1           0        0.723982    3.173245    0.501884
     20          1           0        0.086554   -0.646656    2.186018
     21          1           0       -0.111510    1.097625    2.071629
     22          1           0       -0.406859   -1.279245   -0.642703
     23          1           0       -2.538748   -1.745277   -1.837018
     24          1           0       -4.479825    1.023828    0.899122
     25          1           0       -2.268884    1.344883    1.986981
     26          1           0        3.214925   -2.166213    1.406879
     27          1           0        1.565165   -2.266734    1.519806
     28          1           0        4.538625   -0.346402   -1.902169
     29          1           0        5.148570   -0.642415   -0.256366
     30          1           0        4.129488   -1.870154   -1.062804
 ---------------------------------------------------------------------

 SCF Done:  E(UB3LYP) =  -722.068008233     A.U. after   33 cycles
 SCF Done:  E(UB3LYP) =  -722.068008233     a.u. after    1 cycles

 The electronic state is 2-A.
 Alpha  occ. eigenvalues --  -18.97151 -14.28671 -14.28669 -14.22684 -14.22443
 Alpha  occ. eigenvalues --  -10.14814 -10.13856 -10.13614 -10.13380 -10.12834
 Alpha  occ. eigenvalues --  -10.11646 -10.10389 -10.08408 -10.08081 -10.07679
 Alpha  occ. eigenvalues --  -10.07226  -0.95330  -0.90933  -0.89839  -0.82056
 Alpha  occ. eigenvalues --   -0.75642  -0.71802  -0.69031  -0.67557  -0.65371
 Alpha  occ. eigenvalues --   -0.62290  -0.57225  -0.55623  -0.51909  -0.49530
 Alpha  occ. eigenvalues --   -0.47333  -0.44221  -0.42727  -0.41617  -0.40245
 Alpha  occ. eigenvalues --   -0.38587  -0.38276  -0.37265  -0.36564  -0.35742
 Alpha  occ. eigenvalues --   -0.34271  -0.33502  -0.33173  -0.31996  -0.31039
 Alpha  occ. eigenvalues --   -0.29758  -0.29565  -0.29168  -0.28800  -0.28087
 Alpha  occ. eigenvalues --   -0.25877  -0.22371  -0.19737  -0.19033  -0.14960
 Alpha  occ. eigenvalues --   -0.13652  -0.12960  -0.12352   0.03345
 Alpha virt. eigenvalues --    0.06189   0.06218   0.06938   0.07602   0.08357
 Alpha virt. eigenvalues --    0.08474   0.09280   0.09872   0.10022   0.10776
 Alpha virt. eigenvalues --    0.11411   0.11569   0.12048   0.12174   0.12811

  Beta  occ. eigenvalues --  -18.97110 -14.28671 -14.28649 -14.22677 -14.22320
  Beta  occ. eigenvalues --  -10.14810 -10.13829 -10.13592 -10.13329 -10.12790
  Beta  occ. eigenvalues --  -10.11607 -10.10389 -10.08402 -10.08091 -10.07681
  Beta  occ. eigenvalues --  -10.07227  -0.95318  -0.90869  -0.89777  -0.81895
  Beta  occ. eigenvalues --   -0.75619  -0.71748  -0.68979  -0.67497  -0.65345
  Beta  occ. eigenvalues --   -0.62228  -0.57173  -0.55601  -0.51830  -0.49491
  Beta  occ. eigenvalues --   -0.47250  -0.44162  -0.42631  -0.41572  -0.40123
  Beta  occ. eigenvalues --   -0.38562  -0.38230  -0.37198  -0.36487  -0.35716
  Beta  occ. eigenvalues --   -0.34239  -0.33476  -0.33129  -0.31969  -0.30963
  Beta  occ. eigenvalues --   -0.29732  -0.29510  -0.29126  -0.28770  -0.28061
  Beta  occ. eigenvalues --   -0.25710  -0.22289  -0.19697  -0.18931  -0.14952
  Beta  occ. eigenvalues --   -0.13617  -0.12831  -0.12282
  Beta virt. eigenvalues --    0.06080   0.06576   0.06873   0.07114   0.08225
  Beta virt. eigenvalues --    0.08577   0.08673   0.09748   0.10077   0.10604
  Beta virt. eigenvalues --    0.11214   0.11418   0.11687   0.12244   0.12444

 Mulliken charges and spin densities:
               1          2
     1  C   -0.335307  -0.344097
     2  C   -0.902311   0.605893
     3  N   -0.246833   0.100997
     4  N    0.081285   0.005525
     5  C    0.523357  -1.058053
     6  C   -0.479223   1.966350
     7  C    2.077023  -3.072798
     8  N    0.216401   0.124650
     9  C   -0.305386  -0.218385
    10  C    0.168259   0.335958
    11  C   -0.765026  -0.091566
    12  O   -0.404642   0.014716
    13  C    0.331017   0.012196
    14  C   -0.175241  -0.151514
    15  N   -0.338759   0.017953
    16  C    0.600518  -0.964040
    17  H    0.162425  -0.000953
    18  H    0.125651   0.029280
    19  H    0.102202   0.041914
    20  H   -0.679274   0.915664
    21  H   -0.023997   0.186796
    22  H    0.175279   0.034679
    23  H    0.161228   0.036705
    24  H    0.176747   0.010264
    25  H   -0.027235   0.157969
    26  H   -0.609872   0.901292
    27  H   -0.312449   0.585835
    28  H    0.091817   0.062764
    29  H   -0.286066   0.469168
    30  H   -0.101588   0.284839
 Sum of Mulliken charges =  -1.00000   1.00000

 Dipole moment (field-independent basis, Debye):
    X=             -0.6441    Y=              6.0865    Z=             -2.6021  Tot=              6.6506
 Quadrupole moment (field-independent basis, Debye-Ang):
   XX=           -191.7289   YY=           -130.2413   ZZ=           -131.7431
   XY=              3.7544   XZ=            -22.3084   YZ=             13.8688

 Summary of Natural Population Analysis:

                                       Natural Population
                Natural  -----------------------------------------------
    Atom  No    Charge         Core      Valence    Rydberg      Total
 -----------------------------------------------------------------------
      C    1   -0.29959      0.99963     2.29565    0.00431     3.29959
      C    2    0.08807      0.99955     1.89807    0.01431     2.91193
      N    3   -0.16881      0.99970     2.65846    0.01066     3.66881
      N    4   -0.12050      0.99961     2.60865    0.01224     3.62050
      C    5    0.19635      0.99943     1.78955    0.01466     2.80365
      C    6   -0.11791      0.99941     2.10630    0.01220     3.11791
      C    7   -0.08402      0.99957     2.07210    0.01235     3.08402
      N    8   -0.20740      0.99964     2.69741    0.01035     3.70740
      C    9    0.03629      0.99954     1.95320    0.01097     2.96371
      C   10   -0.15688      0.99954     2.14630    0.01104     3.15688
      C   11    0.21907      0.99959     1.76070    0.02065     2.78093
      O   12   -0.32437      0.99989     3.31813    0.00636     4.32437
      C   13   -0.16139      0.99954     2.15069    0.01116     3.16139
      C   14    0.03124      0.99954     1.95810    0.01111     2.96876
      N   15   -0.40588      0.99972     2.89666    0.00950     3.90588
      C   16   -0.17663      0.99964     2.16890    0.00809     3.17663
      H   17    0.10550      0.00000     0.39351    0.00099     0.39450
      H   18    0.10831      0.00000     0.39082    0.00088     0.39169
      H   19    0.10109      0.00000     0.39791    0.00099     0.39891
      H   20    0.10987      0.00000     0.38629    0.00385     0.39013
      H   21    0.10249      0.00000     0.39604    0.00147     0.39751
      H   22    0.10813      0.00000     0.39040    0.00147     0.39187
      H   23    0.10719      0.00000     0.39185    0.00096     0.39281
      H   24    0.10614      0.00000     0.39282    0.00103     0.39386
      H   25    0.09830      0.00000     0.40061    0.00109     0.40170
      H   26    0.19883      0.00000     0.28092    0.02025     0.30117
      H   27    0.19732      0.00000     0.29274    0.00994     0.30268
      H   28    0.10514      0.00000     0.39371    0.00115     0.39486
      H   29    0.09792      0.00000     0.40067    0.00141     0.40208
      H   30    0.10615      0.00000     0.39271    0.00114     0.39385
 =======================================================================
   * Total *   -0.00000     15.99353    41.77989    0.22658    58.00000

 Normal termination of Gaussian 16 at Thu Dec 10 23:00:17 2020.
