 Gaussian 16, Revision A.03,

 -----------------------------------------------------------
 # opt freq B3LYP/6-31G(d) empiricaldispersion=gd3bj scf=xqc
 -----------------------------------------------------------

 -------------------------------
 CID_131210933_JID_2885_neutraal
 -------------------------------
 Symbolic Z-matrix:
 Charge =  0 Multiplicity = 1

 SCF Done:  E(RB3LYP) =  -532.257131723     A.U. after   15 cycles
 SCF Done:  E(RB3LYP) =  -532.261973402     A.U. after   12 cycles
 SCF Done:  E(RB3LYP) =  -532.263417918     A.U. after   12 cycles
 SCF Done:  E(RB3LYP) =  -532.263985306     A.U. after   12 cycles
 SCF Done:  E(RB3LYP) =  -532.264167945     A.U. after   11 cycles
 SCF Done:  E(RB3LYP) =  -532.264232315     A.U. after   11 cycles
 SCF Done:  E(RB3LYP) =  -532.264292384     A.U. after   10 cycles
 SCF Done:  E(RB3LYP) =  -532.264347109     A.U. after   11 cycles
 SCF Done:  E(RB3LYP) =  -532.264365763     A.U. after   10 cycles
 SCF Done:  E(RB3LYP) =  -532.264379197     A.U. after   11 cycles
 SCF Done:  E(RB3LYP) =  -532.264413577     A.U. after    8 cycles
 SCF Done:  E(RB3LYP) =  -532.264413679     A.U. after    8 cycles
 SCF Done:  E(RB3LYP) =  -532.264413764     A.U. after    8 cycles
 SCF Done:  E(RB3LYP) =  -532.264413769     A.U. after    7 cycles
 SCF Done:  E(RB3LYP) =  -532.264413765     A.U. after    7 cycles
 Optimization completed.
    -- Stationary point found.

 1\1\GINC-NODE106\FOpt\RB3LYP\6-31G(d)\C8H14N4\VSC10255\09-Dec-2020\0\\
 # opt freq B3LYP/6-31G(d) empiricaldispersion=gd3bj scf=xqc\\CID_13121
 0933_JID_2885_neutraal\\0,1\C,1.4692132363,0.0903646862,0.1565452537\C
 ,0.6570178992,1.2230683948,0.7327869296\C,-0.2424585313,1.8844112414,-
 0.0025065727\C,0.8896200113,1.5836028535,2.1877374001\C,-0.0628057599,
 0.8684024614,3.1678245411\N,0.1086387661,-0.5898699016,3.2915935572\C,
 1.3240394626,-1.0416001639,3.8147824084\C,2.4348891273,-1.6783676754,3
 .288647619\N,3.3104932588,-1.9434740942,4.2974212063\N,2.8213250343,-1

 Normal termination of Gaussian 16 at Wed Dec  9 18:31:30 2020.

 --------------------------------------------------------------------
 #N Geom=AllCheck Guess=TCheck SCRF=Check GenChk RB3LYP/6-31G(d) Freq
 --------------------------------------------------------------------

 Structure from the checkpoint file:  "JID_2885.chk"
 -------------------------------
 CID_131210933_JID_2885_neutraal
 -------------------------------
 Charge =  0 Multiplicity = 1

 SCF Done:  E(RB3LYP) =  -532.264413765     A.U. after    1 cycles

  Exact polarizability: 134.597  -5.493 111.531  12.881   2.008  70.145
 Approx polarizability: 186.613 -14.430 173.573  28.067  -0.733 111.582

                      1                      2                      3
                      A                      A                      A
 Frequencies --     16.0823                33.1270                69.6572
 Red. masses --      3.1071                 3.3383                 4.1459
 Frc consts  --      0.0005                 0.0022                 0.0119
 IR Inten    --      1.3940                 0.7223                 1.1893

                      4                      5                      6
                      A                      A                      A
 Frequencies --    101.4711               142.7363               154.5820
 Red. masses --      3.7486                 3.2632                 1.0949
 Frc consts  --      0.0227                 0.0392                 0.0154
 IR Inten    --      1.7665                 1.9211                 0.1277

                      7                      8                      9
                      A                      A                      A
 Frequencies --    193.0019               201.5688               249.0605
 Red. masses --      1.2835                 2.1753                 3.0987
 Frc consts  --      0.0282                 0.0521                 0.1133
 IR Inten    --      1.4961                 3.6664                 0.1463

                     10                     11                     12
                      A                      A                      A
 Frequencies --    286.5251               331.9269               388.3232
 Red. masses --      3.2381                 2.5535                 2.2080
 Frc consts  --      0.1566                 0.1658                 0.1962
 IR Inten    --      2.3646                10.0777                 2.4851

                     13                     14                     15
                      A                      A                      A
 Frequencies --    434.7831               447.6122               464.8710
 Red. masses --      2.1612                 2.9939                 2.8390
 Frc consts  --      0.2407                 0.3534                 0.3615
 IR Inten    --      1.7660                 1.1830                 7.2208

                     16                     17                     18
                      A                      A                      A
 Frequencies --    570.4108               642.0119               698.0655
 Red. masses --      2.0768                 3.7491                 4.4671
 Frc consts  --      0.3981                 0.9105                 1.2825
 IR Inten    --      1.1876                46.9144                13.2573

                     19                     20                     21
                      A                      A                      A
 Frequencies --    705.5469               727.1491               738.4990
 Red. masses --      4.0450                 1.6949                 1.5583
 Frc consts  --      1.1864                 0.5280                 0.5007
 IR Inten    --     10.0522                 2.5024                37.5715

                     22                     23                     24
                      A                      A                      A
 Frequencies --    749.7401               797.5079               812.9837
 Red. masses --      2.9545                 1.3372                 2.4336
 Frc consts  --      0.9785                 0.5011                 0.9477
 IR Inten    --      9.3396                38.7466                 6.3970

                     25                     26                     27
                      A                      A                      A
 Frequencies --    882.1505               926.0424               943.4370
 Red. masses --      2.0640                 1.3608                 2.2054
 Frc consts  --      0.9464                 0.6876                 1.1565
 IR Inten    --      5.2196                40.9296                 3.3658

                     28                     29                     30
                      A                      A                      A
 Frequencies --    982.5880              1007.3826              1026.6146
 Red. masses --      3.6551                 1.4754                 2.0154
 Frc consts  --      2.0792                 0.8821                 1.2515
 IR Inten    --      5.5766                 2.7184                 8.0162

                     31                     32                     33
                      A                      A                      A
 Frequencies --   1038.5828              1075.0354              1086.8209
 Red. masses --      2.3417                 1.6809                 1.8421
 Frc consts  --      1.4882                 1.1446                 1.2820
 IR Inten    --     19.3193                 5.3301                10.5888

                     34                     35                     36
                      A                      A                      A
 Frequencies --   1115.9675              1149.4019              1162.0860
 Red. masses --      2.7322                 1.9541                 1.3164
 Frc consts  --      2.0047                 1.5210                 1.0474
 IR Inten    --     26.7544                 2.8526                 4.4429

                     37                     38                     39
                      A                      A                      A
 Frequencies --   1208.7021              1243.5924              1276.5304
 Red. masses --      1.6398                 1.9555                 3.0524
 Frc consts  --      1.4115                 1.7819                 2.9306
 IR Inten    --      9.1129                 6.5076                27.1989

                     40                     41                     42
                      A                      A                      A
 Frequencies --   1298.8073              1313.3573              1327.6726
 Red. masses --      1.9188                 1.7780                 3.6658
 Frc consts  --      1.9071                 1.8070                 3.8072
 IR Inten    --      2.6821                 4.6647                32.3301

                     43                     44                     45
                      A                      A                      A
 Frequencies --   1350.4278              1388.0975              1406.6041
 Red. masses --      2.8894                 1.4491                 1.3465
 Frc consts  --      3.1046                 1.6451                 1.5697
 IR Inten    --     31.8077                 5.8722                10.9140

                     46                     47                     48
                      A                      A                      A
 Frequencies --   1442.3990              1448.9869              1464.6291
 Red. masses --      1.2386                 2.0444                 1.2333
 Frc consts  --      1.5183                 2.5290                 1.5588
 IR Inten    --      6.4471                17.1516                12.0019

                     49                     50                     51
                      A                      A                      A
 Frequencies --   1472.3696              1506.0698              1508.5065
 Red. masses --      1.2019                 1.0812                 1.0769
 Frc consts  --      1.5351                 1.4449                 1.4438
 IR Inten    --      0.7435                 1.7164                13.7623

                     52                     53                     54
                      A                      A                      A
 Frequencies --   1512.4091              1518.2158              1525.9457
 Red. masses --      1.0801                 1.0748                 1.0855
 Frc consts  --      1.4557                 1.4596                 1.4892
 IR Inten    --      7.7384                 6.2981                14.1277

                     55                     56                     57
                      A                      A                      A
 Frequencies --   1532.1584              1551.0478              1614.2991
 Red. masses --      1.1224                 1.7972                 5.4672
 Frc consts  --      1.5525                 2.5474                 8.3943
 IR Inten    --      6.5599                16.1394               106.6184

                     58                     59                     60
                      A                      A                      A
 Frequencies --   1735.3200              3040.3194              3048.1983
 Red. masses --      4.8277                 1.0389                 1.0584
 Frc consts  --      8.5654                 5.6582                 5.7940
 IR Inten    --     11.8553                24.1077                14.4547

                     61                     62                     63
                      A                      A                      A
 Frequencies --   3065.0491              3070.4190              3087.1245
 Red. masses --      1.0397                 1.0620                 1.0986
 Frc consts  --      5.7550                 5.8991                 6.1685
 IR Inten    --     17.8423                32.9444                26.7315

                     64                     65                     66
                      A                      A                      A
 Frequencies --   3091.6207              3118.4243              3130.7953
 Red. masses --      1.1001                 1.1067                 1.1009
 Frc consts  --      6.1953                 6.3409                 6.3576
 IR Inten    --     29.3519                31.3928                31.1811

                     67                     68                     69
                      A                      A                      A
 Frequencies --   3138.1265              3156.2271              3182.5850
 Red. masses --      1.0987                 1.0603                 1.1046
 Frc consts  --      6.3746                 6.2231                 6.5921
 IR Inten    --     11.5294                 9.0997                 2.7914

                     70                     71                     72
                      A                      A                      A
 Frequencies --   3233.0444              3283.7990              3559.4812
 Red. masses --      1.1159                 1.0974                 1.0743
 Frc consts  --      6.8719                 6.9724                 8.0196
 IR Inten    --     18.2682                 5.2547                 6.3965

 - Thermochemistry -
 -------------------
 Temperature   298.150 Kelvin.  Pressure   1.00000 Atm.
 Atom     1 has atomic number  6 and mass  12.00000

 Molecular mass:   166.12185 amu.
 Principal axes and moments of inertia in atomic units:
                           1         2         3
     Eigenvalues --   965.122983303.830943947.14962
           X            0.99962   0.02739  -0.00005
           Y           -0.02739   0.99938   0.02204
           Z            0.00065  -0.02203   0.99976
 This molecule is an asymmetric top.
 Rotational symmetry number  1.
 Warning -- assumption of classical behavior for rotation
           may cause significant error
 Rotational temperatures (Kelvin)      0.08974     0.02622     0.02194
 Rotational constants (GHZ):           1.86996     0.54626     0.45723
 Zero-point vibrational energy     587394.6 (Joules/Mol)
                                  140.39069 (Kcal/Mol)
 Warning -- explicit consideration of  16 degrees of freedom as
           vibrations may cause significant error
 Vibrational temperatures:     23.14    47.66   100.22   145.99   205.37
          (Kelvin)            222.41   277.69   290.01   358.34   412.25
                              477.57   558.71   625.56   644.01   668.85
                              820.69   923.71  1004.36  1015.12  1046.21
                             1062.54  1078.71  1147.44  1169.70  1269.22
                             1332.37  1357.40  1413.72  1449.40  1477.07
                             1494.29  1546.74  1563.69  1605.63  1653.73
                             1671.98  1739.05  1789.25  1836.64  1868.69
                             1889.63  1910.22  1942.96  1997.16  2023.79
                             2075.29  2084.77  2107.27  2118.41  2166.90
                             2170.40  2176.02  2184.37  2195.50  2204.43
                             2231.61  2322.62  2496.74  4374.34  4385.68
                             4409.92  4417.65  4441.68  4448.15  4486.72
                             4504.52  4515.06  4541.11  4579.03  4651.63
                             4724.65  5121.30

 Zero-point correction=                           0.223727 (Hartree/Particle)
 Thermal correction to Energy=                    0.236264
 Thermal correction to Enthalpy=                  0.237208
 Thermal correction to Gibbs Free Energy=         0.182979
 Sum of electronic and zero-point Energies=           -532.040687
 Sum of electronic and thermal Energies=              -532.028150
 Sum of electronic and thermal Enthalpies=            -532.027206
 Sum of electronic and thermal Free Energies=         -532.081434

                     E (Thermal)             CV                S
                      KCal/Mol        Cal/Mol-Kelvin    Cal/Mol-Kelvin
 Total                  148.258             45.685            114.133
 Electronic               0.000              0.000              0.000
 Translational            0.889              2.981             41.231
 Rotational               0.889              2.981             30.910
 Vibrational            146.480             39.724             41.992
 Vibration     1          0.593              1.986              7.067
 Vibration     2          0.594              1.983              5.633
 Vibration     3          0.598              1.969              4.163
 Vibration     4          0.604              1.948              3.426
 Vibration     5          0.616              1.910              2.767
 Vibration     6          0.620              1.898              2.615
 Vibration     7          0.635              1.850              2.199
 Vibration     8          0.638              1.838              2.119
 Vibration     9          0.662              1.764              1.737
 Vibration    10          0.684              1.699              1.494
 Vibration    11          0.714              1.612              1.251
 Vibration    12          0.756              1.495              1.007
 Vibration    13          0.795              1.394              0.843
 Vibration    14          0.807              1.366              0.803
 Vibration    15          0.822              1.328              0.752
 Vibration    16          0.927              1.095              0.503

                           ! Non-Optimized Parameters !

 1\1\GINC-NODE106\Freq\RB3LYP\6-31G(d)\C8H14N4\VSC10255\09-Dec-2020\0\\
 #N Geom=AllCheck Guess=TCheck SCRF=Check GenChk RB3LYP/6-31G(d) Freq\\
 CID_131210933_JID_2885_neutraal\\0,1\C,1.4692132363,0.0903646862,0.156
 5452537\C,0.6570178992,1.2230683948,0.7327869296\C,-0.2424585313,1.884
 4112414,-0.0025065727\C,0.8896200113,1.5836028535,2.1877374001\C,-0.06
 28057599,0.8684024614,3.1678245411\N,0.1086387661,-0.5898699016,3.2915
 935572\C,1.3240394626,-1.0416001639,3.8147824084\C,2.4348891273,-1.678
 3676754,3.288647619\N,3.3104932588,-1.9434740942,4.2974212063\N,2.8213

 Normal termination of Gaussian 16 at Wed Dec  9 18:37:36 2020.

 ----------------------------------------------------------------------
 # B3LYP/6-311++G(d,p) empiricaldispersion=gd3bj scf=xqc pop=npa geom=c
 heck
 ----------------------------------------------------------------------

 ---------------------------------------
 CID_131210933_JID_2885_Energie_neutraal
 ---------------------------------------
 Structure from the checkpoint file:  "JID_2885.chk"
 Charge =  0 Multiplicity = 1

 SCF Done:  E(RB3LYP) =  -532.412831888     A.U. after   15 cycles
 Normal termination of Gaussian 16 at Wed Dec  9 18:40:21 2020.

 ----------------------------------------------------------------------
 # B3LYP/6-311++G(d,p) empiricaldispersion=gd3bj scf=xqc pop=npa geom=c
 heck
 ----------------------------------------------------------------------

 -------------------------------------
 CID_131210933_JID_2885_Energie_kation
 -------------------------------------
 Structure from the checkpoint file:  "JID_2885.chk"
 Charge =  1 Multiplicity = 2

 SCF Done:  E(UB3LYP) =  -532.111686923     A.U. after   24 cycles
 Normal termination of Gaussian 16 at Wed Dec  9 18:46:35 2020.
 Gaussian 16:  ES64L-G16RevA.03 25-Dec-2016

 ------------------------------------
 CID_131210933_JID_2885_Energie_anion
 ------------------------------------
 Structure from the checkpoint file:  "JID_2885.chk"
 Charge = -1 Multiplicity = 2

                         Standard orientation:
 ---------------------------------------------------------------------
 Center     Atomic      Atomic             Coordinates (Angstroms)
 Number     Number       Type             X           Y           Z
 ---------------------------------------------------------------------
      1          6           0        2.513819    1.585422    0.114494
      2          6           0        2.783752    0.146643   -0.248529
      3          6           0        3.965936   -0.427331   -0.003410
      4          6           0        1.657996   -0.636115   -0.897322
      5          6           0        0.784873   -1.419718    0.104087
      6          7           0       -0.035519   -0.609971    1.021985
      7          6           0       -1.035671    0.179746    0.446634
      8          6           0       -1.208059    1.538014    0.242505
      9          7           0       -2.432047    1.748329   -0.316253
     10          7           0       -3.029531    0.601004   -0.489534
     11          7           0       -2.197791   -0.364332   -0.016428
     12          6           0       -2.606597   -1.752631   -0.009774
     13          1           0        3.405649    2.072703    0.519267
     14          1           0        1.714639    1.676181    0.861141
     15          1           0        2.176778    2.152899   -0.762398
     16          1           0        4.168693   -1.458870   -0.282364
     17          1           0        4.776105    0.112585    0.479639
     18          1           0        1.011292    0.032112   -1.479751
     19          1           0        2.079492   -1.366386   -1.598738
     20          1           0        0.108905   -2.078590   -0.450784
     21          1           0        1.421960   -2.058831    0.723746
     22          1           0        0.548849   -0.055994    1.638835
     23          1           0       -0.538156    2.353353    0.471193
     24          1           0       -3.696671   -1.777327    0.004725
     25          1           0       -2.246075   -2.279712   -0.899752
     26          1           0       -2.203544   -2.233521    0.884745
 ---------------------------------------------------------------------

 SCF Done:  E(UB3LYP) =  -532.402627984     A.U. after   33 cycles
 SCF Done:  E(UB3LYP) =  -532.402627984     a.u. after    1 cycles

 The electronic state is 2-A.
 Alpha  occ. eigenvalues --  -14.29903 -14.26412 -14.23464 -14.23347 -10.14901
 Alpha  occ. eigenvalues --  -10.11722 -10.10723 -10.09230 -10.08634 -10.07359
 Alpha  occ. eigenvalues --  -10.07302 -10.05859  -0.99606  -0.85068  -0.80771
 Alpha  occ. eigenvalues --   -0.72022  -0.69267  -0.64084  -0.63139  -0.59207
 Alpha  occ. eigenvalues --   -0.54179  -0.53619  -0.48251  -0.44738  -0.42684
 Alpha  occ. eigenvalues --   -0.40736  -0.39366  -0.37353  -0.36641  -0.35523
 Alpha  occ. eigenvalues --   -0.33938  -0.33408  -0.32142  -0.31566  -0.30757
 Alpha  occ. eigenvalues --   -0.29664  -0.27501  -0.25822  -0.23936  -0.23554
 Alpha  occ. eigenvalues --   -0.21126  -0.18531  -0.17027  -0.15891  -0.13068
 Alpha  occ. eigenvalues --    0.04226
 Alpha virt. eigenvalues --    0.06312   0.07287   0.08010   0.08566   0.08731
 Alpha virt. eigenvalues --    0.09735   0.10018   0.10283   0.10903   0.11461
 Alpha virt. eigenvalues --    0.11886   0.12279   0.13356   0.13881   0.14337

  Beta  occ. eigenvalues --  -14.29894 -14.26402 -14.23447 -14.23346 -10.14897
  Beta  occ. eigenvalues --  -10.11671 -10.10686 -10.09225 -10.08631 -10.07326
  Beta  occ. eigenvalues --  -10.07278 -10.05809  -0.99591  -0.85037  -0.80746
  Beta  occ. eigenvalues --   -0.71982  -0.69245  -0.64028  -0.63080  -0.59132
  Beta  occ. eigenvalues --   -0.54100  -0.53602  -0.48198  -0.44684  -0.42610
  Beta  occ. eigenvalues --   -0.40686  -0.39335  -0.37300  -0.36603  -0.35472
  Beta  occ. eigenvalues --   -0.33887  -0.33352  -0.32103  -0.31526  -0.30710
  Beta  occ. eigenvalues --   -0.29614  -0.27459  -0.25785  -0.23898  -0.23531
  Beta  occ. eigenvalues --   -0.21094  -0.18501  -0.17003  -0.15796  -0.13031
  Beta virt. eigenvalues --    0.06628   0.07405   0.07921   0.08466   0.08879
  Beta virt. eigenvalues --    0.09267   0.10175   0.10641   0.10760   0.11146
  Beta virt. eigenvalues --    0.11757   0.12486   0.12682   0.13661   0.14066

 Mulliken charges and spin densities:
               1          2
     1  C    0.567919  -1.332631
     2  C   -1.880373   2.723683
     3  C    2.220894  -2.901864
     4  C   -0.181258  -0.077890
     5  C    0.581314  -1.059574
     6  N   -0.214169   0.183721
     7  C   -0.832483   0.114482
     8  C    0.798699  -0.707807
     9  N   -0.215723   0.046279
    10  N    0.045397  -0.083797
    11  N   -0.114835   0.281297
    12  C    0.946354  -1.274279
    13  H   -0.345085   0.492495
    14  H   -0.169828   0.279384
    15  H   -0.022150   0.188354
    16  H   -0.071444   0.199790
    17  H   -0.234898   0.354264
    18  H    0.148301  -0.001793
    19  H   -0.884945   1.103926
    20  H    0.138073  -0.002492
    21  H   -0.468703   0.664281
    22  H   -0.005084   0.274160
    23  H    0.135379   0.049164
    24  H   -0.011755   0.172971
    25  H   -0.542310   0.746674
    26  H   -0.387287   0.567200
 Sum of Mulliken charges =  -1.00000   1.00000

 Dipole moment (field-independent basis, Debye):
    X=             -1.3717    Y=              2.7346    Z=              1.6993  Tot=              3.4996
 Quadrupole moment (field-independent basis, Debye-Ang):
   XX=           -145.0686   YY=           -123.7017   ZZ=           -105.4615
   XY=              3.4194   XZ=             -1.7898   YZ=             -2.6116

 Summary of Natural Population Analysis:

                                       Natural Population
                Natural  -----------------------------------------------
    Atom  No    Charge         Core      Valence    Rydberg      Total
 -----------------------------------------------------------------------
      C    1   -0.29718      0.99961     2.29104    0.00653     3.29718
      C    2   -0.00779      0.99953     1.99569    0.01257     3.00779
      C    3   -0.19004      0.99948     2.18283    0.00773     3.19004
      C    4   -0.21611      0.99958     2.20623    0.01031     3.21611
      C    5   -0.07927      0.99959     2.06816    0.01152     3.07927
      N    6   -0.33124      0.99971     2.81992    0.01161     3.83124
      C    7    0.16242      0.99948     1.82427    0.01382     2.83758
      C    8   -0.06506      0.99953     2.05299    0.01253     3.06506
      N    9   -0.14000      0.99976     2.62433    0.01591     3.64000
      N   10   -0.05265      0.99978     2.53739    0.01548     3.55265
      N   11   -0.11274      0.99962     2.59978    0.01333     3.61274
      C   12   -0.17971      0.99963     2.17170    0.00838     3.17971
      H   13    0.10359      0.00000     0.39524    0.00117     0.39641
      H   14    0.09570      0.00000     0.40259    0.00170     0.40430
      H   15    0.10352      0.00000     0.39526    0.00122     0.39648
      H   16    0.09491      0.00000     0.40366    0.00144     0.40509
      H   17    0.09247      0.00000     0.40633    0.00120     0.40753
      H   18    0.10152      0.00000     0.39665    0.00183     0.39848
      H   19    0.11105      0.00000     0.38695    0.00200     0.38895
      H   20    0.09763      0.00000     0.39958    0.00279     0.40237
      H   21    0.09908      0.00000     0.39887    0.00205     0.40092
      H   22    0.18766      0.00000     0.30973    0.00261     0.31234
      H   23    0.10200      0.00000     0.39640    0.00160     0.39800
      H   24    0.10726      0.00000     0.39125    0.00149     0.39274
      H   25    0.10396      0.00000     0.39375    0.00229     0.39604
      H   26    0.10899      0.00000     0.38930    0.00171     0.39101
 =======================================================================
   * Total *   -0.00000     11.99531    32.83985    0.16484    45.00000

 Normal termination of Gaussian 16 at Wed Dec  9 18:55:10 2020.
