 Gaussian 16, Revision A.03,

 -----------------------------------------------------------
 # opt freq B3LYP/6-31G(d) empiricaldispersion=gd3bj scf=xqc
 -----------------------------------------------------------

 -------------------------------
 CID_115660354_JID_3754_neutraal
 -------------------------------
 Symbolic Z-matrix:
 Charge =  0 Multiplicity = 1

 SCF Done:  E(RB3LYP) =  -537.047060761     A.U. after   14 cycles
 SCF Done:  E(RB3LYP) =  -537.066807977     A.U. after   13 cycles
 SCF Done:  E(RB3LYP) =  -537.068342436     A.U. after   13 cycles
 SCF Done:  E(RB3LYP) =  -537.066666408     A.U. after   13 cycles
 SCF Done:  E(RB3LYP) =  -537.067664209     A.U. after   13 cycles
 SCF Done:  E(RB3LYP) =  -537.068759532     A.U. after   11 cycles
 SCF Done:  E(RB3LYP) =  -537.069230253     A.U. after   12 cycles
 SCF Done:  E(RB3LYP) =  -537.069273675     A.U. after   11 cycles
 SCF Done:  E(RB3LYP) =  -537.069318693     A.U. after   12 cycles
 SCF Done:  E(RB3LYP) =  -537.069378748     A.U. after   10 cycles
 SCF Done:  E(RB3LYP) =  -537.069401303     A.U. after   10 cycles
 SCF Done:  E(RB3LYP) =  -537.069403422     A.U. after    9 cycles
 SCF Done:  E(RB3LYP) =  -537.069404503     A.U. after    9 cycles
 SCF Done:  E(RB3LYP) =  -537.069404693     A.U. after    8 cycles
 SCF Done:  E(RB3LYP) =  -537.069404749     A.U. after    7 cycles
 Optimization completed.
    -- Stationary point found.
 Normal termination of Gaussian 16 at Sun Dec 13 12:23:43 2020.

 --------------------------------------------------------------------
 #N Geom=AllCheck Guess=TCheck SCRF=Check GenChk RB3LYP/6-31G(d) Freq
 --------------------------------------------------------------------

 Structure from the checkpoint file:  "JID_3754.chk"
 -------------------------------
 CID_115660354_JID_3754_neutraal
 -------------------------------
 Charge =  0 Multiplicity = 1

 SCF Done:  E(RB3LYP) =  -537.069404749     A.U. after    1 cycles

  Exact polarizability: 126.385 -10.037 119.973 -15.672 -16.348 102.165
 Approx polarizability: 168.154 -19.038 199.896 -32.750 -43.855 175.547

                      1                      2                      3
                      A                      A                      A
 Frequencies --     26.6218                49.0079                58.3783
 Red. masses --      3.8644                 4.0010                 5.7495
 Frc consts  --      0.0016                 0.0057                 0.0115
 IR Inten    --      0.1818                 0.4448                 0.3957

                      4                      5                      6
                      A                      A                      A
 Frequencies --     90.1806               142.9092               186.6944
 Red. masses --      4.0708                 3.5098                 3.6781
 Frc consts  --      0.0195                 0.0422                 0.0755
 IR Inten    --      0.9310                 0.1713                 0.5857

                      7                      8                      9
                      A                      A                      A
 Frequencies --    225.3360               246.2435               287.1956
 Red. masses --      1.7264                 1.9286                 2.3751
 Frc consts  --      0.0516                 0.0689                 0.1154
 IR Inten    --      1.7125                 0.4658                 2.4578

                     10                     11                     12
                      A                      A                      A
 Frequencies --    332.6747               345.6954               390.7559
 Red. masses --      2.8642                 2.4379                 1.9405
 Frc consts  --      0.1868                 0.1717                 0.1746
 IR Inten    --      1.6418                 1.2250                 1.9860

                     13                     14                     15
                      A                      A                      A
 Frequencies --    399.4323               411.7582               459.9481
 Red. masses --      3.7266                 3.0607                 3.8679
 Frc consts  --      0.3503                 0.3057                 0.4821
 IR Inten    --      4.4984                 3.6928                 1.5308

                     16                     17                     18
                      A                      A                      A
 Frequencies --    522.9441               597.4459               618.0736
 Red. masses --      4.1289                 1.2112                 2.6202
 Frc consts  --      0.6653                 0.2547                 0.5897
 IR Inten    --      1.1551                48.4645                12.3841

                     19                     20                     21
                      A                      A                      A
 Frequencies --    623.3233               639.2968               652.9069
 Red. masses --      1.2993                 3.6518                 4.0829
 Frc consts  --      0.2974                 0.8793                 1.0255
 IR Inten    --     37.1651                 4.5608                 1.8951

                     22                     23                     24
                      A                      A                      A
 Frequencies --    724.4772               738.3454               803.7744
 Red. masses --      2.2167                 2.5537                 1.7201
 Frc consts  --      0.6855                 0.8202                 0.6548
 IR Inten    --     47.7457                64.3175                31.1347

                     25                     26                     27
                      A                      A                      A
 Frequencies --    809.8036               850.8325               894.8714
 Red. masses --      2.5372                 2.9591                 1.8598
 Frc consts  --      0.9803                 1.2621                 0.8775
 IR Inten    --     10.2824                36.4265                 1.5742

                     28                     29                     30
                      A                      A                      A
 Frequencies --    917.9670               940.9471               951.4427
 Red. masses --      1.8643                 1.3950                 1.7713
 Frc consts  --      0.9256                 0.7277                 0.9448
 IR Inten    --      4.1109                 0.3835                 0.6478

                     31                     32                     33
                      A                      A                      A
 Frequencies --    968.0112               991.4263               993.6813
 Red. masses --      1.7058                 1.4177                 1.5745
 Frc consts  --      0.9418                 0.8211                 0.9160
 IR Inten    --      3.2896                 0.6064                 4.3296

                     34                     35                     36
                      A                      A                      A
 Frequencies --   1045.8323              1074.8858              1085.6020
 Red. masses --      4.1570                 2.8006                 1.8031
 Frc consts  --      2.6789                 1.9064                 1.2520
 IR Inten    --      9.6909                 1.3532                28.0096

                     37                     38                     39
                      A                      A                      A
 Frequencies --   1114.6780              1141.2890              1160.8512
 Red. masses --      2.1431                 1.7311                 2.4763
 Frc consts  --      1.5689                 1.3285                 1.9661
 IR Inten    --      3.6486                 5.6698                42.5463

                     40                     41                     42
                      A                      A                      A
 Frequencies --   1171.4870              1223.6509              1245.7708
 Red. masses --      1.6428                 2.3048                 1.5865
 Frc consts  --      1.3284                 2.0333                 1.4507
 IR Inten    --     15.6935                 2.0974                 7.8525

                     43                     44                     45
                      A                      A                      A
 Frequencies --   1255.2065              1277.1802              1310.7774
 Red. masses --      1.2839                 1.3826                 3.1654
 Frc consts  --      1.1919                 1.3287                 3.2043
 IR Inten    --      2.9443                 9.5588                 5.6697

                     46                     47                     48
                      A                      A                      A
 Frequencies --   1333.4262              1374.9955              1383.3532
 Red. masses --      1.7044                 1.3439                 1.2653
 Frc consts  --      1.7855                 1.4969                 1.4266
 IR Inten    --      6.2244                 4.2433                 4.9926

                     49                     50                     51
                      A                      A                      A
 Frequencies --   1384.4169              1409.5273              1438.0709
 Red. masses --      1.2600                 1.2768                 1.2880
 Frc consts  --      1.4228                 1.4945                 1.5694
 IR Inten    --     13.9560                 4.1999                11.7019

                     52                     53                     54
                      A                      A                      A
 Frequencies --   1475.6947              1497.9836              1503.3990
 Red. masses --      2.1375                 1.1043                 1.0923
 Frc consts  --      2.7425                 1.4600                 1.4547
 IR Inten    --     19.0498                 1.2308                 7.4201

                     55                     56                     57
                      A                      A                      A
 Frequencies --   1515.5686              1526.8660              1528.8365
 Red. masses --      1.0891                 2.0777                 1.0600
 Frc consts  --      1.4739                 2.8538                 1.4597
 IR Inten    --     14.1592                 7.5841                10.0756

                     58                     59                     60
                      A                      A                      A
 Frequencies --   1542.2423              1632.9454              1649.8249
 Red. masses --      1.1699                 5.1293                 5.5663
 Frc consts  --      1.6395                 8.0585                 8.9268
 IR Inten    --     20.9042                12.9950                 5.2499

                     61                     62                     63
                      A                      A                      A
 Frequencies --   2234.2412              3040.0958              3043.3531
 Red. masses --      5.9978                 1.0619                 1.0699
 Frc consts  --     17.6402                 5.7824                 5.8385
 IR Inten    --      1.1222                27.5571                25.0133

                     64                     65                     66
                      A                      A                      A
 Frequencies --   3050.3245              3054.3953              3081.4659
 Red. masses --      1.0716                 1.0446                 1.1051
 Frc consts  --      5.8746                 5.7419                 6.1828
 IR Inten    --     29.2038                29.9600                20.5591

                     67                     68                     69
                      A                      A                      A
 Frequencies --   3107.4246              3117.9978              3143.5924
 Red. masses --      1.0929                 1.1018                 1.1020
 Frc consts  --      6.2177                 6.3114                 6.4163
 IR Inten    --      8.1445                31.8961                22.7509

                     70                     71                     72
                      A                      A                      A
 Frequencies --   3161.3847              3173.4335              3177.2987
 Red. masses --      1.0891                 1.0878                 1.0909
 Frc consts  --      6.4133                 6.4543                 6.4887
 IR Inten    --     27.7597                 3.0803                28.4126

                     73                     74                     75
                      A                      A                      A
 Frequencies --   3209.2200              3495.3386              3496.0685
 Red. masses --      1.0960                 1.1143                 1.1148
 Frc consts  --      6.6507                 8.0211                 8.0283
 IR Inten    --     23.4664                21.3441                36.2423

 - Thermochemistry -
 -------------------
 Temperature   298.150 Kelvin.  Pressure   1.00000 Atm.
 Atom     1 has atomic number  6 and mass  12.00000

 Molecular mass:   174.11570 amu.
 Principal axes and moments of inertia in atomic units:
                           1         2         3
     Eigenvalues --  1383.859673141.887213698.86882
           X            0.99997  -0.00566  -0.00431
           Y            0.00558   0.99979  -0.01975
           Z            0.00442   0.01973   0.99980
 This molecule is an asymmetric top.
 Rotational symmetry number  1.
 Warning -- assumption of classical behavior for rotation
           may cause significant error
 Rotational temperatures (Kelvin)      0.06259     0.02757     0.02342
 Rotational constants (GHZ):           1.30414     0.57441     0.48792
 Zero-point vibrational energy     602812.6 (Joules/Mol)
                                  144.07567 (Kcal/Mol)
 Warning -- explicit consideration of  18 degrees of freedom as
           vibrations may cause significant error
 Vibrational temperatures:     38.30    70.51    83.99   129.75   205.61
          (Kelvin)            268.61   324.21   354.29   413.21   478.64
                              497.38   562.21   574.69   592.43   661.76
                              752.40   859.59   889.27   896.82   919.81
                              939.39  1042.36  1062.31  1156.45  1165.13
                             1224.16  1287.52  1320.75  1353.81  1368.91
                             1392.75  1426.44  1429.69  1504.72  1546.52
                             1561.94  1603.77  1642.06  1670.21  1685.51
                             1760.56  1792.39  1805.96  1837.58  1885.92
                             1918.50  1978.31  1990.34  1991.87  2028.00
                             2069.06  2123.20  2155.26  2163.06  2180.57
                             2196.82  2199.65  2218.94  2349.44  2373.73
                             3214.57  4374.02  4378.71  4388.74  4394.59
                             4433.54  4470.89  4486.10  4522.93  4548.53
                             4565.86  4571.42  4617.35  5029.01  5030.06

 Zero-point correction=                           0.229599 (Hartree/Particle)
 Thermal correction to Energy=                    0.242333
 Thermal correction to Enthalpy=                  0.243277
 Thermal correction to Gibbs Free Energy=         0.189476
 Sum of electronic and zero-point Energies=           -536.839806
 Sum of electronic and thermal Energies=              -536.827072
 Sum of electronic and thermal Enthalpies=            -536.826128
 Sum of electronic and thermal Free Energies=         -536.879928

                     E (Thermal)             CV                S
                      KCal/Mol        Cal/Mol-Kelvin    Cal/Mol-Kelvin
 Total                  152.066             48.355            113.233
 Electronic               0.000              0.000              0.000
 Translational            0.889              2.981             41.371
 Rotational               0.889              2.981             31.154
 Vibrational            150.289             42.393             40.709
 Vibration     1          0.593              1.984              6.066
 Vibration     2          0.595              1.978              4.857
 Vibration     3          0.596              1.974              4.511
 Vibration     4          0.602              1.956              3.656
 Vibration     5          0.616              1.910              2.765
 Vibration     6          0.632              1.858              2.260
 Vibration     7          0.650              1.802              1.916
 Vibration     8          0.661              1.769              1.757
 Vibration     9          0.684              1.697              1.490
 Vibration    10          0.715              1.610              1.247
 Vibration    11          0.724              1.584              1.186
 Vibration    12          0.758              1.490              0.997
 Vibration    13          0.765              1.471              0.965
 Vibration    14          0.776              1.445              0.920
 Vibration    15          0.818              1.339              0.766
 Vibration    16          0.878              1.199              0.603
 Vibration    17          0.955              1.037              0.454
 Vibration    18          0.978              0.994              0.420

 Optimization completed.
    -- Stationary point found.
 Normal termination of Gaussian 16 at Sun Dec 13 12:30:25 2020.

 ----------------------------------------------------------------------
 # B3LYP/6-311++G(d,p) empiricaldispersion=gd3bj scf=xqc pop=npa geom=c
 heck
 ----------------------------------------------------------------------

 ---------------------------------------
 CID_115660354_JID_3754_Energie_neutraal
 ---------------------------------------
 Structure from the checkpoint file:  "JID_3754.chk"
 Charge =  0 Multiplicity = 1

 SCF Done:  E(RB3LYP) =  -537.219122683     A.U. after   15 cycles
 Normal termination of Gaussian 16 at Sun Dec 13 12:32:53 2020.

 ----------------------------------------------------------------------
 # B3LYP/6-311++G(d,p) empiricaldispersion=gd3bj scf=xqc pop=npa geom=c
 heck
 ----------------------------------------------------------------------

 -------------------------------------
 CID_115660354_JID_3754_Energie_kation
 -------------------------------------
 Structure from the checkpoint file:  "JID_3754.chk"
 Charge =  1 Multiplicity = 2

 SCF Done:  E(UB3LYP) =  -536.917876551     A.U. after   26 cycles
 Normal termination of Gaussian 16 at Sun Dec 13 12:38:31 2020.
 Gaussian 16:  ES64L-G16RevA.03 25-Dec-2016

 ----------------------------------------------------------------------
 # B3LYP/6-311++G(d,p) empiricaldispersion=gd3bj scf=xqc pop=npa geom=c
 heck
 ----------------------------------------------------------------------

 ------------------------------------
 CID_115660354_JID_3754_Energie_anion
 ------------------------------------
 Structure from the checkpoint file:  "JID_3754.chk"
 Charge = -1 Multiplicity = 2

                         Standard orientation:
 ---------------------------------------------------------------------
 Center     Atomic      Atomic             Coordinates (Angstroms)
 Number     Number       Type             X           Y           Z
 ---------------------------------------------------------------------
      1          6           0        3.500761   -0.584015    0.370169
      2          6           0        1.978160   -0.726129    0.438008
      3          6           0        1.350289    0.502718    1.172260
      4          6           0        1.435523    1.716581    0.365408
      5          6           0        1.511231    2.676405   -0.364902
      6          7           0        1.470355   -0.966378   -0.910383
      7          6           0        0.153099   -1.585309   -1.040243
      8          6           0       -1.044950   -0.818758   -0.502227
      9          6           0       -1.425969    0.408253   -1.062518
     10          7           0       -2.445781    1.154298   -0.630030
     11          6           0       -3.146600    0.688924    0.412945
     12          6           0       -2.867465   -0.521091    1.046767
     13          6           0       -1.800431   -1.284855    0.575152
     14          1           0        3.773056    0.304910   -0.210423
     15          1           0        3.938575   -1.459491   -0.116401
     16          1           0        3.933355   -0.476717    1.371452
     17          1           0        1.729238   -1.613166    1.035075
     18          1           0        0.301043    0.301745    1.409026
     19          1           0        1.869287    0.649832    2.128777
     20          1           0        1.564009    3.549900   -0.973750
     21          1           0        1.517291   -0.100705   -1.445425
     22          1           0        0.001596   -1.781472   -2.109111
     23          1           0        0.195961   -2.564940   -0.548004
     24          1           0       -0.866019    0.814181   -1.904250
     25          1           0       -3.970807    1.313493    0.752486
     26          1           0       -3.470859   -0.854573    1.885752
     27          1           0       -1.549627   -2.234771    1.042767
 ---------------------------------------------------------------------

 SCF Done:  E(UB3LYP) =  -537.205665814     A.U. after   33 cycles
 SCF Done:  E(UB3LYP) =  -537.205665814     a.u. after    1 cycles

 The electronic state is 2-A.
 Alpha  occ. eigenvalues --  -14.19668 -14.19502 -10.10659 -10.09668 -10.09450
 Alpha  occ. eigenvalues --  -10.09184 -10.08845 -10.08136 -10.07187 -10.07075
 Alpha  occ. eigenvalues --  -10.07015 -10.06692 -10.05650  -0.83242  -0.81149
 Alpha  occ. eigenvalues --   -0.70664  -0.69070  -0.66175  -0.64097  -0.59729
 Alpha  occ. eigenvalues --   -0.56927  -0.52195  -0.50320  -0.49239  -0.43647
 Alpha  occ. eigenvalues --   -0.41436  -0.38958  -0.38607  -0.36922  -0.35750
 Alpha  occ. eigenvalues --   -0.34075  -0.33800  -0.32133  -0.31296  -0.29002
 Alpha  occ. eigenvalues --   -0.28975  -0.28272  -0.26551  -0.26178  -0.24986
 Alpha  occ. eigenvalues --   -0.24580  -0.18541  -0.18227  -0.17157  -0.15450
 Alpha  occ. eigenvalues --   -0.14944  -0.12432   0.04724
 Alpha virt. eigenvalues --    0.06920   0.07111   0.07525   0.07734   0.08548
 Alpha virt. eigenvalues --    0.08964   0.09695   0.09898   0.10816   0.11234
 Alpha virt. eigenvalues --    0.11527   0.12053   0.12524   0.13485   0.13680

  Beta  occ. eigenvalues --  -14.19659 -14.19379 -10.10648 -10.09655 -10.09457
  Beta  occ. eigenvalues --  -10.09125 -10.08830 -10.08136 -10.07144 -10.07069
  Beta  occ. eigenvalues --  -10.06895 -10.06682 -10.05623  -0.83070  -0.81110
  Beta  occ. eigenvalues --   -0.70561  -0.68945  -0.66089  -0.64046  -0.59689
  Beta  occ. eigenvalues --   -0.56852  -0.52046  -0.50197  -0.49182  -0.43623
  Beta  occ. eigenvalues --   -0.41346  -0.38912  -0.38546  -0.36855  -0.35671
  Beta  occ. eigenvalues --   -0.34031  -0.33755  -0.32099  -0.31250  -0.28888
  Beta  occ. eigenvalues --   -0.28645  -0.28210  -0.26506  -0.26131  -0.24891
  Beta  occ. eigenvalues --   -0.24536  -0.18294  -0.18179  -0.16819  -0.15252
  Beta  occ. eigenvalues --   -0.14756  -0.12367
  Beta virt. eigenvalues --    0.06994   0.07692   0.07855   0.08055   0.08132
  Beta virt. eigenvalues --    0.09115   0.09314   0.10055   0.10324   0.10948
  Beta virt. eigenvalues --    0.11677   0.11853   0.12388   0.12856   0.13546

 Mulliken charges and spin densities:
               1          2
     1  C    0.662217  -1.291301
     2  C   -0.772644   0.502395
     3  C    0.873937  -0.862986
     4  C    1.872026  -0.780340
     5  C   -2.503796   0.991621
     6  N    0.037653   0.024905
     7  C    1.352782  -2.249947
     8  C   -0.065700   1.010857
     9  C   -1.864572   1.253442
    10  N   -0.048884   0.064166
    11  C    0.505699  -0.764190
    12  C    1.343569  -1.527683
    13  C   -0.267683   0.124442
    14  H    0.034111   0.104143
    15  H   -0.054218   0.216792
    16  H   -0.193416   0.324753
    17  H   -0.299244   0.475351
    18  H    0.388922  -0.218764
    19  H   -0.368014   0.607351
    20  H   -0.040365   0.195521
    21  H    0.236233  -0.040968
    22  H   -0.015021   0.183736
    23  H   -0.313488   0.489756
    24  H    0.109148   0.049913
    25  H    0.057267   0.090052
    26  H   -0.784489   0.971565
    27  H   -0.882029   1.055420
 Sum of Mulliken charges =  -1.00000   1.00000

 Dipole moment (field-independent basis, Debye):
    X=              1.2049    Y=              3.9837    Z=             -4.3606  Tot=              6.0280
 Quadrupole moment (field-independent basis, Debye-Ang):
   XX=           -138.2479   YY=           -123.8867   ZZ=           -112.0436
   XY=              0.1284   XZ=             -0.6056   YZ=              4.1402

 Summary of Natural Population Analysis:

                                       Natural Population
                Natural  -----------------------------------------------
    Atom  No    Charge         Core      Valence    Rydberg      Total
 -----------------------------------------------------------------------
      C    1   -0.28711      0.99964     2.28049    0.00697     3.28711
      C    2   -0.00335      0.99961     1.99115    0.01260     3.00335
      C    3   -0.24621      0.99954     2.23610    0.01056     3.24621
      C    4    0.01111      0.99938     1.98036    0.00915     2.98889
      C    5   -0.13656      0.99926     2.13383    0.00347     3.13656
      N    6   -0.33988      0.99974     2.82841    0.01174     3.83988
      C    7   -0.09369      0.99958     2.08053    0.01358     3.09369
      C    8   -0.04592      0.99949     2.03534    0.01109     3.04592
      C    9    0.02780      0.99952     1.95903    0.01365     2.97220
      N   10   -0.22103      0.99971     2.70991    0.01141     3.72103
      C   11    0.02819      0.99958     1.95709    0.01513     2.97181
      C   12   -0.12434      0.99955     2.11447    0.01032     3.12434
      C   13   -0.06601      0.99950     2.05514    0.01136     3.06601
      H   14    0.09868      0.00000     0.40038    0.00094     0.40132
      H   15    0.10385      0.00000     0.39487    0.00128     0.39615
      H   16    0.09905      0.00000     0.39968    0.00127     0.40095
      H   17    0.09684      0.00000     0.40049    0.00266     0.40316
      H   18    0.12186      0.00000     0.37553    0.00261     0.37814
      H   19    0.11553      0.00000     0.38283    0.00164     0.38447
      H   20    0.10983      0.00000     0.38908    0.00110     0.39017
      H   21    0.17573      0.00000     0.32176    0.00250     0.32427
      H   22    0.09743      0.00000     0.40163    0.00094     0.40257
      H   23    0.09809      0.00000     0.40018    0.00173     0.40191
      H   24    0.08563      0.00000     0.41256    0.00181     0.41437
      H   25    0.08651      0.00000     0.41234    0.00116     0.41349
      H   26    0.10457      0.00000     0.39373    0.00171     0.39543
      H   27    0.10339      0.00000     0.39364    0.00296     0.39661
 =======================================================================
   * Total *   -0.00000     12.99411    33.84053    0.16535    47.00000

 Normal termination of Gaussian 16 at Sun Dec 13 12:45:48 2020.
