 Gaussian 16, Revision A.03,

 -----------------------------------------------------------
 # opt freq B3LYP/6-31G(d) empiricaldispersion=gd3bj scf=xqc
 -----------------------------------------------------------

 ------------------------------
 CID_81131501_JID_6103_neutraal
 ------------------------------
 Symbolic Z-matrix:
 Charge =  0 Multiplicity = 1

 SCF Done:  E(RB3LYP) =  -721.837424440     A.U. after   14 cycles
 SCF Done:  E(RB3LYP) =  -721.843473229     A.U. after   12 cycles
 SCF Done:  E(RB3LYP) =  -721.844477179     A.U. after   12 cycles
 SCF Done:  E(RB3LYP) =  -721.845081735     A.U. after   12 cycles
 SCF Done:  E(RB3LYP) =  -721.845627741     A.U. after   12 cycles
 SCF Done:  E(RB3LYP) =  -721.846063574     A.U. after   12 cycles
 SCF Done:  E(RB3LYP) =  -721.846275608     A.U. after   11 cycles
 SCF Done:  E(RB3LYP) =  -721.846321901     A.U. after   10 cycles
 SCF Done:  E(RB3LYP) =  -721.846340054     A.U. after   10 cycles
 SCF Done:  E(RB3LYP) =  -721.846351341     A.U. after   10 cycles
 SCF Done:  E(RB3LYP) =  -721.846836259     A.U. after    8 cycles
 SCF Done:  E(RB3LYP) =  -721.846836931     A.U. after    8 cycles
 SCF Done:  E(RB3LYP) =  -721.846837097     A.U. after    7 cycles
 SCF Done:  E(RB3LYP) =  -721.846837143     A.U. after    7 cycles
 SCF Done:  E(RB3LYP) =  -721.846837142     A.U. after    7 cycles
 Optimization completed.
    -- Stationary point found.
 Normal termination of Gaussian 16 at Thu Dec 10 21:22:59 2020.

 --------------------------------------------------------------------
 #N Geom=AllCheck Guess=TCheck SCRF=Check GenChk RB3LYP/6-31G(d) Freq
 --------------------------------------------------------------------

 Structure from the checkpoint file:  "JID_6103.chk"
 ------------------------------
 CID_81131501_JID_6103_neutraal
 ------------------------------
 Charge =  0 Multiplicity = 1

 SCF Done:  E(RB3LYP) =  -721.846837142     A.U. after    1 cycles

  Exact polarizability: 210.460  -7.208 126.748   8.463   0.620  96.369
 Approx polarizability: 280.566  -8.737 206.372  10.536   2.997 164.499

                      1                      2                      3
                      A                      A                      A
 Frequencies --     18.9797                35.2210                54.1621
 Red. masses --      4.4400                 4.4367                 3.7212
 Frc consts  --      0.0009                 0.0032                 0.0064
 IR Inten    --      0.4888                 1.9027                 1.1828

                      4                      5                      6
                      A                      A                      A
 Frequencies --     70.8010               120.1560               128.8957
 Red. masses --      1.1115                 2.6770                 3.8211
 Frc consts  --      0.0033                 0.0228                 0.0374
 IR Inten    --      0.4263                 0.7601                 0.9655

                      7                      8                      9
                      A                      A                      A
 Frequencies --    132.1018               153.4659               202.7078
 Red. masses --      1.2004                 3.8940                 2.4411
 Frc consts  --      0.0123                 0.0540                 0.0591
 IR Inten    --      0.0497                 1.3054                 8.9617

                     10                     11                     12
                      A                      A                      A
 Frequencies --    238.5343               281.3717               308.9402
 Red. masses --      5.2891                 3.5015                 2.8054
 Frc consts  --      0.1773                 0.1633                 0.1578
 IR Inten    --      0.6142                 4.8284                 7.2732

                     13                     14                     15
                      A                      A                      A
 Frequencies --    322.6619               341.8167               360.1075
 Red. masses --      3.0693                 3.8572                 3.3347
 Frc consts  --      0.1883                 0.2655                 0.2548
 IR Inten    --      1.6513                 0.4188                 7.9600

                     16                     17                     18
                      A                      A                      A
 Frequencies --    403.5969               418.3761               477.6080
 Red. masses --      2.0216                 1.6747                 3.7696
 Frc consts  --      0.1940                 0.1727                 0.5066
 IR Inten    --     30.4316                14.2563                 3.0222

                     19                     20                     21
                      A                      A                      A
 Frequencies --    492.3952               521.8021               598.7624
 Red. masses --      4.7995                 3.0393                 5.5147
 Frc consts  --      0.6856                 0.4876                 1.1649
 IR Inten    --     16.1284                 8.9897                 2.8398

                     22                     23                     24
                      A                      A                      A
 Frequencies --    623.6646               637.9425               663.2059
 Red. masses --      4.1237                 6.3266                 5.1439
 Frc consts  --      0.9450                 1.5170                 1.3330
 IR Inten    --      2.6504                 0.5250                 1.2143

                     25                     26                     27
                      A                      A                      A
 Frequencies --    668.7187               727.6518               749.8326
 Red. masses --      3.8392                 2.8530                 3.1059
 Frc consts  --      1.0115                 0.8900                 1.0289
 IR Inten    --      1.1995               110.7836                73.6974

                     28                     29                     30
                      A                      A                      A
 Frequencies --    762.0572               797.4184               813.4200
 Red. masses --      3.6734                 1.8276                 3.6725
 Frc consts  --      1.2569                 0.6847                 1.4317
 IR Inten    --     24.0041                64.8965                21.0377

                     31                     32                     33
                      A                      A                      A
 Frequencies --    817.8724               837.5368               848.4261
 Red. masses --      1.2454                 1.5405                 1.6469
 Frc consts  --      0.4908                 0.6367                 0.6985
 IR Inten    --     22.0522                29.1955                98.5869

                     34                     35                     36
                      A                      A                      A
 Frequencies --    925.2455               939.1648               960.4890
 Red. masses --      9.2345                 1.2985                 3.5852
 Frc consts  --      4.6578                 0.6748                 1.9487
 IR Inten    --     15.5338                 2.0235                12.2753

                     37                     38                     39
                      A                      A                      A
 Frequencies --    989.9662              1025.2082              1034.4272
 Red. masses --      1.8877                 2.0050                 1.9158
 Frc consts  --      1.0900                 1.2416                 1.2078
 IR Inten    --      0.5075                13.4857                19.5798

                     40                     41                     42
                      A                      A                      A
 Frequencies --   1037.3277              1054.5663              1073.8103
 Red. masses --      3.4020                 2.8384                 1.5225
 Frc consts  --      2.1569                 1.8598                 1.0344
 IR Inten    --     12.3371                 2.3324                 4.0314

                     43                     44                     45
                      A                      A                      A
 Frequencies --   1078.5476              1108.2160              1128.5022
 Red. masses --      1.5035                 1.5214                 2.8471
 Frc consts  --      1.0305                 1.1009                 2.1363
 IR Inten    --      2.6686                 5.9978                67.0787

                     46                     47                     48
                      A                      A                      A
 Frequencies --   1158.0329              1178.5658              1241.5050
 Red. masses --      1.6850                 1.2501                 1.8909
 Frc consts  --      1.3314                 1.0230                 1.7172
 IR Inten    --      4.5160                 9.9079                93.2838

                     49                     50                     51
                      A                      A                      A
 Frequencies --   1260.7058              1288.4985              1307.4904
 Red. masses --      2.8638                 2.0422                 2.2912
 Frc consts  --      2.6818                 1.9977                 2.3078
 IR Inten    --     17.4522                45.2528                35.7671

                     52                     53                     54
                      A                      A                      A
 Frequencies --   1335.9815              1365.8056              1403.0326
 Red. masses --      3.3687                 2.6330                 1.9664
 Frc consts  --      3.5426                 2.8939                 2.2807
 IR Inten    --     43.7289                49.9225                39.5822

                     55                     56                     57
                      A                      A                      A
 Frequencies --   1430.2988              1438.9880              1447.7579
 Red. masses --      1.5317                 1.3381                 1.6947
 Frc consts  --      1.8462                 1.6325                 2.0928
 IR Inten    --      8.1575                 6.0141                23.8982

                     58                     59                     60
                      A                      A                      A
 Frequencies --   1474.7460              1503.1252              1507.2574
 Red. masses --      2.9211                 1.6185                 1.0458
 Frc consts  --      3.7431                 2.1545                 1.3998
 IR Inten    --     30.0692                 6.2281                 5.6483

                     61                     62                     63
                      A                      A                      A
 Frequencies --   1511.9333              1512.6428              1525.3829
 Red. masses --      1.0463                 1.9564                 1.2912
 Frc consts  --      1.4093                 2.6375                 1.7701
 IR Inten    --      9.8402               190.2278               103.5514

                     64                     65                     66
                      A                      A                      A
 Frequencies --   1527.1563              1540.0876              1554.1455
 Red. masses --      1.1571                 2.0931                 2.8140
 Frc consts  --      1.5900                 2.9250                 4.0046
 IR Inten    --     31.3437                21.8008                 3.6219

                     67                     68                     69
                      A                      A                      A
 Frequencies --   1644.1047              1654.3383              1662.1873
 Red. masses --      3.4742                 3.8652                 6.6683
 Frc consts  --      5.5330                 6.2327                10.8548
 IR Inten    --     29.1555                17.9710                47.4934

                     70                     71                     72
                      A                      A                      A
 Frequencies --   1686.2565              3014.4227              3051.1709
 Red. masses --      1.4561                 1.0707                 1.0364
 Frc consts  --      2.4394                 5.7322                 5.6848
 IR Inten    --     63.8516                36.2903                32.7301

                     73                     74                     75
                      A                      A                      A
 Frequencies --   3057.6017              3093.0080              3107.4746
 Red. masses --      1.0373                 1.0913                 1.1008
 Frc consts  --      5.7135                 6.1512                 6.2628
 IR Inten    --     19.7588                 3.9682                17.4421

                     76                     77                     78
                      A                      A                      A
 Frequencies --   3112.7850              3133.3364              3153.2331
 Red. masses --      1.1015                 1.1024                 1.1011
 Frc consts  --      6.2880                 6.3768                 6.4505
 IR Inten    --     14.4211                18.7843                 8.1107

                     79                     80                     81
                      A                      A                      A
 Frequencies --   3178.6002              3207.1579              3297.8946
 Red. masses --      1.0889                 1.0937                 1.0980
 Frc consts  --      6.4819                 6.6280                 7.0360
 IR Inten    --     17.1723                18.4042                 1.0248

                     82                     83                     84
                      A                      A                      A
 Frequencies --   3505.6618              3522.0964              3612.4072
 Red. masses --      1.0491                 1.0737                 1.0961
 Frc consts  --      7.5964                 7.8474                 8.4276
 IR Inten    --      8.9672                10.5565                12.1262

 - Thermochemistry -
 -------------------
 Temperature   298.150 Kelvin.  Pressure   1.00000 Atm.
 Atom     1 has atomic number  6 and mass  12.00000

 Molecular mass:   218.11676 amu.
 Principal axes and moments of inertia in atomic units:
                           1         2         3
     Eigenvalues --  1257.338068434.845398924.16807
           X            0.99992  -0.00632   0.01137
           Y            0.00628   0.99997   0.00327
           Z           -0.01139  -0.00320   0.99993
 This molecule is an asymmetric top.
 Rotational symmetry number  1.
 Warning -- assumption of classical behavior for rotation
           may cause significant error
 Rotational temperatures (Kelvin)      0.06889     0.01027     0.00971
 Rotational constants (GHZ):           1.43537     0.21396     0.20223
 Zero-point vibrational energy     647135.2 (Joules/Mol)
                                  154.66903 (Kcal/Mol)
 Warning -- explicit consideration of  21 degrees of freedom as
           vibrations may cause significant error
 Vibrational temperatures:     27.31    50.68    77.93   101.87   172.88
          (Kelvin)            185.45   190.07   220.80   291.65   343.20
                              404.83   444.50   464.24   491.80   518.11
                              580.69   601.95   687.17   708.45   750.76
                              861.49   897.31   917.86   954.21   962.14
                             1046.93  1078.84  1096.43  1147.31  1170.33
                             1176.74  1205.03  1220.70  1331.22  1351.25
                             1381.93  1424.34  1475.05  1488.31  1492.48
                             1517.29  1544.97  1551.79  1594.48  1623.66
                             1666.15  1695.69  1786.25  1813.87  1853.86
                             1881.19  1922.18  1965.09  2018.65  2057.88
                             2070.38  2083.00  2121.83  2162.66  2168.61
                             2175.33  2176.36  2194.69  2197.24  2215.84
                             2236.07  2365.50  2380.22  2391.52  2426.15
                             4337.08  4389.95  4399.21  4450.15  4470.96
                             4478.60  4508.17  4536.80  4573.30  4614.38
                             4744.93  5043.87  5067.51  5197.45

 Zero-point correction=                           0.246481 (Hartree/Particle)
 Thermal correction to Energy=                    0.261631
 Thermal correction to Enthalpy=                  0.262575
 Thermal correction to Gibbs Free Energy=         0.202221
 Sum of electronic and zero-point Energies=           -721.600356
 Sum of electronic and thermal Energies=              -721.585206
 Sum of electronic and thermal Enthalpies=            -721.584262
 Sum of electronic and thermal Free Energies=         -721.644616

                     E (Thermal)             CV                S
                      KCal/Mol        Cal/Mol-Kelvin    Cal/Mol-Kelvin
 Total                  164.176             56.777            127.026
 Electronic               0.000              0.000              0.000
 Translational            0.889              2.981             42.043
 Rotational               0.889              2.981             32.915
 Vibrational            162.398             50.816             52.069
 Vibration     1          0.593              1.986              6.738
 Vibration     2          0.594              1.982              5.511
 Vibration     3          0.596              1.976              4.659
 Vibration     4          0.598              1.968              4.131
 Vibration     5          0.609              1.932              3.098
 Vibration     6          0.611              1.924              2.962
 Vibration     7          0.612              1.921              2.915
 Vibration     8          0.619              1.899              2.629
 Vibration     9          0.639              1.836              2.108
 Vibration    10          0.657              1.782              1.814
 Vibration    11          0.681              1.708              1.525
 Vibration    12          0.698              1.657              1.368
 Vibration    13          0.708              1.630              1.297
 Vibration    14          0.721              1.592              1.204
 Vibration    15          0.735              1.554              1.122
 Vibration    16          0.769              1.462              0.950
 Vibration    17          0.781              1.430              0.898
 Vibration    18          0.834              1.300              0.717
 Vibration    19          0.848              1.267              0.677
 Vibration    20          0.877              1.202              0.606
 Vibration    21          0.957              1.034              0.452

                           ! Non-Optimized Parameters !
 Normal termination of Gaussian 16 at Thu Dec 10 21:31:17 2020.

 ----------------------------------------------------------------------
 # B3LYP/6-311++G(d,p) empiricaldispersion=gd3bj scf=xqc pop=npa geom=c
 heck
 ----------------------------------------------------------------------

 --------------------------------------
 CID_81131501_JID_6103_Energie_neutraal
 --------------------------------------
 Structure from the checkpoint file:  "JID_6103.chk"
 Charge =  0 Multiplicity = 1

 SCF Done:  E(RB3LYP) =  -722.048139446     A.U. after   16 cycles
 Normal termination of Gaussian 16 at Thu Dec 10 21:34:53 2020.

 ----------------------------------------------------------------------
 # B3LYP/6-311++G(d,p) empiricaldispersion=gd3bj scf=xqc pop=npa geom=c
 heck
 ----------------------------------------------------------------------

 ------------------------------------
 CID_81131501_JID_6103_Energie_kation
 ------------------------------------
 Structure from the checkpoint file:  "JID_6103.chk"
 Charge =  1 Multiplicity = 2

 SCF Done:  E(UB3LYP) =  -721.767128190     A.U. after   25 cycles
 Normal termination of Gaussian 16 at Thu Dec 10 21:43:08 2020.
 Gaussian 16:  ES64L-G16RevA.03 25-Dec-2016

 ----------------------------------------------------------------------
 # B3LYP/6-311++G(d,p) empiricaldispersion=gd3bj scf=xqc pop=npa geom=c
 heck
 ----------------------------------------------------------------------

 -----------------------------------
 CID_81131501_JID_6103_Energie_anion
 -----------------------------------
 Structure from the checkpoint file:  "JID_6103.chk"
 Charge = -1 Multiplicity = 2

                         Standard orientation:
 ---------------------------------------------------------------------
 Center     Atomic      Atomic             Coordinates (Angstroms)
 Number     Number       Type             X           Y           Z
 ---------------------------------------------------------------------
      1          6           0        4.673144   -1.948943   -0.203646
      2          6           0        3.728992   -0.777452   -0.127480
      3          7           0        2.414278   -1.058700   -0.206513
      4          6           0        1.530037   -0.068323   -0.162741
      5          6           0        1.892837    1.297485   -0.070723
      6          6           0        3.251504    1.577719    0.046706
      7          6           0        4.177868    0.533529    0.025458
      8          7           0        0.896747    2.282991   -0.070430
      9          7           0        0.163138   -0.405870   -0.295578
     10          6           0       -0.682275   -0.165919    0.882248
     11          6           0       -2.122131   -0.194439    0.486092
     12          6           0       -2.758840   -0.116684   -0.714467
     13          6           0       -4.145378   -0.183816   -0.374884
     14          7           0       -4.321733   -0.292227    0.923696
     15          8           0       -3.028421   -0.302150    1.478596
     16          6           0       -5.329222   -0.147220   -1.289346
     17          1           0        4.571111   -2.466576   -1.164731
     18          1           0        4.446408   -2.680716    0.579878
     19          1           0        5.714267   -1.631791   -0.091782
     20          1           0        3.584763    2.609772    0.129594
     21          1           0        5.239725    0.742899    0.108839
     22          1           0        1.238161    3.205479   -0.317075
     23          1           0        0.103163    2.021661   -0.649839
     24          1           0        0.110493   -1.383953   -0.570975
     25          1           0       -0.505573   -0.895629    1.687161
     26          1           0       -0.434551    0.820133    1.289831
     27          1           0       -2.308440   -0.029778   -1.690802
     28          1           0       -6.253079   -0.217859   -0.710336
     29          1           0       -5.347839    0.783391   -1.867730
     30          1           0       -5.297470   -0.978809   -2.002320
 ---------------------------------------------------------------------

 SCF Done:  E(UB3LYP) =  -722.038791924     A.U. after   33 cycles
 SCF Done:  E(UB3LYP) =  -722.038791924     a.u. after    1 cycles

 The electronic state is 2-A.
 Alpha  occ. eigenvalues --  -19.11362 -14.26377 -14.22958 -14.21751 -14.20341
 Alpha  occ. eigenvalues --  -10.15232 -10.13469 -10.12874 -10.12566 -10.11468
 Alpha  occ. eigenvalues --  -10.10765 -10.08889 -10.08264 -10.07803 -10.07760
 Alpha  occ. eigenvalues --  -10.07475  -1.04848  -0.87612  -0.81416  -0.81081
 Alpha  occ. eigenvalues --   -0.78724  -0.71404  -0.68845  -0.67085  -0.63752
 Alpha  occ. eigenvalues --   -0.61742  -0.58900  -0.53426  -0.51952  -0.49779
 Alpha  occ. eigenvalues --   -0.47104  -0.44199  -0.42373  -0.41696  -0.40095
 Alpha  occ. eigenvalues --   -0.38616  -0.37651  -0.36076  -0.35818  -0.34597
 Alpha  occ. eigenvalues --   -0.33786  -0.33374  -0.32677  -0.31753  -0.30964
 Alpha  occ. eigenvalues --   -0.29967  -0.29674  -0.29256  -0.28491  -0.27645
 Alpha  occ. eigenvalues --   -0.22901  -0.22123  -0.20266  -0.19891  -0.17029
 Alpha  occ. eigenvalues --   -0.16921  -0.15647  -0.10927   0.04110
 Alpha virt. eigenvalues --    0.05784   0.06449   0.06837   0.07285   0.07848
 Alpha virt. eigenvalues --    0.08221   0.08723   0.09023   0.09752   0.10242
 Alpha virt. eigenvalues --    0.10692   0.11235   0.11640   0.11887   0.12443

  Beta  occ. eigenvalues --  -19.11355 -14.26370 -14.22958 -14.21694 -14.20263
  Beta  occ. eigenvalues --  -10.15223 -10.13444 -10.12868 -10.12566 -10.11459
  Beta  occ. eigenvalues --  -10.10758 -10.08852 -10.08244 -10.07757 -10.07720
  Beta  occ. eigenvalues --  -10.07462  -1.04835  -0.87543  -0.81353  -0.81008
  Beta  occ. eigenvalues --   -0.78710  -0.71374  -0.68729  -0.67029  -0.63703
  Beta  occ. eigenvalues --   -0.61713  -0.58837  -0.53306  -0.51914  -0.49737
  Beta  occ. eigenvalues --   -0.47070  -0.44138  -0.42319  -0.41631  -0.40032
  Beta  occ. eigenvalues --   -0.38572  -0.37617  -0.36027  -0.35750  -0.34545
  Beta  occ. eigenvalues --   -0.33712  -0.33332  -0.32638  -0.31718  -0.30918
  Beta  occ. eigenvalues --   -0.29926  -0.29600  -0.29208  -0.28446  -0.27575
  Beta  occ. eigenvalues --   -0.22743  -0.22103  -0.20176  -0.19845  -0.16949
  Beta  occ. eigenvalues --   -0.16818  -0.15461  -0.10775
  Beta virt. eigenvalues --    0.06215   0.06492   0.07197   0.07365   0.07628
  Beta virt. eigenvalues --    0.08070   0.08619   0.08961   0.09628   0.10024
  Beta virt. eigenvalues --    0.10486   0.10844   0.11155   0.11853   0.12235

 Mulliken charges and spin densities:
               1          2
     1  C    0.218420  -0.794790
     2  C   -0.240618   0.243051
     3  N   -0.147540   0.147935
     4  C   -0.995676   0.396837
     5  C    2.035358  -1.660032
     6  C   -0.591441   0.215024
     7  C    0.279678  -0.196631
     8  N   -0.350955   0.004020
     9  N    0.134816  -0.059960
    10  C    0.287523  -0.644639
    11  C   -0.576547   0.063631
    12  C   -1.388498   1.777556
    13  C    0.277822  -0.288229
    14  N   -0.430912   0.099979
    15  O    0.179348  -0.028987
    16  C    1.731951  -2.372994
    17  H    0.095511   0.053943
    18  H    0.147205  -0.002555
    19  H    0.045545   0.092305
    20  H   -0.802434   0.972622
    21  H   -0.123367   0.270928
    22  H   -0.309336   0.585827
    23  H   -0.091307   0.351975
    24  H    0.214426   0.044134
    25  H    0.132901   0.057576
    26  H    0.236427   0.000648
    27  H   -0.489932   0.712551
    28  H    0.021278   0.132181
    29  H   -0.296354   0.464241
    30  H   -0.203293   0.361854
 Sum of Mulliken charges =  -1.00000   1.00000

 Dipole moment (field-independent basis, Debye):
    X=              2.0515    Y=             -5.5596    Z=              2.6102  Tot=              6.4754
 Quadrupole moment (field-independent basis, Debye-Ang):
   XX=           -183.8069   YY=           -142.0286   ZZ=           -127.4214
   XY=            -10.3724   XZ=             -2.6186   YZ=              4.6993

 Summary of Natural Population Analysis:

                                       Natural Population
                Natural  -----------------------------------------------
    Atom  No    Charge         Core      Valence    Rydberg      Total
 -----------------------------------------------------------------------
      C    1   -0.29399      0.99964     2.28907    0.00528     3.29399
      C    2    0.09024      0.99955     1.89835    0.01186     2.90976
      N    3   -0.24743      0.99964     2.73761    0.01018     3.74743
      C    4    0.18630      0.99948     1.79863    0.01559     2.81370
      C    5    0.05801      0.99944     1.93059    0.01197     2.94199
      C    6   -0.08876      0.99953     2.07884    0.01039     3.08876
      C    7   -0.12391      0.99951     2.11522    0.00918     3.12391
      N    8   -0.40237      0.99972     2.89167    0.01099     3.90237
      N    9   -0.33136      0.99970     2.82066    0.01101     3.83136
      C   10   -0.11452      0.99956     2.10471    0.01025     3.11452
      C   11    0.17813      0.99949     1.80719    0.01519     2.82187
      C   12   -0.17246      0.99944     2.16402    0.00900     3.17246
      C   13    0.08613      0.99962     1.89988    0.01437     2.91387
      N   14   -0.09252      0.99967     2.58029    0.01256     3.59252
      O   15   -0.17179      0.99985     3.16349    0.00845     4.17179
      C   16   -0.30039      0.99962     2.29524    0.00553     3.30039
      H   17    0.10307      0.00000     0.39559    0.00134     0.39693
      H   18    0.10238      0.00000     0.39635    0.00127     0.39762
      H   19    0.09720      0.00000     0.40207    0.00073     0.40280
      H   20    0.10304      0.00000     0.39538    0.00158     0.39696
      H   21    0.10017      0.00000     0.39893    0.00090     0.39983
      H   22    0.19084      0.00000     0.30153    0.00763     0.30916
      H   23    0.19120      0.00000     0.30516    0.00364     0.30880
      H   24    0.18630      0.00000     0.31063    0.00307     0.31370
      H   25    0.09652      0.00000     0.40220    0.00128     0.40348
      H   26    0.11961      0.00000     0.37863    0.00176     0.38039
      H   27    0.12178      0.00000     0.37675    0.00148     0.37822
      H   28    0.10931      0.00000     0.38955    0.00114     0.39069
      H   29    0.11084      0.00000     0.38782    0.00134     0.38916
      H   30    0.10841      0.00000     0.39038    0.00121     0.39159
 =======================================================================
   * Total *   -0.00000     15.99344    41.80641    0.20015    58.00000

 Normal termination of Gaussian 16 at Thu Dec 10 21:54:42 2020.
