 Gaussian 16, Revision A.03,

 -----------------------------------------------------------
 # opt freq B3LYP/6-31G(d) empiricaldispersion=gd3bj scf=xqc
 -----------------------------------------------------------

 ------------------------------
 CID_65528194_JID_7776_neutraal
 ------------------------------
 Symbolic Z-matrix:
 Charge =  0 Multiplicity = 1

 SCF Done:  E(RB3LYP) =  -1092.83238004     A.U. after   14 cycles
 SCF Done:  E(RB3LYP) =  -1092.83934980     A.U. after   12 cycles
 SCF Done:  E(RB3LYP) =  -1092.84037998     A.U. after   12 cycles
 SCF Done:  E(RB3LYP) =  -1092.83910399     A.U. after   12 cycles
 SCF Done:  E(RB3LYP) =  -1092.84038314     A.U. after   12 cycles
 SCF Done:  E(RB3LYP) =  -1092.84092621     A.U. after   12 cycles
 SCF Done:  E(RB3LYP) =  -1092.84113966     A.U. after   11 cycles
 SCF Done:  E(RB3LYP) =  -1092.84119328     A.U. after   11 cycles
 SCF Done:  E(RB3LYP) =  -1092.84120728     A.U. after   10 cycles
 SCF Done:  E(RB3LYP) =  -1092.84123243     A.U. after    9 cycles
 SCF Done:  E(RB3LYP) =  -1092.84123505     A.U. after    9 cycles
 SCF Done:  E(RB3LYP) =  -1092.84123637     A.U. after    8 cycles
 SCF Done:  E(RB3LYP) =  -1092.84123644     A.U. after    7 cycles
 Optimization completed.
    -- Stationary point found.
 Normal termination of Gaussian 16 at Fri Dec 11 13:12:46 2020.

 --------------------------------------------------------------------
 #N Geom=AllCheck Guess=TCheck SCRF=Check GenChk RB3LYP/6-31G(d) Freq
 --------------------------------------------------------------------

 Structure from the checkpoint file:  "JID_7776.chk"
 ------------------------------
 CID_65528194_JID_7776_neutraal
 ------------------------------
 Charge =  0 Multiplicity = 1

 SCF Done:  E(RB3LYP) =  -1092.84123644     A.U. after    1 cycles

  Exact polarizability: 187.116   0.099 155.401   1.301   0.571 145.308
 Approx polarizability: 228.891   4.811 238.269   1.253  -5.980 235.380

                      1                      2                      3
                      A                      A                      A
 Frequencies --     31.8997                47.8871                53.8436
 Red. masses --      4.8713                 3.9064                 4.4435
 Frc consts  --      0.0029                 0.0053                 0.0076
 IR Inten    --      0.5254                 0.3838                 2.2067

                      4                      5                      6
                      A                      A                      A
 Frequencies --     76.3966               101.3128               126.8940
 Red. masses --      3.5864                 4.0774                 2.5785
 Frc consts  --      0.0123                 0.0247                 0.0245
 IR Inten    --      3.5367                 1.0514                 1.0943

                      7                      8                      9
                      A                      A                      A
 Frequencies --    136.8729               149.0678               163.7392
 Red. masses --      1.4464                 2.8438                 2.5355
 Frc consts  --      0.0160                 0.0372                 0.0401
 IR Inten    --      0.6574                 1.7397                 5.2650

                     10                     11                     12
                      A                      A                      A
 Frequencies --    202.8026               246.8601               271.4878
 Red. masses --      2.8852                 2.7713                 2.7382
 Frc consts  --      0.0699                 0.0995                 0.1189
 IR Inten    --      0.2018                 3.1170                 2.1116

                     13                     14                     15
                      A                      A                      A
 Frequencies --    277.9853               290.5731               315.4248
 Red. masses --      2.5318                 2.9599                 3.3452
 Frc consts  --      0.1153                 0.1472                 0.1961
 IR Inten    --      2.4810                 5.2679                 1.6308

                     16                     17                     18
                      A                      A                      A
 Frequencies --    344.6058               359.7074               376.9145
 Red. masses --      2.6001                 2.1211                 2.7270
 Frc consts  --      0.1819                 0.1617                 0.2283
 IR Inten    --      5.3617                 2.6637                 8.2894

                     19                     20                     21
                      A                      A                      A
 Frequencies --    394.2537               412.3340               445.3633
 Red. masses --      2.2579                 2.2541                 3.4485
 Frc consts  --      0.2068                 0.2258                 0.4030
 IR Inten    --      0.9601                 0.4419                 4.9084

                     22                     23                     24
                      A                      A                      A
 Frequencies --    472.4742               495.7707               511.1752
 Red. masses --      2.2678                 2.3175                 2.8233
 Frc consts  --      0.2983                 0.3356                 0.4347
 IR Inten    --     18.6561                 0.8209                 4.5503

                     25                     26                     27
                      A                      A                      A
 Frequencies --    579.0414               581.9012               597.9440
 Red. masses --      2.4822                 2.3750                 3.0369
 Frc consts  --      0.4904                 0.4738                 0.6397
 IR Inten    --      2.8566                 5.0918                22.4051

                     28                     29                     30
                      A                      A                      A
 Frequencies --    655.7847               673.7179               704.6060
 Red. masses --      3.9288                 3.0107                 2.8499
 Frc consts  --      0.9955                 0.8052                 0.8336
 IR Inten    --      2.1168                 4.9107                13.2526

                     31                     32                     33
                      A                      A                      A
 Frequencies --    718.1061               765.4228               803.3634
 Red. masses --      5.2543                 2.7198                 1.4714
 Frc consts  --      1.5964                 0.9388                 0.5595
 IR Inten    --      3.8342                 2.0554                 2.0046

                     34                     35                     36
                      A                      A                      A
 Frequencies --    815.4287               846.3971               869.8473
 Red. masses --      1.6518                 2.0374                 2.0959
 Frc consts  --      0.6471                 0.8599                 0.9343
 IR Inten    --     47.9690                 0.0139                 4.8098

                     37                     38                     39
                      A                      A                      A
 Frequencies --    888.3322               903.4965               910.0445
 Red. masses --      2.3991                 2.3232                 2.2513
 Frc consts  --      1.1154                 1.1174                 1.0985
 IR Inten    --      4.4844                12.0425                13.3056

                     40                     41                     42
                      A                      A                      A
 Frequencies --    939.6773               956.4084               969.3305
 Red. masses --      2.6137                 1.5001                 1.6742
 Frc consts  --      1.3597                 0.8085                 0.9268
 IR Inten    --      1.8764                 3.3032                 6.9810

                     43                     44                     45
                      A                      A                      A
 Frequencies --    976.4910               980.8495              1002.5049
 Red. masses --      1.7082                 2.2645                 1.2361
 Frc consts  --      0.9597                 1.2836                 0.7319
 IR Inten    --      2.4150                16.0359                11.1566

                     46                     47                     48
                      A                      A                      A
 Frequencies --   1015.2806              1029.1207              1030.9938
 Red. masses --      1.9419                 1.8690                 1.7965
 Frc consts  --      1.1794                 1.1663                 1.1251
 IR Inten    --      5.0471                 9.4279                 1.7929

                     49                     50                     51
                      A                      A                      A
 Frequencies --   1063.0471              1070.5967              1094.5790
 Red. masses --      2.0571                 2.0345                 1.6087
 Frc consts  --      1.3696                 1.3739                 1.1356
 IR Inten    --      8.7274                 2.7882                10.7892

                     52                     53                     54
                      A                      A                      A
 Frequencies --   1102.5513              1119.2785              1135.5187
 Red. masses --      1.9105                 2.0039                 2.2516
 Frc consts  --      1.3683                 1.4791                 1.7106
 IR Inten    --     26.8664                21.4957                 8.6620

                     55                     56                     57
                      A                      A                      A
 Frequencies --   1158.7703              1168.2362              1173.6149
 Red. masses --      2.1595                 2.6847                 1.5604
 Frc consts  --      1.7084                 2.1588                 1.2663
 IR Inten    --     17.8834                36.5176                 1.0272

                     58                     59                     60
                      A                      A                      A
 Frequencies --   1186.7782              1211.1858              1236.8100
 Red. masses --      1.2806                 2.3338                 1.3629
 Frc consts  --      1.0627                 2.0172                 1.2283
 IR Inten    --      7.2992                 6.5269                65.4247

                     61                     62                     63
                      A                      A                      A
 Frequencies --   1243.1330              1254.8703              1264.6974
 Red. masses --      1.3424                 1.2794                 1.5755
 Frc consts  --      1.2223                 1.1870                 1.4847
 IR Inten    --     27.6224                 7.6088                12.6897

                     64                     65                     66
                      A                      A                      A
 Frequencies --   1301.9528              1312.9680              1328.4291
 Red. masses --      1.2923                 1.2325                 1.2424
 Frc consts  --      1.2906                 1.2519                 1.2918
 IR Inten    --      0.8777                 3.5076                 3.6897

                     67                     68                     69
                      A                      A                      A
 Frequencies --   1331.9176              1345.2070              1349.3276
 Red. masses --      1.2711                 1.3370                 1.5758
 Frc consts  --      1.3285                 1.4254                 1.6904
 IR Inten    --     18.6753                16.2595                54.6813

                     70                     71                     72
                      A                      A                      A
 Frequencies --   1372.1144              1380.3668              1387.6246
 Red. masses --      1.3563                 1.4589                 1.4267
 Frc consts  --      1.5045                 1.6379                 1.6185
 IR Inten    --      2.0565                 6.1096                 1.0386

                     73                     74                     75
                      A                      A                      A
 Frequencies --   1394.0717              1397.0611              1404.8256
 Red. masses --      1.1781                 1.2904                 1.4878
 Frc consts  --      1.3489                 1.4839                 1.7300
 IR Inten    --     10.9419                 7.5904                 0.2752

                     76                     77                     78
                      A                      A                      A
 Frequencies --   1409.2502              1424.2239              1432.2425
 Red. masses --      1.4454                 1.4243                 2.0224
 Frc consts  --      1.6913                 1.7021                 2.4443
 IR Inten    --      2.0317                 7.4169               107.9476

                     79                     80                     81
                      A                      A                      A
 Frequencies --   1442.6601              1485.4895              1496.0529
 Red. masses --      1.6004                 1.0842                 1.0549
 Frc consts  --      1.9625                 1.4096                 1.3910
 IR Inten    --      4.4849                16.8581                 1.9139

                     82                     83                     84
                      A                      A                      A
 Frequencies --   1497.4484              1506.7563              1513.4365
 Red. masses --      1.2832                 1.0936                 1.1120
 Frc consts  --      1.6952                 1.4628                 1.5006
 IR Inten    --      1.4627                 4.3758                10.2587

                     85                     86                     87
                      A                      A                      A
 Frequencies --   1515.0540              1518.6322              1519.0588
 Red. masses --      1.0877                 1.1086                 1.0709
 Frc consts  --      1.4710                 1.5063                 1.4559
 IR Inten    --      0.7029                 6.0128                 9.1136

                     88                     89                     90
                      A                      A                      A
 Frequencies --   1523.6781              1525.7704              1532.6612
 Red. masses --      1.0876                 1.0842                 1.0928
 Frc consts  --      1.4877                 1.4871                 1.5125
 IR Inten    --      9.8215                 7.3562                 6.5391

                     91                     92                     93
                      A                      A                      A
 Frequencies --   1537.6056              1541.7502              1738.3619
 Red. masses --      1.0961                 1.1020                10.4437
 Frc consts  --      1.5269                 1.5433                18.5944
 IR Inten    --      2.4053                 2.4119               225.5300

                     94                     95                     96
                      A                      A                      A
 Frequencies --   2959.4427              2964.6307              3023.5314
 Red. masses --      1.0731                 1.0706                 1.0674
 Frc consts  --      5.5377                 5.5441                 5.7493
 IR Inten    --     25.4647                89.6740                21.1684

                     97                     98                     99
                      A                      A                      A
 Frequencies --   3032.6350              3036.3792              3040.2347
 Red. masses --      1.0662                 1.0650                 1.0713
 Frc consts  --      5.7774                 5.7851                 5.8342
 IR Inten    --     24.0232                16.8811                15.1901

                    100                    101                    102
                      A                      A                      A
 Frequencies --   3043.9925              3049.2813              3068.3383
 Red. masses --      1.0693                 1.0728                 1.0310
 Frc consts  --      5.8376                 5.8771                 5.7187
 IR Inten    --      3.7402                33.2959                24.2758

                    103                    104                    105
                      A                      A                      A
 Frequencies --   3072.0003              3075.2376              3080.3818
 Red. masses --      1.0929                 1.0993                 1.0889
 Frc consts  --      6.0769                 6.1250                 6.0878
 IR Inten    --     74.1354                42.2695                36.0266

                    106                    107                    108
                      A                      A                      A
 Frequencies --   3081.1399              3088.8433              3108.1209
 Red. masses --      1.1015                 1.0597                 1.0724
 Frc consts  --      6.1609                 5.9570                 6.1040
 IR Inten    --     71.7101                24.3198                37.2883

                    109                    110                    111
                      A                      A                      A
 Frequencies --   3111.3181              3132.3630              3145.9377
 Red. masses --      1.0881                 1.0957                 1.0909
 Frc consts  --      6.2061                 6.3340                 6.3612
 IR Inten    --     46.3649                 8.2502                17.6520

                    112                    113                    114
                      A                      A                      A
 Frequencies --   3148.9239              3148.9807              3175.0507
 Red. masses --      1.1044                 1.1021                 1.1060
 Frc consts  --      6.4521                 6.4390                 6.5689
 IR Inten    --      5.3833                28.3870                 1.6539

                    115                    116                    117
                      A                      A                      A
 Frequencies --   3176.6106              3192.1424              3507.9171
 Red. masses --      1.0895                 1.0950                 1.0749
 Frc consts  --      6.4776                 6.5738                 7.7930
 IR Inten    --      5.1895                10.6125                 0.6291

 - Thermochemistry -
 -------------------
 Temperature   298.150 Kelvin.  Pressure   1.00000 Atm.
 Atom     1 has atomic number  6 and mass  12.00000

 Molecular mass:   256.16094 amu.
 Principal axes and moments of inertia in atomic units:
                           1         2         3
     Eigenvalues --  2148.856716962.983417635.54876
           X            1.00000   0.00027  -0.00227
           Y           -0.00025   0.99995   0.00979
           Z            0.00227  -0.00979   0.99995
 This molecule is an asymmetric top.
 Rotational symmetry number  1.
 Warning -- assumption of classical behavior for rotation
           may cause significant error
 Rotational temperatures (Kelvin)      0.04031     0.01244     0.01134
 Rotational constants (GHZ):           0.83986     0.25919     0.23636
 Zero-point vibrational energy     968573.5 (Joules/Mol)
                                  231.49461 (Kcal/Mol)
 Warning -- explicit consideration of  27 degrees of freedom as
           vibrations may cause significant error
 Vibrational temperatures:     45.90    68.90    77.47   109.92   145.77
          (Kelvin)            182.57   196.93   214.48   235.58   291.79
                              355.18   390.61   399.96   418.07   453.83
                              495.81   517.54   542.30   567.24   593.26
                              640.78   679.78   713.30   735.47   833.11
                              837.23   860.31   943.53   969.33  1013.77
                             1033.19  1101.27  1155.86  1173.22  1217.78
                             1251.52  1278.11  1299.93  1309.35  1351.99
                             1376.06  1394.65  1404.95  1411.22  1442.38
                             1460.76  1480.68  1483.37  1529.49  1540.35
                             1574.86  1586.33  1610.39  1633.76  1667.21
                             1680.83  1688.57  1707.51  1742.63  1779.49
                             1788.59  1805.48  1819.62  1873.22  1889.07
                             1911.31  1916.33  1935.45  1941.38  1974.17
                             1986.04  1996.48  2005.76  2010.06  2021.23
                             2027.60  2049.14  2060.68  2075.67  2137.29
                             2152.49  2154.49  2167.89  2177.50  2179.82
                             2184.97  2185.59  2192.23  2195.24  2205.16
                             2212.27  2218.23  2501.12  4257.98  4265.44
                             4350.19  4363.29  4368.67  4374.22  4379.63
                             4387.24  4414.65  4419.92  4424.58  4431.98
                             4433.07  4444.16  4471.89  4476.49  4506.77
                             4526.30  4530.60  4530.68  4568.19  4570.43
                             4592.78  5047.11

 Zero-point correction=                           0.368910 (Hartree/Particle)
 Thermal correction to Energy=                    0.386161
 Thermal correction to Enthalpy=                  0.387105
 Thermal correction to Gibbs Free Energy=         0.323702
 Sum of electronic and zero-point Energies=          -1092.472326
 Sum of electronic and thermal Energies=             -1092.455076
 Sum of electronic and thermal Enthalpies=           -1092.454132
 Sum of electronic and thermal Free Energies=        -1092.517535

                     E (Thermal)             CV                S
                      KCal/Mol        Cal/Mol-Kelvin    Cal/Mol-Kelvin
 Total                  242.319             67.587            133.443
 Electronic               0.000              0.000              0.000
 Translational            0.889              2.981             42.522
 Rotational               0.889              2.981             33.102
 Vibrational            240.542             61.626             57.819
 Vibration     1          0.594              1.983              5.708
 Vibration     2          0.595              1.978              4.903
 Vibration     3          0.596              1.976              4.671
 Vibration     4          0.599              1.965              3.981
 Vibration     5          0.604              1.948              3.429
 Vibration     6          0.611              1.926              2.993
 Vibration     7          0.614              1.917              2.847
 Vibration     8          0.618              1.904              2.684
 Vibration     9          0.623              1.887              2.506
 Vibration    10          0.639              1.836              2.108
 Vibration    11          0.661              1.768              1.753
 Vibration    12          0.675              1.726              1.587
 Vibration    13          0.679              1.714              1.546
 Vibration    14          0.687              1.691              1.471
 Vibration    15          0.703              1.644              1.334
 Vibration    16          0.723              1.586              1.191
 Vibration    17          0.734              1.555              1.123
 Vibration    18          0.747              1.519              1.052
 Vibration    19          0.761              1.482              0.984
 Vibration    20          0.776              1.443              0.918
 Vibration    21          0.805              1.371              0.810
 Vibration    22          0.829              1.311              0.731
 Vibration    23          0.851              1.259              0.669
 Vibration    24          0.866              1.225              0.631
 Vibration    25          0.936              1.077              0.487
 Vibration    26          0.939              1.070              0.482
 Vibration    27          0.956              1.036              0.453

 Optimization completed.
    -- Stationary point found.
 Normal termination of Gaussian 16 at Fri Dec 11 13:32:52 2020.

 ----------------------------------------------------------------------
 # B3LYP/6-311++G(d,p) empiricaldispersion=gd3bj scf=xqc pop=npa geom=c
 heck
 ----------------------------------------------------------------------

 --------------------------------------
 CID_65528194_JID_7776_Energie_neutraal
 --------------------------------------
 Structure from the checkpoint file:  "JID_7776.chk"
 Charge =  0 Multiplicity = 1

 SCF Done:  E(RB3LYP) =  -1093.06146808     A.U. after   16 cycles
 Normal termination of Gaussian 16 at Fri Dec 11 13:41:36 2020.

 ----------------------------------------------------------------------
 # B3LYP/6-311++G(d,p) empiricaldispersion=gd3bj scf=xqc pop=npa geom=c
 heck
 ----------------------------------------------------------------------

 ------------------------------------
 CID_65528194_JID_7776_Energie_kation
 ------------------------------------
 Structure from the checkpoint file:  "JID_7776.chk"
 Charge =  1 Multiplicity = 2

 SCF Done:  E(UB3LYP) =  -1092.77729886     A.U. after   28 cycles
 Normal termination of Gaussian 16 at Fri Dec 11 14:02:11 2020.
 Gaussian 16:  ES64L-G16RevA.03 25-Dec-2016

 ----------------------------------------------------------------------
 # B3LYP/6-311++G(d,p) empiricaldispersion=gd3bj scf=xqc pop=npa geom=c
 heck
 ----------------------------------------------------------------------

 -----------------------------------
 CID_65528194_JID_7776_Energie_anion
 -----------------------------------
 Structure from the checkpoint file:  "JID_7776.chk"
 Charge = -1 Multiplicity = 2

                         Standard orientation:
 ---------------------------------------------------------------------
 Center     Atomic      Atomic             Coordinates (Angstroms)
 Number     Number       Type             X           Y           Z
 ---------------------------------------------------------------------
      1          6           0       -3.388741    0.180039    1.747152
      2         16           0       -3.873697    0.358333   -0.010131
      3          6           0       -3.366687   -1.285645   -0.669847
      4          6           0       -1.992842   -1.285426   -1.340798
      5          6           0       -0.862923   -1.014371   -0.340287
      6          8           0       -0.828853   -1.706616    0.674683
      7          7           0        0.095556   -0.085350   -0.697065
      8          6           0       -0.367564    1.205405   -1.243794
      9          6           0       -0.420774    2.256189   -0.131358
     10          7           0        0.879545    2.353858    0.527264
     11          6           0        1.276607    1.071808    1.110671
     12          6           0        1.429209    0.016724   -0.003664
     13          6           0        2.455712    0.471268   -1.076260
     14          6           0        3.907232    0.478773   -0.581898
     15          6           0        4.326962   -0.885249   -0.033276
     16          6           0        3.350524   -1.331330    1.055450
     17          6           0        1.893907   -1.340458    0.567499
     18          1           0       -3.556514    1.151019    2.220663
     19          1           0       -2.338553   -0.100422    1.840173
     20          1           0       -4.012351   -0.569128    2.242854
     21          1           0       -3.374109   -1.999565    0.157309
     22          1           0       -4.136440   -1.585870   -1.386220
     23          1           0       -1.792423   -2.299513   -1.715268
     24          1           0       -1.982560   -0.625648   -2.209370
     25          1           0       -1.371080    1.093361   -1.646680
     26          1           0        0.290863    1.530520   -2.052133
     27          1           0       -0.677522    3.229206   -0.565921
     28          1           0       -1.234098    1.970227    0.560577
     29          1           0        0.846179    3.065774    1.252614
     30          1           0        0.542690    0.679678    1.838366
     31          1           0        2.224864    1.213814    1.636138
     32          1           0        2.363029   -0.215467   -1.928163
     33          1           0        2.211444    1.474094   -1.427466
     34          1           0        4.026696    1.243320    0.197755
     35          1           0        4.560770    0.782209   -1.409049
     36          1           0        5.352553   -0.849771    0.354914
     37          1           0        4.321212   -1.621880   -0.849902
     38          1           0        3.450693   -0.668914    1.926486
     39          1           0        3.601951   -2.337994    1.410885
     40          1           0        1.233830   -1.653387    1.373513
     41          1           0        1.789410   -2.091972   -0.226380
 ---------------------------------------------------------------------

 SCF Done:  E(UB3LYP) =  -1093.04703399     A.U. after   33 cycles
 SCF Done:  E(UB3LYP) =  -1093.04703399     a.u. after    4 cycles

 The electronic state is 2-A.
 Alpha  occ. eigenvalues --  -88.74871 -18.99713 -14.24440 -14.20081 -10.18136
 Alpha  occ. eigenvalues --  -10.12179 -10.11169 -10.10821 -10.10040 -10.09665
 Alpha  occ. eigenvalues --  -10.09369 -10.09061 -10.07083 -10.06920 -10.06858
 Alpha  occ. eigenvalues --  -10.06508 -10.06412  -7.83474  -5.79875  -5.79507
 Alpha  occ. eigenvalues --   -5.78834  -0.94719  -0.85410  -0.79819  -0.73909
 Alpha  occ. eigenvalues --   -0.72164  -0.67482  -0.66312  -0.64825  -0.62806
 Alpha  occ. eigenvalues --   -0.58126  -0.57301  -0.53071  -0.52769  -0.50552
 Alpha  occ. eigenvalues --   -0.49124  -0.46021  -0.42308  -0.41700  -0.39978
 Alpha  occ. eigenvalues --   -0.39342  -0.37386  -0.36772  -0.36031  -0.35202
 Alpha  occ. eigenvalues --   -0.34885  -0.34394  -0.34005  -0.33103  -0.32717
 Alpha  occ. eigenvalues --   -0.32390  -0.30319  -0.29863  -0.28845  -0.28419
 Alpha  occ. eigenvalues --   -0.28158  -0.27562  -0.26494  -0.26072  -0.25287
 Alpha  occ. eigenvalues --   -0.24982  -0.24581  -0.22684  -0.21990  -0.21667
 Alpha  occ. eigenvalues --   -0.20806  -0.16223  -0.15293  -0.13821  -0.12839
 Alpha  occ. eigenvalues --    0.04236
 Alpha virt. eigenvalues --    0.05704   0.06197   0.06917   0.07517   0.08083
 Alpha virt. eigenvalues --    0.08333   0.08890   0.09132   0.09333   0.09995
 Alpha virt. eigenvalues --    0.10421   0.10616   0.11131   0.11226   0.11714

  Beta  occ. eigenvalues --  -88.74868 -18.99709 -14.24437 -14.20054 -10.18137
  Beta  occ. eigenvalues --  -10.12179 -10.11157 -10.10811 -10.10023 -10.09646
  Beta  occ. eigenvalues --  -10.09352 -10.09043 -10.07073 -10.06906 -10.06842
  Beta  occ. eigenvalues --  -10.06497 -10.06407  -7.83471  -5.79873  -5.79501
  Beta  occ. eigenvalues --   -5.78832  -0.94714  -0.85395  -0.79784  -0.73890
  Beta  occ. eigenvalues --   -0.72144  -0.67458  -0.66286  -0.64802  -0.62778
  Beta  occ. eigenvalues --   -0.58092  -0.57261  -0.53030  -0.52741  -0.50514
  Beta  occ. eigenvalues --   -0.49084  -0.45979  -0.42273  -0.41661  -0.39955
  Beta  occ. eigenvalues --   -0.39298  -0.37355  -0.36755  -0.36002  -0.35179
  Beta  occ. eigenvalues --   -0.34863  -0.34369  -0.33985  -0.33080  -0.32693
  Beta  occ. eigenvalues --   -0.32369  -0.30292  -0.29837  -0.28816  -0.28397
  Beta  occ. eigenvalues --   -0.28133  -0.27539  -0.26469  -0.26044  -0.25264
  Beta  occ. eigenvalues --   -0.24957  -0.24555  -0.22658  -0.21967  -0.21643
  Beta  occ. eigenvalues --   -0.20786  -0.16206  -0.15267  -0.13808  -0.12808
  Beta virt. eigenvalues --    0.06187   0.06501   0.06837   0.07376   0.07974
  Beta virt. eigenvalues --    0.08356   0.08747   0.09255   0.09420   0.09577
  Beta virt. eigenvalues --    0.10328   0.10638   0.10826   0.11310   0.11507

 Mulliken charges and spin densities:
               1          2
     1  C   -0.211010  -0.527377
     2  S    0.189178   0.150820
     3  C   -0.470208  -0.248509
     4  C    0.249279  -0.082930
     5  C   -0.258379  -0.424793
     6  O   -0.194302   0.009290
     7  N    0.633641   0.080727
     8  C    0.123600  -0.129495
     9  C    0.051771  -0.506353
    10  N   -0.416770   0.344884
    11  C    1.522002  -2.178840
    12  C   -1.434188   0.696888
    13  C   -0.190169   0.400042
    14  C    0.097575  -0.383327
    15  C   -0.107955  -0.419085
    16  C    0.178594  -0.524591
    17  C   -0.056821  -0.205716
    18  H   -0.092703   0.264499
    19  H    0.084638   0.104217
    20  H    0.053341   0.118464
    21  H    0.275358  -0.067103
    22  H   -0.285647   0.532430
    23  H   -0.158486   0.334949
    24  H   -0.174827   0.362696
    25  H    0.226689  -0.133415
    26  H   -0.153778   0.349503
    27  H   -0.561272   0.760519
    28  H    0.217292  -0.085979
    29  H   -0.234138   0.501781
    30  H    0.111584   0.042144
    31  H   -0.046757   0.239524
    32  H   -0.191628   0.384848
    33  H    0.326804  -0.184537
    34  H   -0.073229   0.230203
    35  H   -0.270288   0.450316
    36  H   -0.195343   0.365435
    37  H    0.095762   0.018334
    38  H    0.018145   0.112641
    39  H    0.045794   0.128448
    40  H    0.187588   0.037734
    41  H    0.089262   0.080717
 Sum of Mulliken charges =  -1.00000   1.00000

 Dipole moment (field-independent basis, Debye):
    X=             -1.5231    Y=             -3.0700    Z=              0.0113  Tot=              3.4271
 Quadrupole moment (field-independent basis, Debye-Ang):
   XX=           -193.4584   YY=           -166.8723   ZZ=           -154.3145
   XY=             -3.4756   XZ=             -3.2817   YZ=             -5.4532

 Summary of Natural Population Analysis:

                                       Natural Population
                Natural  -----------------------------------------------
    Atom  No    Charge         Core      Valence    Rydberg      Total
 -----------------------------------------------------------------------
      C    1   -0.34695      0.99961     2.34188    0.00546     3.34695
      S    2    0.07476      4.99964     2.90771    0.01789     7.92524
      C    3   -0.24830      0.99958     2.23706    0.01166     3.24830
      C    4   -0.23557      0.99957     2.22494    0.01107     3.23557
      C    5    0.35537      0.99963     1.61940    0.02560     2.64463
      O    6   -0.32835      0.99988     3.32302    0.00545     4.32835
      N    7   -0.26942      0.99962     2.75607    0.01372     3.76942
      C    8   -0.08833      0.99958     2.07850    0.01026     3.08833
      C    9   -0.09268      0.99961     2.08151    0.01156     3.09268
      N   10   -0.34148      0.99974     2.82915    0.01259     3.84148
      C   11   -0.09740      0.99954     2.08494    0.01292     3.09740
      C   12    0.07784      0.99953     1.90696    0.01566     2.92216
      C   13   -0.19781      0.99957     2.18768    0.01055     3.19781
      C   14   -0.18870      0.99962     2.18079    0.00829     3.18870
      C   15   -0.18956      0.99963     2.18216    0.00777     3.18956
      C   16   -0.18774      0.99962     2.18030    0.00782     3.18774
      C   17   -0.20011      0.99958     2.19120    0.00933     3.20011
      H   18    0.10602      0.00000     0.39260    0.00138     0.39398
      H   19    0.11215      0.00000     0.38612    0.00172     0.38785
      H   20    0.09801      0.00000     0.40060    0.00140     0.40199
      H   21    0.10987      0.00000     0.38864    0.00149     0.39013
      H   22    0.10575      0.00000     0.39282    0.00143     0.39425
      H   23    0.11297      0.00000     0.38562    0.00141     0.38703
      H   24    0.10310      0.00000     0.39536    0.00154     0.39690
      H   25    0.10719      0.00000     0.39104    0.00177     0.39281
      H   26    0.09700      0.00000     0.40155    0.00146     0.40300
      H   27    0.09834      0.00000     0.40010    0.00156     0.40166
      H   28    0.08249      0.00000     0.41504    0.00246     0.41751
      H   29    0.18086      0.00000     0.31431    0.00483     0.31914
      H   30    0.08738      0.00000     0.41070    0.00192     0.41262
      H   31    0.10036      0.00000     0.39812    0.00152     0.39964
      H   32    0.09854      0.00000     0.40000    0.00146     0.40146
      H   33    0.11018      0.00000     0.38793    0.00189     0.38982
      H   34    0.09584      0.00000     0.40269    0.00147     0.40416
      H   35    0.09952      0.00000     0.39949    0.00099     0.40048
      H   36    0.09754      0.00000     0.40148    0.00098     0.40246
      H   37    0.09130      0.00000     0.40751    0.00119     0.40870
      H   38    0.09337      0.00000     0.40530    0.00133     0.40663
      H   39    0.09846      0.00000     0.40076    0.00078     0.40154
      H   40    0.11960      0.00000     0.37930    0.00111     0.38040
      H   41    0.09859      0.00000     0.39989    0.00152     0.40141
 =======================================================================
   * Total *   -0.00000     20.99355    48.77025    0.23620    70.00000

 Normal termination of Gaussian 16 at Fri Dec 11 16:30:02 2020.
