 Gaussian 16, Revision A.03,

 -----------------------------------------------------------
 # opt freq B3LYP/6-31G(d) empiricaldispersion=gd3bj scf=xqc
 -----------------------------------------------------------

 -------------------------------
 CID_151115856_JID_4095_neutraal
 -------------------------------
 Symbolic Z-matrix:
 Charge =  0 Multiplicity = 1

 SCF Done:  E(RB3LYP) =  -608.445060135     A.U. after   18 cycles
 SCF Done:  E(RB3LYP) =  -608.449672741     A.U. after   16 cycles
 SCF Done:  E(RB3LYP) =  -608.451672072     A.U. after   13 cycles
 SCF Done:  E(RB3LYP) =  -608.452661198     A.U. after   14 cycles
 SCF Done:  E(RB3LYP) =  -608.453519486     A.U. after   15 cycles
 SCF Done:  E(RB3LYP) =  -608.454380109     A.U. after   15 cycles
 SCF Done:  E(RB3LYP) =  -608.455818613     A.U. after   16 cycles
 SCF Done:  E(RB3LYP) =  -608.456730561     A.U. after   16 cycles
 SCF Done:  E(RB3LYP) =  -608.457050455     A.U. after   13 cycles
 SCF Done:  E(RB3LYP) =  -608.457184138     A.U. after   13 cycles
 SCF Done:  E(RB3LYP) =  -608.457230265     A.U. after    8 cycles
 SCF Done:  E(RB3LYP) =  -608.457230312     A.U. after    8 cycles
 SCF Done:  E(RB3LYP) =  -608.457230354     A.U. after    8 cycles
 SCF Done:  E(RB3LYP) =  -608.457230384     A.U. after    8 cycles
 SCF Done:  E(RB3LYP) =  -608.457230395     A.U. after    8 cycles
 Optimization completed.
    -- Stationary point found.
 Normal termination of Gaussian 16 at Thu Dec 10 09:20:32 2020.

 --------------------------------------------------------------------
 #N Geom=AllCheck Guess=TCheck SCRF=Check GenChk RB3LYP/6-31G(d) Freq
 --------------------------------------------------------------------

 Structure from the checkpoint file:  "JID_4095.chk"
 -------------------------------
 CID_151115856_JID_4095_neutraal
 -------------------------------
 Charge =  0 Multiplicity = 1

 SCF Done:  E(RB3LYP) =  -608.457230395     A.U. after    1 cycles

  Exact polarizability: 167.245   9.240 146.588  -2.670   8.480  82.404
 Approx polarizability: 257.460  25.581 221.543   6.088  21.019 136.784

                      1                      2                      3
                      A                      A                      A
 Frequencies --     27.4839                38.3991                66.0312
 Red. masses --      7.0411                 4.7659                 3.0111
 Frc consts  --      0.0031                 0.0041                 0.0077
 IR Inten    --      0.1212                 0.4073                 0.1266

                      4                      5                      6
                      A                      A                      A
 Frequencies --     77.2405                97.8430               177.4682
 Red. masses --      4.3348                 3.6628                 4.7993
 Frc consts  --      0.0152                 0.0207                 0.0891
 IR Inten    --      0.0333                 0.1257                 0.3755

                      7                      8                      9
                      A                      A                      A
 Frequencies --    220.1744               239.6301               255.9322
 Red. masses --      3.7781                 1.0867                 5.7895
 Frc consts  --      0.1079                 0.0368                 0.2234
 IR Inten    --      1.1198                 0.0485                 2.0391

                     10                     11                     12
                      A                      A                      A
 Frequencies --    275.2555               299.9841               318.2335
 Red. masses --      3.4763                 1.3193                 2.7437
 Frc consts  --      0.1552                 0.0699                 0.1637
 IR Inten    --      4.9970                 1.1786                 0.9390

                     13                     14                     15
                      A                      A                      A
 Frequencies --    332.7952               400.5853               420.9358
 Red. masses --      2.4112                 2.4858                 2.0949
 Frc consts  --      0.1573                 0.2350                 0.2187
 IR Inten    --      0.2653                 0.3091                 0.3597

                     16                     17                     18
                      A                      A                      A
 Frequencies --    464.9892               478.4822               517.6178
 Red. masses --      3.3106                 2.9086                 3.6892
 Frc consts  --      0.4217                 0.3923                 0.5824
 IR Inten    --      1.2651                11.0436                16.7900

                     19                     20                     21
                      A                      A                      A
 Frequencies --    569.2598               588.5811               622.5544
 Red. masses --     11.0085                 4.8159                 5.3467
 Frc consts  --      2.1018                 0.9830                 1.2209
 IR Inten    --      5.2175                19.7780                 4.6778

                     22                     23                     24
                      A                      A                      A
 Frequencies --    639.0444               739.2143               761.2809
 Red. masses --      3.9203                 4.0127                 1.4301
 Frc consts  --      0.9433                 1.2919                 0.4883
 IR Inten    --     62.7296                 0.5429                38.2604

                     25                     26                     27
                      A                      A                      A
 Frequencies --    794.4860               826.9064               839.1619
 Red. masses --      4.0965                 2.4986                 3.4195
 Frc consts  --      1.5235                 1.0066                 1.4187
 IR Inten    --     26.5509                 4.4260                 9.4128

                     28                     29                     30
                      A                      A                      A
 Frequencies --    872.4021               885.5148               904.3063
 Red. masses --      1.6472                 2.0432                 1.5385
 Frc consts  --      0.7386                 0.9440                 0.7413
 IR Inten    --      5.9323                27.1225                 5.4482

                     31                     32                     33
                      A                      A                      A
 Frequencies --    939.2357               942.1828               965.0545
 Red. masses --      1.3494                 1.2164                 1.9966
 Frc consts  --      0.7014                 0.6362                 1.0956
 IR Inten    --      1.1365                 2.5975                 0.6521

                     34                     35                     36
                      A                      A                      A
 Frequencies --    973.9584               978.3178               985.0661
 Red. masses --      1.2467                 1.4786                 4.7179
 Frc consts  --      0.6968                 0.8338                 2.6973
 IR Inten    --      0.1724                 0.5401                27.2515

                     37                     38                     39
                      A                      A                      A
 Frequencies --   1077.1370              1097.2120              1148.9717
 Red. masses --      1.9756                 1.8782                 2.1261
 Frc consts  --      1.3505                 1.3322                 1.6537
 IR Inten    --      3.3262                 0.3261                 3.3540

                     40                     41                     42
                      A                      A                      A
 Frequencies --   1160.5060              1195.6976              1204.8788
 Red. masses --      1.7843                 1.0896                 1.7030
 Frc consts  --      1.4158                 0.9178                 1.4566
 IR Inten    --     14.5822                 0.3896                11.6614

                     43                     44                     45
                      A                      A                      A
 Frequencies --   1214.6325              1234.5402              1259.2405
 Red. masses --      2.0505                 7.5853                 1.5508
 Frc consts  --      1.7824                 6.8114                 1.4489
 IR Inten    --      5.7344                40.0366                 4.7016

                     46                     47                     48
                      A                      A                      A
 Frequencies --   1276.4920              1327.2901              1335.0720
 Red. masses --      3.2354                 1.3991                 1.4289
 Frc consts  --      3.1061                 1.4523                 1.5005
 IR Inten    --     27.1963                 7.2068                 2.9472

                     49                     50                     51
                      A                      A                      A
 Frequencies --   1364.8449              1388.4766              1391.2981
 Red. masses --      3.6412                 1.4638                 1.4057
 Frc consts  --      3.9963                 1.6627                 1.6032
 IR Inten    --      6.5412                 1.1016                 3.8415

                     52                     53                     54
                      A                      A                      A
 Frequencies --   1428.2729              1447.2065              1482.9186
 Red. masses --      1.2922                 1.2363                 1.4065
 Frc consts  --      1.5531                 1.5256                 1.8223
 IR Inten    --      4.7756                 4.2013                14.0690

                     55                     56                     57
                      A                      A                      A
 Frequencies --   1509.9218              1520.1725              1524.9607
 Red. masses --      1.9408                 1.0522                 1.0687
 Frc consts  --      2.6070                 1.4326                 1.4642
 IR Inten    --     19.2332                 1.7177                 1.5646

                     58                     59                     60
                      A                      A                      A
 Frequencies --   1535.7645              1540.9947              1544.7971
 Red. masses --      1.2047                 1.2663                 1.1780
 Frc consts  --      1.6740                 1.7716                 1.6562
 IR Inten    --     22.9099                 9.0082                10.1046

                     61                     62                     63
                      A                      A                      A
 Frequencies --   1548.1782              1646.6762              1669.1807
 Red. masses --      1.2981                 5.2911                 5.8713
 Frc consts  --      1.8332                 8.4531                 9.6380
 IR Inten    --     22.6005                 9.2127                22.5264

                     64                     65                     66
                      A                      A                      A
 Frequencies --   2234.4761              3020.7160              3028.2268
 Red. masses --     13.9328                 1.0656                 1.0604
 Frc consts  --     40.9864                 5.7288                 5.7294
 IR Inten    --    519.2750                 5.8449                26.1927

                     67                     68                     69
                      A                      A                      A
 Frequencies --   3037.7420              3044.2252              3077.2062
 Red. masses --      1.0431                 1.0541                 1.1030
 Frc consts  --      5.6713                 5.7554                 6.1536
 IR Inten    --      8.9754                55.8969                16.3980

                     70                     71                     72
                      A                      A                      A
 Frequencies --   3095.2744              3104.7525              3113.4597
 Red. masses --      1.0926                 1.0997                 1.1026
 Frc consts  --      6.1674                 6.2458                 6.2972
 IR Inten    --     17.0566                60.2887                33.3087

                     73                     74                     75
                      A                      A                      A
 Frequencies --   3121.2930              3172.7920              3191.5919
 Red. masses --      1.1023                 1.0877                 1.0881
 Frc consts  --      6.3272                 6.4513                 6.5302
 IR Inten    --     34.4375                12.6197                10.3350

                     76                     77                     78
                      A                      A                      A
 Frequencies --   3209.7499              3230.5638              3549.2445
 Red. masses --      1.0952                 1.0921                 1.0746
 Frc consts  --      6.6482                 6.7151                 7.9757
 IR Inten    --     29.3483                 7.9732                29.4856

 - Thermochemistry -
 -------------------
 Temperature   298.150 Kelvin.  Pressure   1.00000 Atm.
 Atom     1 has atomic number  6 and mass  12.00000

 Molecular mass:   190.12185 amu.
 Principal axes and moments of inertia in atomic units:
                           1         2         3
     Eigenvalues --  2164.666823686.827215331.72235
           X            0.99698  -0.07747  -0.00513
           Y            0.07745   0.99699  -0.00321
           Z            0.00537   0.00280   0.99998
 This molecule is an asymmetric top.
 Rotational symmetry number  1.
 Warning -- assumption of classical behavior for rotation
           may cause significant error
 Rotational temperatures (Kelvin)      0.04001     0.02349     0.01625
 Rotational constants (GHZ):           0.83373     0.48951     0.33849
 Zero-point vibrational energy     615133.3 (Joules/Mol)
                                  147.02039 (Kcal/Mol)
 Warning -- explicit consideration of  20 degrees of freedom as
           vibrations may cause significant error
 Vibrational temperatures:     39.54    55.25    95.00   111.13   140.77
          (Kelvin)            255.34   316.78   344.77   368.23   396.03
                              431.61   457.87   478.82   576.35   605.63
                              669.02   688.43   744.74   819.04   846.84
                              895.72   919.44  1063.56  1095.31  1143.09
                             1189.73  1207.37  1255.19  1274.06  1301.10
                             1351.35  1355.59  1388.50  1401.31  1407.58
                             1417.29  1549.76  1578.64  1653.11  1669.71
                             1720.34  1733.55  1747.59  1776.23  1811.77
                             1836.59  1909.67  1920.87  1963.71  1997.71
                             2001.77  2054.97  2082.21  2133.59  2172.44
                             2187.19  2194.08  2209.62  2217.15  2222.62
                             2227.48  2369.20  2401.58  3214.91  4346.14
                             4356.94  4370.63  4379.96  4427.41  4453.41
                             4467.05  4479.57  4490.84  4564.94  4591.99
                             4618.11  4648.06  5106.57

 Zero-point correction=                           0.234292 (Hartree/Particle)
 Thermal correction to Energy=                    0.247987
 Thermal correction to Enthalpy=                  0.248932
 Thermal correction to Gibbs Free Energy=         0.192516
 Sum of electronic and zero-point Energies=           -608.222938
 Sum of electronic and thermal Energies=              -608.209243
 Sum of electronic and thermal Enthalpies=            -608.208299
 Sum of electronic and thermal Free Energies=         -608.264715

                     E (Thermal)             CV                S
                      KCal/Mol        Cal/Mol-Kelvin    Cal/Mol-Kelvin
 Total                  155.614             51.485            118.737
 Electronic               0.000              0.000              0.000
 Translational            0.889              2.981             41.633
 Rotational               0.889              2.981             32.120
 Vibrational            153.837             45.523             44.984
 Vibration     1          0.593              1.984              6.003
 Vibration     2          0.594              1.982              5.340
 Vibration     3          0.597              1.970              4.268
 Vibration     4          0.599              1.964              3.960
 Vibration     5          0.603              1.951              3.497
 Vibration     6          0.628              1.870              2.355
 Vibration     7          0.647              1.810              1.958
 Vibration     8          0.657              1.780              1.806
 Vibration     9          0.666              1.753              1.689
 Vibration    10          0.677              1.719              1.563
 Vibration    11          0.693              1.674              1.417
 Vibration    12          0.705              1.639              1.319
 Vibration    13          0.715              1.610              1.246
 Vibration    14          0.766              1.469              0.961
 Vibration    15          0.783              1.425              0.889
 Vibration    16          0.822              1.328              0.752
 Vibration    17          0.835              1.298              0.714
 Vibration    18          0.873              1.211              0.616
 Vibration    19          0.925              1.098              0.506
 Vibration    20          0.946              1.056              0.470

                           ! Non-Optimized Parameters !
 Normal termination of Gaussian 16 at Thu Dec 10 09:27:53 2020.

 ----------------------------------------------------------------------
 # B3LYP/6-311++G(d,p) empiricaldispersion=gd3bj scf=xqc pop=npa geom=c
 heck
 ----------------------------------------------------------------------

 ---------------------------------------
 CID_151115856_JID_4095_Energie_neutraal
 ---------------------------------------
 Structure from the checkpoint file:  "JID_4095.chk"
 Charge =  0 Multiplicity = 1

 SCF Done:  E(RB3LYP) =  -608.622707015     A.U. after   16 cycles
 Normal termination of Gaussian 16 at Thu Dec 10 09:31:04 2020.

 ----------------------------------------------------------------------
 # B3LYP/6-311++G(d,p) empiricaldispersion=gd3bj scf=xqc pop=npa geom=c
 heck
 ----------------------------------------------------------------------

 -------------------------------------
 CID_151115856_JID_4095_Energie_kation
 -------------------------------------
 Structure from the checkpoint file:  "JID_4095.chk"
 Charge =  1 Multiplicity = 2

 SCF Done:  E(UB3LYP) =  -608.332515926     A.U. after   27 cycles
 Normal termination of Gaussian 16 at Thu Dec 10 09:38:35 2020.
 Gaussian 16:  ES64L-G16RevA.03 25-Dec-2016

 ----------------------------------------------------------------------
 # B3LYP/6-311++G(d,p) empiricaldispersion=gd3bj scf=xqc pop=npa geom=c
 heck
 ----------------------------------------------------------------------

 ------------------------------------
 CID_151115856_JID_4095_Energie_anion
 ------------------------------------
 Structure from the checkpoint file:  "JID_4095.chk"
 Charge = -1 Multiplicity = 2

                         Standard orientation:
 ---------------------------------------------------------------------
 Center     Atomic      Atomic             Coordinates (Angstroms)
 Number     Number       Type             X           Y           Z
 ---------------------------------------------------------------------
      1          6           0        1.957564   -1.394568    1.374448
      2          6           0        2.666768   -0.726487    0.191203
      3          6           0        3.732887   -1.653467   -0.402219
      4          6           0        1.679479   -0.268921   -0.908694
      5          6           0        0.682929    0.774530   -0.451632
      6          6           0        1.070356    2.116444   -0.401996
      7          6           0        0.202121    3.122490    0.018839
      8          6           0       -1.095252    2.782678    0.396851
      9          6           0       -1.512686    1.454105    0.356732
     10          6           0       -0.632111    0.450305   -0.057980
     11          7           0       -1.057654   -0.906092   -0.166950
     12          7           0       -2.233784   -1.216060    0.610115
     13          7           0       -3.188704   -1.529999   -0.138111
     14          7           0       -4.153624   -1.838590   -0.656834
     15          1           0        1.478443   -2.334896    1.064906
     16          1           0        1.196237   -0.739646    1.811479
     17          1           0        2.670690   -1.648833    2.166346
     18          1           0        3.165271    0.177274    0.569903
     19          1           0        3.275212   -2.566789   -0.803985
     20          1           0        4.276075   -1.165755   -1.219877
     21          1           0        4.463617   -1.954326    0.357135
     22          1           0        2.265375    0.152110   -1.735090
     23          1           0        1.166210   -1.145032   -1.326018
     24          1           0        2.082090    2.371169   -0.710398
     25          1           0        0.532994    4.156323    0.043165
     26          1           0       -1.790508    3.549629    0.726224
     27          1           0       -2.516986    1.185209    0.661412
     28          1           0       -0.340688   -1.543906    0.163950
 ---------------------------------------------------------------------

 SCF Done:  E(UB3LYP) =  -608.622810698     A.U. after   33 cycles
 SCF Done:  E(UB3LYP) =  -608.622810698     a.u. after    1 cycles

 The electronic state is 2-A.
 Alpha  occ. eigenvalues --  -14.30007 -14.23065 -14.22984 -14.21660 -10.10373
 Alpha  occ. eigenvalues --  -10.07744 -10.07455 -10.07265 -10.07104 -10.06889
 Alpha  occ. eigenvalues --  -10.06736 -10.06242 -10.05878 -10.05790  -0.98582
 Alpha  occ. eigenvalues --   -0.86927  -0.77512  -0.72924  -0.71172  -0.65478
 Alpha  occ. eigenvalues --   -0.62767  -0.58677  -0.57824  -0.51274  -0.49361
 Alpha  occ. eigenvalues --   -0.46105  -0.43616  -0.42230  -0.37912  -0.36866
 Alpha  occ. eigenvalues --   -0.36536  -0.35076  -0.34315  -0.33878  -0.32974
 Alpha  occ. eigenvalues --   -0.31982  -0.30387  -0.29646  -0.28794  -0.27919
 Alpha  occ. eigenvalues --   -0.27432  -0.25660  -0.25525  -0.23734  -0.22936
 Alpha  occ. eigenvalues --   -0.22595  -0.22469  -0.17343  -0.14646  -0.11793
 Alpha  occ. eigenvalues --   -0.10229   0.04562
 Alpha virt. eigenvalues --    0.06188   0.07264   0.08121   0.08609   0.08938
 Alpha virt. eigenvalues --    0.09718   0.09973   0.10190   0.11226   0.11718
 Alpha virt. eigenvalues --    0.11856   0.12514   0.13042   0.13690   0.14700

  Beta  occ. eigenvalues --  -14.29567 -14.23120 -14.22813 -14.21036 -10.10366
  Beta  occ. eigenvalues --  -10.07736 -10.07450 -10.07262 -10.07099 -10.06873
  Beta  occ. eigenvalues --  -10.06735 -10.06241 -10.05842 -10.05759  -0.97735
  Beta  occ. eigenvalues --   -0.86533  -0.77319  -0.72704  -0.71148  -0.65453
  Beta  occ. eigenvalues --   -0.62668  -0.58611  -0.57774  -0.51137  -0.49302
  Beta  occ. eigenvalues --   -0.46042  -0.43319  -0.42144  -0.37765  -0.36549
  Beta  occ. eigenvalues --   -0.35321  -0.34885  -0.34039  -0.33771  -0.32813
  Beta  occ. eigenvalues --   -0.31885  -0.29701  -0.29061  -0.28729  -0.27603
  Beta  occ. eigenvalues --   -0.27349  -0.25494  -0.25451  -0.23587  -0.22808
  Beta  occ. eigenvalues --   -0.22497  -0.21924  -0.16831  -0.14639  -0.11619
  Beta  occ. eigenvalues --   -0.10091
  Beta virt. eigenvalues --    0.06712   0.07385   0.08366   0.08696   0.09204
  Beta virt. eigenvalues --    0.09844   0.10010   0.10126   0.11336   0.11728
  Beta virt. eigenvalues --    0.11931   0.12059   0.12583   0.13308   0.13852

 Mulliken charges and spin densities:
               1          2
     1  C    0.309905  -1.048319
     2  C   -1.647006   2.046455
     3  C    1.099462  -1.780323
     4  C    0.969122  -1.917726
     5  C    0.505025   0.662212
     6  C   -0.558866   0.165392
     7  C   -0.389037  -0.172246
     8  C   -0.103088  -0.123748
     9  C   -0.419076   0.177714
    10  C    0.056359  -0.097896
    11  N   -0.033819   0.049461
    12  N   -0.541497  -0.127999
    13  N    0.302759   0.254913
    14  N   -0.204367   0.401694
    15  H   -0.069511   0.216407
    16  H    0.084903   0.069672
    17  H   -0.114116   0.264344
    18  H    0.026403   0.122973
    19  H   -0.050582   0.180564
    20  H   -0.386638   0.516849
    21  H   -0.320690   0.459127
    22  H    0.140753   0.019441
    23  H    0.106609   0.102720
    24  H   -0.116837   0.260739
    25  H    0.089653   0.043322
    26  H    0.135886  -0.000166
    27  H    0.058836   0.106563
    28  H    0.069453   0.147863
 Sum of Mulliken charges =  -1.00000   1.00000

 Dipole moment (field-independent basis, Debye):
    X=              1.0872    Y=              4.9392    Z=              0.4234  Tot=              5.0752
 Quadrupole moment (field-independent basis, Debye-Ang):
   XX=           -161.6500   YY=           -114.6368   ZZ=           -108.0848
   XY=             -4.3691   XZ=             -3.1033   YZ=              1.0624

 Summary of Natural Population Analysis:

                                       Natural Population
                Natural  -----------------------------------------------
    Atom  No    Charge         Core      Valence    Rydberg      Total
 -----------------------------------------------------------------------
      C    1   -0.29066      0.99965     2.28473    0.00629     3.29066
      C    2   -0.10919      0.99961     2.10068    0.00890     3.10919
      C    3   -0.28374      0.99965     2.27807    0.00601     3.28374
      C    4   -0.20073      0.99959     2.19118    0.00997     3.20073
      C    5   -0.03173      0.99947     2.02174    0.01052     3.03173
      C    6   -0.09526      0.99952     2.08731    0.00843     3.09526
      C    7   -0.12570      0.99957     2.11573    0.01041     3.12570
      C    8   -0.10065      0.99957     2.09132    0.00976     3.10065
      C    9   -0.12239      0.99952     2.11412    0.00875     3.12239
      C   10    0.08779      0.99941     1.90112    0.01168     2.91221
      N   11   -0.22369      0.99966     2.71272    0.01130     3.72369
      N   12   -0.16520      0.99973     2.64955    0.01592     3.66520
      N   13    0.14696      0.99970     2.33825    0.01509     3.35304
      N   14    0.03424      0.99982     2.45161    0.01433     3.46576
      H   15    0.09412      0.00000     0.40459    0.00129     0.40588
      H   16    0.10506      0.00000     0.39379    0.00116     0.39494
      H   17    0.10105      0.00000     0.39810    0.00084     0.39895
      H   18    0.09143      0.00000     0.40667    0.00190     0.40857
      H   19    0.09621      0.00000     0.40270    0.00109     0.40379
      H   20    0.09889      0.00000     0.39985    0.00126     0.40111
      H   21    0.09997      0.00000     0.39888    0.00114     0.40003
      H   22    0.10343      0.00000     0.39540    0.00117     0.39657
      H   23    0.10382      0.00000     0.39454    0.00164     0.39618
      H   24    0.09714      0.00000     0.40184    0.00102     0.40286
      H   25    0.09632      0.00000     0.40288    0.00080     0.40368
      H   26    0.09597      0.00000     0.40326    0.00077     0.40403
      H   27    0.11200      0.00000     0.38685    0.00115     0.38800
      H   28    0.18452      0.00000     0.31208    0.00339     0.31548
 =======================================================================
   * Total *    0.00000     13.99447    36.83954    0.16599    51.00000

 Normal termination of Gaussian 16 at Thu Dec 10 09:47:30 2020.
