 Gaussian 16, Revision A.03,

 -----------------------------------------------------------
 # opt freq B3LYP/6-31G(d) empiricaldispersion=gd3bj scf=xqc
 -----------------------------------------------------------

 ------------------------------
 CID_22648258_JID_5844_neutraal
 ------------------------------
 Symbolic Z-matrix:
 Charge =  0 Multiplicity = 1

 SCF Done:  E(RB3LYP) =  -721.010018073     A.U. after   17 cycles
 SCF Done:  E(RB3LYP) =  -721.012403377     A.U. after   15 cycles
 SCF Done:  E(RB3LYP) =  -721.009235992     A.U. after   16 cycles
 SCF Done:  E(RB3LYP) =  -721.015974212     A.U. after   14 cycles
 SCF Done:  E(RB3LYP) =  -721.016223089     A.U. after   15 cycles
 SCF Done:  E(RB3LYP) =  -721.016788392     A.U. after   14 cycles
 SCF Done:  E(RB3LYP) =  -721.016888980     A.U. after   13 cycles
 SCF Done:  E(RB3LYP) =  -721.016916047     A.U. after   12 cycles
 SCF Done:  E(RB3LYP) =  -721.016925605     A.U. after   12 cycles
 SCF Done:  E(RB3LYP) =  -721.016932864     A.U. after   12 cycles
 SCF Done:  E(RB3LYP) =  -721.017054501     A.U. after   12 cycles
 SCF Done:  E(RB3LYP) =  -721.017055043     A.U. after   10 cycles
 SCF Done:  E(RB3LYP) =  -721.017055131     A.U. after    9 cycles
 SCF Done:  E(RB3LYP) =  -721.017055139     A.U. after    8 cycles
 Optimization completed.
    -- Stationary point found.
 Normal termination of Gaussian 16 at Thu Dec 10 17:54:05 2020.

 --------------------------------------------------------------------
 #N Geom=AllCheck Guess=TCheck SCRF=Check GenChk RB3LYP/6-31G(d) Freq
 --------------------------------------------------------------------

 Structure from the checkpoint file:  "JID_5844.chk"
 ------------------------------
 CID_22648258_JID_5844_neutraal
 ------------------------------
 Charge =  0 Multiplicity = 1

 SCF Done:  E(RB3LYP) =  -721.017055139     A.U. after    1 cycles

  Exact polarizability: 200.295   1.762 141.959  -0.734   0.593  49.742
 Approx polarizability: 290.204  11.406 298.135  -2.586   4.401  78.966

                      1                      2                      3
                      A                      A                      A
 Frequencies --     29.7199                45.4760                52.9733
 Red. masses --     13.4853                 1.2503                 3.4571
 Frc consts  --      0.0070                 0.0015                 0.0057
 IR Inten    --      0.9293                 0.0903                 0.0073

                      4                      5                      6
                      A                      A                      A
 Frequencies --    124.4433               165.2346               172.7588
 Red. masses --      4.2626                 4.5090                 5.7214
 Frc consts  --      0.0389                 0.0725                 0.1006
 IR Inten    --      5.5346                 0.8719                 1.5540

                      7                      8                      9
                      A                      A                      A
 Frequencies --    258.9255               268.6097               313.0403
 Red. masses --      7.4934                 5.4470                 3.5823
 Frc consts  --      0.2960                 0.2316                 0.2068
 IR Inten    --      1.8088                 4.2505                 2.1332

                     10                     11                     12
                      A                      A                      A
 Frequencies --    322.9961               375.1871               423.8118
 Red. masses --      9.2739                 4.4869                 3.4231
 Frc consts  --      0.5700                 0.3721                 0.3623
 IR Inten    --      1.1347                 2.3231                 9.7999

                     13                     14                     15
                      A                      A                      A
 Frequencies --    431.2840               461.6036               481.4323
 Red. masses --      9.2450                 5.6473                 3.5562
 Frc consts  --      1.0132                 0.7090                 0.4856
 IR Inten    --      1.3776                 2.1268                25.9667

                     16                     17                     18
                      A                      A                      A
 Frequencies --    533.5839               554.4146               591.0850
 Red. masses --      6.3564                 2.6856                 1.3788
 Frc consts  --      1.0663                 0.4864                 0.2838
 IR Inten    --      1.1054                 2.9208                64.3469

                     19                     20                     21
                      A                      A                      A
 Frequencies --    610.0626               663.7348               694.6350
 Red. masses --      7.2783                 8.0766                 5.7889
 Frc consts  --      1.5960                 2.0964                 1.6457
 IR Inten    --      8.6357                 7.0780                 0.5261

                     22                     23                     24
                      A                      A                      A
 Frequencies --    730.3501               749.5188               765.9661
 Red. masses --      5.2029                 7.1137                 7.1422
 Frc consts  --      1.6352                 2.3546                 2.4689
 IR Inten    --     13.3943                 7.0468                 2.6365

                     25                     26                     27
                      A                      A                      A
 Frequencies --    803.7679               820.2608               846.9101
 Red. masses --      6.5307                 1.4076                 9.3929
 Frc consts  --      2.4858                 0.5580                 3.9694
 IR Inten    --     12.0253                25.5546                51.7795

                     28                     29                     30
                      A                      A                      A
 Frequencies --    914.2788               940.7676               962.3110
 Red. masses --      4.8366                 1.3090                 1.3704
 Frc consts  --      2.3820                 0.6826                 0.7477
 IR Inten    --      2.7269                 1.6152                 5.4233

                     31                     32                     33
                      A                      A                      A
 Frequencies --    966.5544               979.1359              1042.4144
 Red. masses --      1.3484                 3.2343                 1.5957
 Frc consts  --      0.7422                 1.8269                 1.0216
 IR Inten    --      0.4975                 1.6094                 5.7702

                     34                     35                     36
                      A                      A                      A
 Frequencies --   1079.7308              1117.6741              1185.8118
 Red. masses --      1.5152                 2.6852                 1.3234
 Frc consts  --      1.0408                 1.9763                 1.0964
 IR Inten    --      4.8452                 2.2809                11.8660

                     37                     38                     39
                      A                      A                      A
 Frequencies --   1207.4199              1230.1056              1269.5806
 Red. masses --      1.8857                 3.4396                 3.5640
 Frc consts  --      1.6197                 3.0665                 3.3846
 IR Inten    --     25.1105                26.3958                 2.2950

                     40                     41                     42
                      A                      A                      A
 Frequencies --   1301.8215              1306.3729              1375.3379
 Red. masses --      1.8147                 1.6930                 8.4966
 Frc consts  --      1.8120                 1.7024                 9.4693
 IR Inten    --     25.8524                45.1211               506.5455

                     43                     44                     45
                      A                      A                      A
 Frequencies --   1388.8640              1393.5420              1444.7997
 Red. masses --      4.4143                 3.7483                 1.2456
 Frc consts  --      5.0168                 4.2887                 1.5320
 IR Inten    --     25.9178                42.3165                 0.1986

                     46                     47                     48
                      A                      A                      A
 Frequencies --   1446.1040              1515.0373              1520.1838
 Red. masses --      2.9325                 1.0440                 1.1673
 Frc consts  --      3.6132                 1.4118                 1.5893
 IR Inten    --      1.7514                 6.8040                22.7400

                     49                     50                     51
                      A                      A                      A
 Frequencies --   1541.2930              1566.4951              1617.3883
 Red. masses --      2.5704                 3.3172                 8.0209
 Frc consts  --      3.5976                 4.7959                12.3623
 IR Inten    --     53.5388               124.0907                47.7293

                     52                     53                     54
                      A                      A                      A
 Frequencies --   1646.2916              1669.2078              1678.1774
 Red. masses --      4.3702                 7.1203                 6.0017
 Frc consts  --      6.9786                11.6888                 9.9587
 IR Inten    --     79.9475               130.1608                40.7710

                     55                     56                     57
                      A                      A                      A
 Frequencies --   1762.3052              3047.6186              3099.3811
 Red. masses --     12.3340                 1.0382                 1.1010
 Frc consts  --     22.5692                 5.6813                 6.2314
 IR Inten    --    321.3741                29.0167                17.4148

                     58                     59                     60
                      A                      A                      A
 Frequencies --   3138.7409              3179.3802              3197.4175
 Red. masses --      1.1004                 1.0875                 1.0947
 Frc consts  --      6.3874                 6.4771                 6.5939
 IR Inten    --     11.1345                 8.8756                17.7026

                     61                     62                     63
                      A                      A                      A
 Frequencies --   3219.5580              3261.9044              3624.1864
 Red. masses --      1.0904                 1.0930                 1.0782
 Frc consts  --      6.6591                 6.8522                 8.3441
 IR Inten    --      3.3849                 6.5392                75.9193

 - Thermochemistry -
 -------------------
 Temperature   298.150 Kelvin.  Pressure   1.00000 Atm.
 Atom     1 has atomic number  6 and mass  12.00000

 Molecular mass:   204.05349 amu.
 Principal axes and moments of inertia in atomic units:
                           1         2         3
     Eigenvalues --  1219.466334797.478345993.96425
           X            0.99984  -0.01762   0.00007
           Y            0.01762   0.99984  -0.00171
           Z           -0.00004   0.00171   1.00000
 This molecule is an asymmetric top.
 Rotational symmetry number  1.
 Warning -- assumption of classical behavior for rotation
           may cause significant error
 Rotational temperatures (Kelvin)      0.07103     0.01805     0.01445
 Rotational constants (GHZ):           1.47994     0.37619     0.30109
 Zero-point vibrational energy     449371.1 (Joules/Mol)
                                  107.40227 (Kcal/Mol)
 Warning -- explicit consideration of  19 degrees of freedom as
           vibrations may cause significant error
 Vibrational temperatures:     42.76    65.43    76.22   179.05   237.74
          (Kelvin)            248.56   372.54   386.47   450.40   464.72
                              539.81   609.77   620.52   664.14   692.67
                              767.71   797.68   850.44   877.74   954.97
                              999.42  1050.81  1078.39  1102.05  1156.44
                             1180.17  1218.51  1315.44  1353.55  1384.55
                             1390.66  1408.76  1499.80  1553.49  1608.08
                             1706.12  1737.21  1769.85  1826.64  1873.03
                             1879.58  1978.80  1998.27  2005.00  2078.74
                             2080.62  2179.80  2187.21  2217.58  2253.84
                             2327.06  2368.65  2401.62  2414.52  2535.56
                             4384.84  4459.32  4515.95  4574.42  4600.37
                             4632.23  4693.15  5214.40

 Zero-point correction=                           0.171156 (Hartree/Particle)
 Thermal correction to Energy=                    0.183477
 Thermal correction to Enthalpy=                  0.184422
 Thermal correction to Gibbs Free Energy=         0.130937
 Sum of electronic and zero-point Energies=           -720.845899
 Sum of electronic and thermal Energies=              -720.833578
 Sum of electronic and thermal Enthalpies=            -720.832634
 Sum of electronic and thermal Free Energies=         -720.886118

                     E (Thermal)             CV                S
                      KCal/Mol        Cal/Mol-Kelvin    Cal/Mol-Kelvin
 Total                  115.134             46.581            112.568
 Electronic               0.000              0.000              0.000
 Translational            0.889              2.981             41.844
 Rotational               0.889              2.981             31.928
 Vibrational            113.356             40.619             38.796
 Vibration     1          0.594              1.984              5.848
 Vibration     2          0.595              1.979              5.005
 Vibration     3          0.596              1.976              4.703
 Vibration     4          0.610              1.929              3.030
 Vibration     5          0.624              1.885              2.489
 Vibration     6          0.626              1.876              2.405
 Vibration     7          0.668              1.748              1.669
 Vibration     8          0.673              1.731              1.605
 Vibration     9          0.701              1.649              1.346
 Vibration    10          0.708              1.629              1.295
 Vibration    11          0.746              1.523              1.059
 Vibration    12          0.786              1.418              0.879
 Vibration    13          0.792              1.402              0.854
 Vibration    14          0.819              1.335              0.761
 Vibration    15          0.838              1.291              0.706
 Vibration    16          0.889              1.176              0.579
 Vibration    17          0.910              1.130              0.535
 Vibration    18          0.948              1.051              0.465
 Vibration    19          0.969              1.011              0.433

 Optimization completed.
    -- Stationary point found.
 Normal termination of Gaussian 16 at Thu Dec 10 18:00:41 2020.

 ----------------------------------------------------------------------
 # B3LYP/6-311++G(d,p) empiricaldispersion=gd3bj scf=xqc pop=npa geom=c
 heck
 ----------------------------------------------------------------------

 --------------------------------------
 CID_22648258_JID_5844_Energie_neutraal
 --------------------------------------
 Structure from the checkpoint file:  "JID_5844.chk"
 Charge =  0 Multiplicity = 1

 SCF Done:  E(RB3LYP) =  -721.217317546     A.U. after   18 cycles
 Normal termination of Gaussian 16 at Thu Dec 10 18:03:19 2020.

 ----------------------------------------------------------------------
 # B3LYP/6-311++G(d,p) empiricaldispersion=gd3bj scf=xqc pop=npa geom=c
 heck
 ----------------------------------------------------------------------

 ------------------------------------
 CID_22648258_JID_5844_Energie_kation
 ------------------------------------
 Structure from the checkpoint file:  "JID_5844.chk"
 Charge =  1 Multiplicity = 2

 SCF Done:  E(UB3LYP) =  -720.903072599     A.U. after   33 cycles
 SCF Done:  E(UB3LYP) =  -720.903072599     a.u. after    1 cycles
 Normal termination of Gaussian 16 at Thu Dec 10 18:09:18 2020.
 Gaussian 16:  ES64L-G16RevA.03 25-Dec-2016

 ----------------------------------------------------------------------
 # B3LYP/6-311++G(d,p) empiricaldispersion=gd3bj scf=xqc pop=npa geom=c
 heck
 ----------------------------------------------------------------------

 -----------------------------------
 CID_22648258_JID_5844_Energie_anion
 -----------------------------------
 Structure from the checkpoint file:  "JID_5844.chk"
 Charge = -1 Multiplicity = 2

                         Standard orientation:
 ---------------------------------------------------------------------
 Center     Atomic      Atomic             Coordinates (Angstroms)
 Number     Number       Type             X           Y           Z
 ---------------------------------------------------------------------
      1          6           0        4.318616   -1.325304    0.015357
      2          6           0        3.085189   -0.457298    0.004319
      3          6           0        1.809664   -1.008282    0.023462
      4          6           0        0.658272   -0.207863    0.012371
      5          6           0        0.809646    1.188004   -0.017267
      6          6           0        2.086718    1.766727   -0.036075
      7          6           0        3.202998    0.947558   -0.025694
      8          7           0       -0.334429    1.982783   -0.024923
      9          6           0       -1.573381    1.455601   -0.013782
     10          6           0       -1.791474    0.104310    0.000386
     11          6           0       -0.682741   -0.864149    0.033205
     12          8           0       -0.790761   -2.082052    0.090707
     13          7           0       -3.188220   -0.307482   -0.013711
     14          8           0       -3.445455   -1.484246   -0.234310
     15          8           0       -4.042087    0.570567    0.187634
     16          1           0        4.054960   -2.385960    0.044468
     17          1           0        4.948645   -1.110257    0.886948
     18          1           0        4.932817   -1.154969   -0.877218
     19          1           0        1.660781   -2.082988    0.048537
     20          1           0        2.193598    2.848503   -0.058540
     21          1           0        4.191563    1.399191   -0.040615
     22          1           0       -0.228085    2.987578   -0.045798
     23          1           0       -2.410362    2.141831   -0.017281
 ---------------------------------------------------------------------

 SCF Done:  E(UB3LYP) =  -721.248965320     A.U. after   33 cycles
 SCF Done:  E(UB3LYP) =  -721.248965320     a.u. after    1 cycles

 The electronic state is 2-A.
 Alpha  occ. eigenvalues --  -18.94859 -18.94743 -18.94617 -14.33342 -14.24846
 Alpha  occ. eigenvalues --  -10.11414 -10.10796 -10.07577 -10.07564 -10.07377
 Alpha  occ. eigenvalues --  -10.06799 -10.06789 -10.05956 -10.05900 -10.05706
 Alpha  occ. eigenvalues --   -1.02817  -0.88492  -0.86274  -0.85377  -0.75008
 Alpha  occ. eigenvalues --   -0.67886  -0.66908  -0.64468  -0.59447  -0.55293
 Alpha  occ. eigenvalues --   -0.51842  -0.49845  -0.47132  -0.43551  -0.40910
 Alpha  occ. eigenvalues --   -0.38265  -0.35596  -0.35208  -0.34698  -0.33341
 Alpha  occ. eigenvalues --   -0.33258  -0.32986  -0.31417  -0.31049  -0.30432
 Alpha  occ. eigenvalues --   -0.29049  -0.27083  -0.25151  -0.24738  -0.23937
 Alpha  occ. eigenvalues --   -0.23404  -0.15052  -0.14630  -0.13481  -0.13123
 Alpha  occ. eigenvalues --   -0.10919  -0.09620  -0.09146   0.03025
 Alpha virt. eigenvalues --    0.06543   0.06685   0.07316   0.08946   0.09443
 Alpha virt. eigenvalues --    0.10811   0.11570   0.11944   0.12615   0.12854
 Alpha virt. eigenvalues --    0.13928   0.15105   0.15605   0.16074   0.17391

  Beta  occ. eigenvalues --  -18.94669 -18.94662 -18.94240 -14.32869 -14.24806
  Beta  occ. eigenvalues --  -10.11405 -10.10743 -10.07623 -10.07578 -10.07300
  Beta  occ. eigenvalues --  -10.06618 -10.06218 -10.05948 -10.05863 -10.05721
  Beta  occ. eigenvalues --   -1.02035  -0.88527  -0.85928  -0.84762  -0.74838
  Beta  occ. eigenvalues --   -0.67462  -0.66754  -0.64224  -0.59272  -0.54815
  Beta  occ. eigenvalues --   -0.51366  -0.49662  -0.46862  -0.43430  -0.40533
  Beta  occ. eigenvalues --   -0.37935  -0.35392  -0.34714  -0.33328  -0.33198
  Beta  occ. eigenvalues --   -0.32993  -0.32583  -0.30959  -0.30216  -0.30164
  Beta  occ. eigenvalues --   -0.28985  -0.27001  -0.25052  -0.24486  -0.23899
  Beta  occ. eigenvalues --   -0.22773  -0.14614  -0.13359  -0.13138  -0.10955
  Beta  occ. eigenvalues --   -0.10658  -0.09128  -0.08786
  Beta virt. eigenvalues --    0.06493   0.07018   0.07271   0.08780   0.08900
  Beta virt. eigenvalues --    0.10555   0.10778   0.11910   0.12664   0.12810
  Beta virt. eigenvalues --    0.13881   0.13999   0.15392   0.15560   0.16040

 Mulliken charges and spin densities:
               1          2
     1  C   -0.430171  -0.014929
     2  C    0.585229   0.100196
     3  C   -0.224477  -0.015269
     4  C    2.462791   0.064398
     5  C   -2.385783  -0.012782
     6  C   -0.542554   0.078800
     7  C   -0.479588  -0.027492
     8  N   -0.032785  -0.016457
     9  C    0.144252   0.529525
    10  C   -0.185347  -0.096130
    11  C   -0.240960   0.006108
    12  O   -0.296973  -0.014484
    13  N   -0.398768   0.163974
    14  O   -0.082038   0.184174
    15  O   -0.169804   0.081305
    16  H    0.146226   0.000267
    17  H    0.126723   0.009142
    18  H    0.125523   0.010474
    19  H    0.147775   0.000351
    20  H    0.104890  -0.004203
    21  H    0.123800   0.001977
    22  H    0.254917   0.000565
    23  H    0.247121  -0.029509
 Sum of Mulliken charges =  -1.00000   1.00000

 Dipole moment (field-independent basis, Debye):
    X=             11.0556    Y=              5.8172    Z=             -0.0911  Tot=             12.4930
 Quadrupole moment (field-independent basis, Debye-Ang):
   XX=           -146.5544   YY=            -96.3819   ZZ=            -93.2274
   XY=             -8.1401   XZ=              0.2263   YZ=             -0.8607

 Summary of Natural Population Analysis:

                                       Natural Population
                Natural  -----------------------------------------------
    Atom  No    Charge         Core      Valence    Rydberg      Total
 -----------------------------------------------------------------------
      C    1   -0.29109      0.99965     2.28696    0.00448     3.29109
      C    2   -0.00560      0.99952     1.99804    0.00803     3.00560
      C    3   -0.08326      0.99950     2.07481    0.00895     3.08326
      C    4   -0.05580      0.99945     2.04729    0.00906     3.05580
      C    5    0.09261      0.99947     1.89843    0.00950     2.90739
      C    6   -0.10186      0.99954     2.09386    0.00846     3.10186
      C    7   -0.10679      0.99954     2.09862    0.00863     3.10679
      N    8   -0.25934      0.99965     2.75246    0.00724     3.75934
      C    9    0.15005      0.99956     1.83876    0.01164     2.84995
      C   10   -0.04116      0.99940     2.02793    0.01384     3.04116
      C   11    0.23858      0.99955     1.74193    0.01993     2.76142
      O   12   -0.31323      0.99988     3.30639    0.00696     4.31323
      N   13    0.28738      0.99972     2.18326    0.02964     3.21262
      O   14   -0.15344      0.99990     3.14561    0.00793     4.15344
      O   15   -0.24412      0.99990     3.23659    0.00763     4.24412
      H   16    0.10107      0.00000     0.39810    0.00083     0.39893
      H   17    0.09800      0.00000     0.40102    0.00098     0.40200
      H   18    0.09812      0.00000     0.40090    0.00098     0.40188
      H   19    0.11007      0.00000     0.38837    0.00156     0.38993
      H   20    0.09214      0.00000     0.40622    0.00164     0.40786
      H   21    0.09245      0.00000     0.40655    0.00099     0.40755
      H   22    0.18871      0.00000     0.30923    0.00206     0.31129
      H   23    0.10651      0.00000     0.39227    0.00122     0.39349
 =======================================================================
   * Total *    0.00000     14.99423    37.83359    0.17219    53.00000

 Normal termination of Gaussian 16 at Thu Dec 10 18:15:05 2020.
