 Gaussian 16, Revision A.03,

 -----------------------------------------------------------
 # opt freq B3LYP/6-31G(d) empiricaldispersion=gd3bj scf=xqc
 -----------------------------------------------------------

 ------------------------------
 CID_57282335_JID_4987_neutraal
 ------------------------------
 Symbolic Z-matrix:
 Charge =  0 Multiplicity = 1

 SCF Done:  E(RB3LYP) =  -918.079842980     A.U. after   15 cycles
 SCF Done:  E(RB3LYP) =  -918.082539823     A.U. after   12 cycles
 SCF Done:  E(RB3LYP) =  -918.082934850     A.U. after   12 cycles
 SCF Done:  E(RB3LYP) =  -918.083052565     A.U. after   11 cycles
 SCF Done:  E(RB3LYP) =  -918.083087962     A.U. after   10 cycles
 SCF Done:  E(RB3LYP) =  -918.083094254     A.U. after   10 cycles
 SCF Done:  E(RB3LYP) =  -918.083095925     A.U. after    9 cycles
 SCF Done:  E(RB3LYP) =  -918.083096741     A.U. after    9 cycles
 SCF Done:  E(RB3LYP) =  -918.083096860     A.U. after    8 cycles
 Optimization completed.
    -- Stationary point found.
 Normal termination of Gaussian 16 at Thu Dec 10 11:00:05 2020.

 --------------------------------------------------------------------
 #N Geom=AllCheck Guess=TCheck SCRF=Check GenChk RB3LYP/6-31G(d) Freq
 --------------------------------------------------------------------

 Structure from the checkpoint file:  "JID_4987.chk"
 ------------------------------
 CID_57282335_JID_4987_neutraal
 ------------------------------
 Charge =  0 Multiplicity = 1

 SCF Done:  E(RB3LYP) =  -918.083096860     A.U. after    1 cycles

  Exact polarizability: 171.988  -5.088 122.701 -19.720  -2.316 118.701
 Approx polarizability: 251.306 -11.130 201.817 -44.844  -3.186 212.032

                      1                      2                      3
                      A                      A                      A
 Frequencies --     27.3267                42.4013                72.2082
 Red. masses --      5.7997                 4.2282                 5.0871
 Frc consts  --      0.0026                 0.0045                 0.0156
 IR Inten    --      0.1646                 0.1910                 0.1176

                      4                      5                      6
                      A                      A                      A
 Frequencies --    144.9537               189.2178               232.1668
 Red. masses --      3.9406                 3.6534                 4.2218
 Frc consts  --      0.0488                 0.0771                 0.1341
 IR Inten    --      0.4521                 0.3709                 1.0075

                      7                      8                      9
                      A                      A                      A
 Frequencies --    284.3763               294.3145               309.1673
 Red. masses --      1.3536                 2.3941                 3.2387
 Frc consts  --      0.0645                 0.1222                 0.1824
 IR Inten    --      4.3315                 0.3134                 1.3245

                     10                     11                     12
                      A                      A                      A
 Frequencies --    328.2251               351.9928               364.1900
 Red. masses --      2.3357                 2.8183                 1.5835
 Frc consts  --      0.1483                 0.2057                 0.1237
 IR Inten    --      9.1551                 4.6284                39.7982

                     13                     14                     15
                      A                      A                      A
 Frequencies --    419.3006               430.2893               491.8422
 Red. masses --      2.8709                 4.2982                 3.4756
 Frc consts  --      0.2974                 0.4689                 0.4954
 IR Inten    --      3.3926                 1.0801                 2.5113

                     16                     17                     18
                      A                      A                      A
 Frequencies --    544.1455               567.7685               616.0133
 Red. masses --      3.7273                 3.5481                 4.6216
 Frc consts  --      0.6502                 0.6739                 1.0333
 IR Inten    --      8.6277                10.1286                 8.5392

                     19                     20                     21
                      A                      A                      A
 Frequencies --    630.6216               637.4471               684.0027
 Red. masses --      4.3531                 6.2611                 5.4258
 Frc consts  --      1.0200                 1.4990                 1.4956
 IR Inten    --      4.7426                 0.3133                 2.1946

                     22                     23                     24
                      A                      A                      A
 Frequencies --    704.8906               717.9482               748.8155
 Red. masses --      1.1880                 1.7561                 5.9812
 Frc consts  --      0.3478                 0.5333                 1.9760
 IR Inten    --     52.0392                25.9354                 2.2295

                     25                     26                     27
                      A                      A                      A
 Frequencies --    777.5551               790.5106               840.6285
 Red. masses --      2.2912                 2.4707                 1.3259
 Frc consts  --      0.8162                 0.9097                 0.5520
 IR Inten    --     24.6374                21.9510                30.1379

                     28                     29                     30
                      A                      A                      A
 Frequencies --    862.4760               863.6685               895.5029
 Red. masses --      1.2737                 3.4140                 1.6397
 Frc consts  --      0.5582                 1.5004                 0.7747
 IR Inten    --      1.1606                19.3654               155.8560

                     31                     32                     33
                      A                      A                      A
 Frequencies --    909.6892               926.1142               948.5890
 Red. masses --      1.3587                 1.4963                 2.3562
 Frc consts  --      0.6625                 0.7562                 1.2491
 IR Inten    --      7.9778                 1.2178                 0.4648

                     34                     35                     36
                      A                      A                      A
 Frequencies --    971.0935               995.1236              1022.5348
 Red. masses --      1.3465                 1.2481                 5.9420
 Frc consts  --      0.7481                 0.7282                 3.6605
 IR Inten    --      0.1886                 0.2310                 1.3785

                     37                     38                     39
                      A                      A                      A
 Frequencies --   1033.1601              1060.0144              1075.1165
 Red. masses --      1.7068                 2.4784                 1.6519
 Frc consts  --      1.0734                 1.6408                 1.1250
 IR Inten    --     16.9847                 5.0610                 3.3444

                     40                     41                     42
                      A                      A                      A
 Frequencies --   1095.0084              1112.5915              1114.9252
 Red. masses --      2.0255                 1.4515                 1.5920
 Frc consts  --      1.4310                 1.0586                 1.1660
 IR Inten    --     12.2820                 2.3376                15.6982

                     43                     44                     45
                      A                      A                      A
 Frequencies --   1137.5465              1193.7739              1195.2815
 Red. masses --      1.7693                 1.1797                 2.1450
 Frc consts  --      1.3489                 0.9905                 1.8056
 IR Inten    --      5.7066                 0.5030                 5.0244

                     46                     47                     48
                      A                      A                      A
 Frequencies --   1218.5008              1229.8724              1275.4588
 Red. masses --      1.2032                 2.8853                 1.4936
 Frc consts  --      1.0525                 2.5714                 1.4316
 IR Inten    --      5.7920                29.1254                28.3342

                     49                     50                     51
                      A                      A                      A
 Frequencies --   1341.6677              1352.3088              1369.0205
 Red. masses --      2.0632                 2.0510                 2.3752
 Frc consts  --      2.1882                 2.2099                 2.6228
 IR Inten    --      8.3832                20.9508                 1.4799

                     52                     53                     54
                      A                      A                      A
 Frequencies --   1395.3999              1429.2450              1494.2517
 Red. masses --      2.2882                 1.2383                 2.3019
 Frc consts  --      2.6251                 1.4904                 3.0282
 IR Inten    --      1.6424                 6.7441                12.6427

                     55                     56                     57
                      A                      A                      A
 Frequencies --   1502.5196              1519.5983              1530.1159
 Red. masses --      4.7440                 1.1009                 1.0750
 Frc consts  --      6.3102                 1.4978                 1.4828
 IR Inten    --      3.2113                 0.5740                 3.2709

                     58                     59                     60
                      A                      A                      A
 Frequencies --   1544.6557              1604.2972              1645.7871
 Red. masses --      2.0881                 5.3264                 5.5834
 Frc consts  --      2.9354                 8.0771                 8.9104
 IR Inten    --      9.2600                 0.2691                 0.7236

                     61                     62                     63
                      A                      A                      A
 Frequencies --   1665.2132              1689.6507              3064.7689
 Red. masses --      5.5499                 1.0957                 1.0357
 Frc consts  --      9.0673                 1.8431                 5.7318
 IR Inten    --      3.8089                23.7058                17.4965

                     64                     65                     66
                      A                      A                      A
 Frequencies --   3134.0358              3156.2802              3180.6147
 Red. masses --      1.1006                 1.1041                 1.0845
 Frc consts  --      6.3691                 6.4807                 6.4642
 IR Inten    --     21.8415                20.3431                 2.7250

                     67                     68                     69
                      A                      A                      A
 Frequencies --   3187.3647              3197.2309              3204.5214
 Red. masses --      1.0872                 1.0911                 1.0926
 Frc consts  --      6.5077                 6.5715                 6.6105
 IR Inten    --      2.0951                20.2168                36.9227

                     70                     71                     72
                      A                      A                      A
 Frequencies --   3211.9304              3218.9666              3237.5961
 Red. masses --      1.0974                 1.0887                 1.0945
 Frc consts  --      6.6702                 6.6466                 6.7596
 IR Inten    --     19.1540                 9.1912                 6.7400

                     73                     74                     75
                      A                      A                      A
 Frequencies --   3270.2675              3460.0363              3555.5697
 Red. masses --      1.0972                 1.0487                 1.0931
 Frc consts  --      6.9134                 7.3973                 8.1419
 IR Inten    --      2.0174                 3.5319                 1.2219

 - Thermochemistry -
 -------------------
 Temperature   298.150 Kelvin.  Pressure   1.00000 Atm.
 Atom     1 has atomic number  6 and mass  12.00000

 Molecular mass:   203.07687 amu.
 Principal axes and moments of inertia in atomic units:
                           1         2         3
     Eigenvalues --  1643.673394005.127414469.06233
           X            0.99992  -0.00509  -0.01145
           Y            0.00498   0.99994  -0.00932
           Z            0.01150   0.00927   0.99989
 This molecule is an asymmetric top.
 Rotational symmetry number  1.
 Warning -- assumption of classical behavior for rotation
           may cause significant error
 Rotational temperatures (Kelvin)      0.05270     0.02163     0.01938
 Rotational constants (GHZ):           1.09799     0.45061     0.40383
 Zero-point vibrational energy     583426.4 (Joules/Mol)
                                  139.44225 (Kcal/Mol)
 Warning -- explicit consideration of  18 degrees of freedom as
           vibrations may cause significant error
 Vibrational temperatures:     39.32    61.01   103.89   208.56   272.24
          (Kelvin)            334.04   409.15   423.45   444.82   472.24
                              506.44   523.99   603.28   619.09   707.65
                              782.90   816.89   886.31   907.32   917.14
                              984.13  1014.18  1032.97  1077.38  1118.73
                             1137.37  1209.48  1240.91  1242.63  1288.43
                             1308.84  1332.47  1364.81  1397.19  1431.76
                             1471.20  1486.49  1525.12  1546.85  1575.47
                             1600.77  1604.13  1636.68  1717.57  1719.74
                             1753.15  1769.51  1835.10  1930.36  1945.67
                             1969.72  2007.67  2056.36  2149.89  2161.79
                             2186.36  2201.50  2222.42  2308.23  2367.92
                             2395.87  2431.03  4409.52  4509.18  4541.18
                             4576.20  4585.91  4600.10  4610.59  4621.25
                             4631.37  4658.18  4705.19  4978.22  5115.67

 Zero-point correction=                           0.222215 (Hartree/Particle)
 Thermal correction to Energy=                    0.234727
 Thermal correction to Enthalpy=                  0.235671
 Thermal correction to Gibbs Free Energy=         0.182471
 Sum of electronic and zero-point Energies=           -917.860881
 Sum of electronic and thermal Energies=              -917.848370
 Sum of electronic and thermal Enthalpies=            -917.847426
 Sum of electronic and thermal Free Energies=         -917.900626

                     E (Thermal)             CV                S
                      KCal/Mol        Cal/Mol-Kelvin    Cal/Mol-Kelvin
 Total                  147.293             49.892            111.968
 Electronic               0.000              0.000              0.000
 Translational            0.889              2.981             41.830
 Rotational               0.889              2.981             31.754
 Vibrational            145.516             43.931             38.384
 Vibration     1          0.593              1.984              6.015
 Vibration     2          0.595              1.980              5.144
 Vibration     3          0.598              1.967              4.092
 Vibration     4          0.616              1.908              2.737
 Vibration     5          0.633              1.855              2.235
 Vibration     6          0.653              1.792              1.862
 Vibration     7          0.683              1.703              1.507
 Vibration     8          0.689              1.684              1.449
 Vibration     9          0.699              1.656              1.367
 Vibration    10          0.711              1.619              1.269
 Vibration    11          0.729              1.571              1.157
 Vibration    12          0.738              1.546              1.104
 Vibration    13          0.782              1.428              0.894
 Vibration    14          0.791              1.404              0.858
 Vibration    15          0.848              1.268              0.679
 Vibration    16          0.899              1.153              0.556
 Vibration    17          0.924              1.101              0.509
 Vibration    18          0.976              0.998              0.423

 Optimization completed.
    -- Stationary point found.
 Normal termination of Gaussian 16 at Thu Dec 10 11:08:33 2020.

 ----------------------------------------------------------------------
 # B3LYP/6-311++G(d,p) empiricaldispersion=gd3bj scf=xqc pop=npa geom=c
 heck
 ----------------------------------------------------------------------

 --------------------------------------
 CID_57282335_JID_4987_Energie_neutraal
 --------------------------------------
 Structure from the checkpoint file:  "JID_4987.chk"
 Charge =  0 Multiplicity = 1

 SCF Done:  E(RB3LYP) =  -918.252986514     A.U. after   16 cycles
 Normal termination of Gaussian 16 at Thu Dec 10 11:11:41 2020.

 ----------------------------------------------------------------------
 # B3LYP/6-311++G(d,p) empiricaldispersion=gd3bj scf=xqc pop=npa geom=c
 heck
 ----------------------------------------------------------------------

 ------------------------------------
 CID_57282335_JID_4987_Energie_kation
 ------------------------------------
 Structure from the checkpoint file:  "JID_4987.chk"
 Charge =  1 Multiplicity = 2

 SCF Done:  E(UB3LYP) =  -917.957772024     A.U. after   30 cycles
 Normal termination of Gaussian 16 at Thu Dec 10 11:19:26 2020.
 Gaussian 16:  ES64L-G16RevA.03 25-Dec-2016

 ----------------------------------------------------------------------
 # B3LYP/6-311++G(d,p) empiricaldispersion=gd3bj scf=xqc pop=npa geom=c
 heck
 ----------------------------------------------------------------------

 -----------------------------------
 CID_57282335_JID_4987_Energie_anion
 -----------------------------------
 Structure from the checkpoint file:  "JID_4987.chk"
 Charge = -1 Multiplicity = 2

                         Standard orientation:
 ---------------------------------------------------------------------
 Center     Atomic      Atomic             Coordinates (Angstroms)
 Number     Number       Type             X           Y           Z
 ---------------------------------------------------------------------
      1          6           0       -0.085340    2.217025    1.149520
      2          6           0       -0.110428    1.209715   -0.016334
      3          6           0        1.171848    0.352167    0.052003
      4          6           0        2.185012    0.454710   -0.902544
      5          6           0        3.349921   -0.310756   -0.798634
      6          6           0        3.516840   -1.191427    0.266881
      7          6           0        2.507371   -1.306145    1.226724
      8          6           0        1.348483   -0.543999    1.116705
      9          6           0       -1.326942    0.306210    0.087583
     10          6           0       -2.436997    0.420385    0.880075
     11          6           0       -3.414099   -0.596832    0.644980
     12          6           0       -3.037358   -1.475693   -0.330290
     13         16           0       -1.469553   -1.086645   -0.965690
     14          7           0       -0.262947    2.007734   -1.246336
     15          1           0       -0.044208    1.708978    2.116093
     16          1           0       -0.969607    2.858163    1.108518
     17          1           0        0.805326    2.848524    1.062767
     18          1           0        2.067913    1.130537   -1.743540
     19          1           0        4.123175   -0.216873   -1.556284
     20          1           0        4.420617   -1.788552    0.348653
     21          1           0        2.621778   -1.996368    2.058101
     22          1           0        0.557779   -0.654384    1.853644
     23          1           0       -2.564021    1.211594    1.609057
     24          1           0       -4.353061   -0.666024    1.183257
     25          1           0       -3.574422   -2.337137   -0.703206
     26          1           0        0.541522    2.623418   -1.359518
     27          1           0       -0.289181    1.398152   -2.062169
 ---------------------------------------------------------------------

 SCF Done:  E(UB3LYP) =  -918.238422920     A.U. after   33 cycles
 SCF Done:  E(UB3LYP) =  -918.238422920     a.u. after    1 cycles

 The electronic state is 2-A.
 Alpha  occ. eigenvalues --  -88.77656 -14.19971 -10.13357 -10.10622 -10.10195
 Alpha  occ. eigenvalues --  -10.08541 -10.08154 -10.07865 -10.07805 -10.07760
 Alpha  occ. eigenvalues --  -10.07690 -10.07620 -10.07558 -10.06942  -7.86281
 Alpha  occ. eigenvalues --   -5.82563  -5.82196  -5.81886  -0.81620  -0.77676
 Alpha  occ. eigenvalues --   -0.75658  -0.67882  -0.65004  -0.64313  -0.63587
 Alpha  occ. eigenvalues --   -0.61398  -0.54015  -0.50961  -0.49343  -0.46455
 Alpha  occ. eigenvalues --   -0.43691  -0.42712  -0.41717  -0.37822  -0.37352
 Alpha  occ. eigenvalues --   -0.35941  -0.34518  -0.33098  -0.32563  -0.31504
 Alpha  occ. eigenvalues --   -0.29924  -0.28972  -0.28142  -0.27951  -0.27068
 Alpha  occ. eigenvalues --   -0.26372  -0.24990  -0.24452  -0.24019  -0.16286
 Alpha  occ. eigenvalues --   -0.15927  -0.15795  -0.15202  -0.13654   0.04319
 Alpha virt. eigenvalues --    0.06018   0.06863   0.06974   0.07251   0.07781
 Alpha virt. eigenvalues --    0.08140   0.08162   0.08927   0.09353   0.09817
 Alpha virt. eigenvalues --    0.11195   0.11683   0.11956   0.12195   0.12685

  Beta  occ. eigenvalues --  -88.77650 -14.19939 -10.13352 -10.10604 -10.10168
  Beta  occ. eigenvalues --  -10.08543 -10.08145 -10.07853 -10.07793 -10.07745
  Beta  occ. eigenvalues --  -10.07676 -10.07612 -10.07533 -10.06923  -7.86274
  Beta  occ. eigenvalues --   -5.82559  -5.82192  -5.81870  -0.81579  -0.77640
  Beta  occ. eigenvalues --   -0.75628  -0.67840  -0.64967  -0.64278  -0.63551
  Beta  occ. eigenvalues --   -0.61355  -0.53973  -0.50918  -0.49300  -0.46408
  Beta  occ. eigenvalues --   -0.43645  -0.42661  -0.41674  -0.37772  -0.37311
  Beta  occ. eigenvalues --   -0.35906  -0.34482  -0.33066  -0.32524  -0.31475
  Beta  occ. eigenvalues --   -0.29891  -0.28941  -0.28109  -0.27899  -0.27035
  Beta  occ. eigenvalues --   -0.26340  -0.24954  -0.24421  -0.23993  -0.16248
  Beta  occ. eigenvalues --   -0.15898  -0.15762  -0.15157  -0.13571
  Beta virt. eigenvalues --    0.06386   0.06956   0.07146   0.07638   0.07836
  Beta virt. eigenvalues --    0.07987   0.08205   0.08731   0.09400   0.09965
  Beta virt. eigenvalues --    0.10157   0.11517   0.11998   0.12173   0.12579

 Mulliken charges and spin densities:
               1          2
     1  C    0.644373  -1.267586
     2  C    2.092118  -2.565754
     3  C    0.199623   0.488037
     4  C    0.696960  -0.318792
     5  C   -0.028236  -0.261450
     6  C    0.723892  -1.156652
     7  C    0.941854  -1.097062
     8  C   -3.555436   2.563093
     9  C    1.138747  -1.644341
    10  C   -1.461874   3.025185
    11  C    1.124676  -2.018839
    12  C   -0.417461   0.544316
    13  S    0.140400  -0.680659
    14  N   -0.239923   0.017027
    15  H   -0.156626   0.307483
    16  H    0.162305  -0.014264
    17  H   -0.005209   0.161527
    18  H   -0.512569   0.676644
    19  H   -0.703177   0.890742
    20  H   -0.289339   0.435758
    21  H   -0.421170   0.600528
    22  H    0.000121   0.179548
    23  H   -0.238656   0.421477
    24  H   -0.422138   0.574462
    25  H   -0.266664   0.509477
    26  H   -0.111520   0.363705
    27  H   -0.035073   0.266389
 Sum of Mulliken charges =  -1.00000   1.00000

 Dipole moment (field-independent basis, Debye):
    X=             -2.3518    Y=             -0.1899    Z=              0.7539  Tot=              2.4770
 Quadrupole moment (field-independent basis, Debye-Ang):
   XX=           -166.7615   YY=           -130.8446   ZZ=           -130.7269
   XY=              0.3299   XZ=              7.4856   YZ=              7.2423

 Summary of Natural Population Analysis:

                                       Natural Population
                Natural  -----------------------------------------------
    Atom  No    Charge         Core      Valence    Rydberg      Total
 -----------------------------------------------------------------------
      C    1   -0.27931      0.99963     2.27335    0.00634     3.27931
      C    2    0.03351      0.99947     1.95068    0.01634     2.96649
      C    3   -0.02123      0.99947     2.00714    0.01461     3.02123
      C    4   -0.10486      0.99949     2.09394    0.01143     3.10486
      C    5   -0.09565      0.99956     2.08531    0.01078     3.09565
      C    6   -0.10286      0.99956     2.09336    0.00994     3.10286
      C    7   -0.09837      0.99956     2.08847    0.01034     3.09837
      C    8   -0.09830      0.99950     2.08907    0.00973     3.09830
      C    9   -0.08410      0.99946     2.06870    0.01595     3.08410
      C   10   -0.12777      0.99944     2.11710    0.01123     3.12777
      C   11   -0.12668      0.99953     2.11625    0.01090     3.12668
      C   12   -0.19367      0.99954     2.18245    0.01168     3.19367
      S   13    0.20996      4.99939     2.77125    0.01941     7.79004
      N   14   -0.41623      0.99976     2.90601    0.01047     3.91623
      H   15    0.10402      0.00000     0.39473    0.00125     0.39598
      H   16    0.10492      0.00000     0.39388    0.00119     0.39508
      H   17    0.10310      0.00000     0.39594    0.00096     0.39690
      H   18    0.10363      0.00000     0.39367    0.00269     0.39637
      H   19    0.10266      0.00000     0.39553    0.00181     0.39734
      H   20    0.10119      0.00000     0.39755    0.00126     0.39881
      H   21    0.10095      0.00000     0.39792    0.00113     0.39905
      H   22    0.10499      0.00000     0.39332    0.00170     0.39501
      H   23    0.10999      0.00000     0.38882    0.00119     0.39001
      H   24    0.10658      0.00000     0.39207    0.00135     0.39342
      H   25    0.10933      0.00000     0.38965    0.00102     0.39067
      H   26    0.17677      0.00000     0.32107    0.00216     0.32323
      H   27    0.17744      0.00000     0.32037    0.00220     0.32256
 =======================================================================
   * Total *   -0.00000     17.99336    35.81759    0.18905    54.00000

 Normal termination of Gaussian 16 at Thu Dec 10 11:28:13 2020.
