 Gaussian 16, Revision A.03,

 -----------------------------------------------------------
 # opt freq B3LYP/6-31G(d) empiricaldispersion=gd3bj scf=xqc
 -----------------------------------------------------------

 ------------------------------
 CID_79984351_JID_9450_neutraal
 ------------------------------
 Symbolic Z-matrix:
 Charge =  0 Multiplicity = 1

 SCF Done:  E(RB3LYP) =  -823.751476363     A.U. after   15 cycles
 SCF Done:  E(RB3LYP) =  -823.755855456     A.U. after   12 cycles
 SCF Done:  E(RB3LYP) =  -823.756312657     A.U. after   12 cycles
 SCF Done:  E(RB3LYP) =  -823.757067751     A.U. after   12 cycles
 SCF Done:  E(RB3LYP) =  -823.757098184     A.U. after   12 cycles
 SCF Done:  E(RB3LYP) =  -823.757340379     A.U. after   11 cycles
 SCF Done:  E(RB3LYP) =  -823.757357745     A.U. after   10 cycles
 SCF Done:  E(RB3LYP) =  -823.757364803     A.U. after   10 cycles
 SCF Done:  E(RB3LYP) =  -823.757367617     A.U. after   10 cycles
 SCF Done:  E(RB3LYP) =  -823.757369924     A.U. after   11 cycles
 SCF Done:  E(RB3LYP) =  -823.757374795     A.U. after   10 cycles
 SCF Done:  E(RB3LYP) =  -823.757376071     A.U. after   10 cycles
 SCF Done:  E(RB3LYP) =  -823.757376128     A.U. after    7 cycles
 SCF Done:  E(RB3LYP) =  -823.757376133     A.U. after    6 cycles
 SCF Done:  E(RB3LYP) =  -823.757376137     A.U. after    6 cycles
 Optimization completed.
    -- Stationary point found.
 Normal termination of Gaussian 16 at Sat Dec 12 10:14:37 2020.

 --------------------------------------------------------------------
 #N Geom=AllCheck Guess=TCheck SCRF=Check GenChk RB3LYP/6-31G(d) Freq
 --------------------------------------------------------------------

 Structure from the checkpoint file:  "JID_9450.chk"
 ------------------------------
 CID_79984351_JID_9450_neutraal
 ------------------------------
 Charge =  0 Multiplicity = 1

 SCF Done:  E(RB3LYP) =  -823.757376137     A.U. after    1 cycles

  Exact polarizability: 211.015   2.452 148.108  -2.792   6.477 155.575
 Approx polarizability: 293.746   4.493 205.557 -11.216  14.755 268.169

                      1                      2                      3
                      A                      A                      A
 Frequencies --     14.1463                23.9784                33.6878
 Red. masses --      2.6678                 4.6522                 4.6982
 Frc consts  --      0.0003                 0.0016                 0.0031
 IR Inten    --      0.2970                 2.8535                 0.0563

                      4                      5                      6
                      A                      A                      A
 Frequencies --     51.4579                84.3553               103.2529
 Red. masses --      3.9932                 3.7320                 4.8002
 Frc consts  --      0.0062                 0.0156                 0.0302
 IR Inten    --      2.7014                 0.9807                 2.0046

                      7                      8                      9
                      A                      A                      A
 Frequencies --    113.2346               137.1037               173.2667
 Red. masses --      4.3018                 4.0948                 4.0626
 Frc consts  --      0.0325                 0.0454                 0.0719
 IR Inten    --      0.0956                 4.1282                 0.2665

                     10                     11                     12
                      A                      A                      A
 Frequencies --    176.2312               229.4914               246.9992
 Red. masses --      3.3551                 2.7295                 3.8524
 Frc consts  --      0.0614                 0.0847                 0.1385
 IR Inten    --      0.7204                 0.8222                 5.1449

                     13                     14                     15
                      A                      A                      A
 Frequencies --    294.5523               317.5240               347.8593
 Red. masses --      2.8146                 4.2403                 2.8228
 Frc consts  --      0.1439                 0.2519                 0.2013
 IR Inten    --      7.2805                 0.9010                 2.4955

                     16                     17                     18
                      A                      A                      A
 Frequencies --    369.4991               401.1508               414.3830
 Red. masses --      2.7953                 2.1995                 1.5644
 Frc consts  --      0.2249                 0.2085                 0.1583
 IR Inten    --     14.9780                41.9138               158.4978

                     19                     20                     21
                      A                      A                      A
 Frequencies --    420.6750               446.2130               464.1860
 Red. masses --      2.3724                 2.9197                 3.4023
 Frc consts  --      0.2474                 0.3425                 0.4319
 IR Inten    --     47.8682                 0.5946                10.5610

                     22                     23                     24
                      A                      A                      A
 Frequencies --    475.1331               484.7699               495.8938
 Red. masses --      2.5882                 2.5405                 3.2466
 Frc consts  --      0.3443                 0.3518                 0.4704
 IR Inten    --      0.1591                 0.5018                 1.9733

                     25                     26                     27
                      A                      A                      A
 Frequencies --    542.4735               590.0035               609.9907
 Red. masses --      1.5932                 1.7020                 2.3444
 Frc consts  --      0.2762                 0.3491                 0.5140
 IR Inten    --     13.5388                18.9925                22.4191

                     28                     29                     30
                      A                      A                      A
 Frequencies --    631.5982               656.2376               667.9720
 Red. masses --      3.5198                 5.1423                 3.2937
 Frc consts  --      0.8273                 1.3048                 0.8659
 IR Inten    --      3.1532                 4.4958                32.2047

                     31                     32                     33
                      A                      A                      A
 Frequencies --    750.1418               760.8247               806.9969
 Red. masses --      4.1855                 2.7207                 1.2902
 Frc consts  --      1.3877                 0.9279                 0.4951
 IR Inten    --      3.0678                 3.6013                 3.2588

                     34                     35                     36
                      A                      A                      A
 Frequencies --    821.2443               828.4760               832.4020
 Red. masses --      2.5718                 1.8060                 1.3581
 Frc consts  --      1.0220                 0.7303                 0.5544
 IR Inten    --     31.2798                65.4753                14.8585

                     37                     38                     39
                      A                      A                      A
 Frequencies --    839.3534               850.7440               864.9652
 Red. masses --      1.6719                 1.8909                 1.2524
 Frc consts  --      0.6940                 0.8064                 0.5521
 IR Inten    --      5.9387                52.6949                 1.2955

                     40                     41                     42
                      A                      A                      A
 Frequencies --    870.6174               889.4014               918.1265
 Red. masses --      3.0668                 2.3060                 2.1324
 Frc consts  --      1.3696                 1.0748                 1.0591
 IR Inten    --      5.9322                31.0451                 4.2013

                     43                     44                     45
                      A                      A                      A
 Frequencies --    924.5052               938.1941               953.3023
 Red. masses --      3.4340                 2.7527                 3.9529
 Frc consts  --      1.7293                 1.4276                 2.1166
 IR Inten    --     14.3385                 2.7663                 4.1775

                     46                     47                     48
                      A                      A                      A
 Frequencies --    972.6698               976.6325              1010.4196
 Red. masses --      1.3577                 1.3165                 2.6511
 Frc consts  --      0.7568                 0.7398                 1.5947
 IR Inten    --      0.6050                 0.7200                 5.6764

                     49                     50                     51
                      A                      A                      A
 Frequencies --   1037.8431              1042.3851              1048.6867
 Red. masses --      1.5599                 2.9659                 2.5129
 Frc consts  --      0.9899                 1.8987                 1.6282
 IR Inten    --      8.1156                 8.6438                14.4304

                     52                     53                     54
                      A                      A                      A
 Frequencies --   1068.5184              1087.8462              1091.5461
 Red. masses --      1.3098                 1.3489                 1.6281
 Frc consts  --      0.8811                 0.9405                 1.1430
 IR Inten    --      9.1791                 2.5473                 3.3012

                     55                     56                     57
                      A                      A                      A
 Frequencies --   1106.6515              1122.8730              1134.3806
 Red. masses --      2.0284                 2.0716                 1.1217
 Frc consts  --      1.4636                 1.5390                 0.8504
 IR Inten    --     15.8919                22.8398                 0.7892

                     58                     59                     60
                      A                      A                      A
 Frequencies --   1141.8759              1145.9127              1194.8317
 Red. masses --      4.2904                 1.3756                 2.9184
 Frc consts  --      3.2960                 1.0642                 2.4547
 IR Inten    --     20.6608                 5.1805                 6.9109

                     61                     62                     63
                      A                      A                      A
 Frequencies --   1206.1499              1209.8736              1212.3190
 Red. masses --      2.7705                 1.8590                 1.4421
 Frc consts  --      2.3747                 1.6033                 1.2487
 IR Inten    --      5.5528                32.9782                 8.1729

                     64                     65                     66
                      A                      A                      A
 Frequencies --   1217.7267              1221.9553              1223.7096
 Red. masses --      2.3044                 1.2253                 1.2165
 Frc consts  --      2.0133                 1.0779                 1.0733
 IR Inten    --     25.6164                 2.6407                 6.3555

                     67                     68                     69
                      A                      A                      A
 Frequencies --   1257.7488              1267.9660              1277.9624
 Red. masses --      1.7099                 1.5374                 1.2685
 Frc consts  --      1.5937                 1.4563                 1.2206
 IR Inten    --     20.1413                 7.9053                15.0469

                     70                     71                     72
                      A                      A                      A
 Frequencies --   1335.0768              1341.9603              1356.5431
 Red. masses --      3.4036                 1.8457                 1.3229
 Frc consts  --      3.5744                 1.9584                 1.4343
 IR Inten    --     79.6560                 3.2785                 1.9292

                     73                     74                     75
                      A                      A                      A
 Frequencies --   1366.1558              1371.0968              1393.6524
 Red. masses --      1.2867                 2.1270                 1.4038
 Frc consts  --      1.4149                 2.3558                 1.6064
 IR Inten    --      2.0518                23.0196                 1.9909

                     76                     77                     78
                      A                      A                      A
 Frequencies --   1397.5231              1414.0812              1415.4383
 Red. masses --      1.3139                 1.8669                 1.6568
 Frc consts  --      1.5120                 2.1994                 1.9557
 IR Inten    --      8.0692                23.6291                 4.9548

                     79                     80                     81
                      A                      A                      A
 Frequencies --   1420.3616              1428.6584              1460.5973
 Red. masses --      1.2338                 1.4506                 2.4778
 Frc consts  --      1.4666                 1.7444                 3.1144
 IR Inten    --      2.7143                30.4308                 4.5904

                     82                     83                     84
                      A                      A                      A
 Frequencies --   1494.0466              1494.3790              1506.3003
 Red. masses --      1.1055                 1.0888                 1.0842
 Frc consts  --      1.4540                 1.4325                 1.4494
 IR Inten    --     13.2054                 3.2816                 1.5482

                     85                     86                     87
                      A                      A                      A
 Frequencies --   1509.3973              1514.5229              1517.5427
 Red. masses --      1.1189                 1.1523                 1.0975
 Frc consts  --      1.5019                 1.5572                 1.4891
 IR Inten    --      9.1743                 2.0550                 0.3493

                     88                     89                     90
                      A                      A                      A
 Frequencies --   1533.7192              1562.4191              1623.8262
 Red. masses --      1.3433                 2.5235                 6.3332
 Frc consts  --      1.8617                 3.6296                 9.8391
 IR Inten    --      2.3782                14.5094                 0.4569

                     91                     92                     93
                      A                      A                      A
 Frequencies --   1645.8543              1671.7338              1816.1805
 Red. masses --      1.2224                 5.7548                 9.4900
 Frc consts  --      1.9510                 9.4757                18.4432
 IR Inten    --     99.3238                 3.1788               271.9823

                     94                     95                     96
                      A                      A                      A
 Frequencies --   2981.3095              3001.5422              3041.8021
 Red. masses --      1.0702                 1.0749                 1.0831
 Frc consts  --      5.6042                 5.7056                 5.9044
 IR Inten    --     66.8036                77.2626                14.0519

                     97                     98                     99
                      A                      A                      A
 Frequencies --   3046.8209              3052.5330              3071.4065
 Red. masses --      1.0619                 1.0634                 1.0911
 Frc consts  --      5.8080                 5.8382                 6.0646
 IR Inten    --     44.1187                46.2068                49.0901

                    100                    101                    102
                      A                      A                      A
 Frequencies --   3097.4030              3104.7090              3132.5870
 Red. masses --      1.1045                 1.1019                 1.0864
 Frc consts  --      6.2435                 6.2577                 6.2811
 IR Inten    --     38.1544                42.9093                14.9706

                    103                    104                    105
                      A                      A                      A
 Frequencies --   3142.2677              3149.0184              3153.4939
 Red. masses --      1.0897                 1.0504                 1.0596
 Frc consts  --      6.3395                 6.1373                 6.2081
 IR Inten    --     15.5945                16.3386                 9.8975

                    106                    107                    108
                      A                      A                      A
 Frequencies --   3172.4971              3180.6058              3196.7123
 Red. masses --      1.0878                 1.0868                 1.0937
 Frc consts  --      6.4507                 6.4777                 6.5850
 IR Inten    --     14.5578                 7.9516                22.9537

                    109                    110                    111
                      A                      A                      A
 Frequencies --   3199.3797              3224.9327              3238.4065
 Red. masses --      1.0934                 1.1199                 1.1166
 Frc consts  --      6.5944                 6.8622                 6.8992
 IR Inten    --      6.3140                 0.6212                29.0872

                    112                    113                    114
                      A                      A                      A
 Frequencies --   3438.8329              3574.9328              3695.8879
 Red. masses --      1.0732                 1.0454                 1.1033
 Frc consts  --      7.4774                 7.8714                 8.8791
 IR Inten    --      7.8840                22.5198                31.6679

 - Thermochemistry -
 -------------------
 Temperature   298.150 Kelvin.  Pressure   1.00000 Atm.
 Atom     1 has atomic number  6 and mass  12.00000

 Molecular mass:   259.16846 amu.
 Principal axes and moments of inertia in atomic units:
                           1         2         3
     Eigenvalues --  3272.250026895.388258561.40990
           X            0.99991   0.01252   0.00413
           Y           -0.01253   0.99992   0.00239
           Z           -0.00410  -0.00244   0.99999
 This molecule is an asymmetric top.
 Rotational symmetry number  1.
 Warning -- assumption of classical behavior for rotation
           may cause significant error
 Rotational temperatures (Kelvin)      0.02647     0.01256     0.01012
 Rotational constants (GHZ):           0.55153     0.26173     0.21080
 Zero-point vibrational energy     912949.6 (Joules/Mol)
                                  218.20018 (Kcal/Mol)
 Warning -- explicit consideration of  27 degrees of freedom as
           vibrations may cause significant error
 Vibrational temperatures:     20.35    34.50    48.47    74.04   121.37
          (Kelvin)            148.56   162.92   197.26   249.29   253.56
                              330.19   355.38   423.80   456.85   500.49
                              531.63   577.17   596.20   605.26   642.00
                              667.86   683.61   697.48   713.48   780.50
                              848.88   877.64   908.73   944.18   961.06
                             1079.29  1094.66  1161.09  1181.59  1191.99
                             1197.64  1207.64  1224.03  1244.49  1252.62
                             1279.65  1320.98  1330.16  1349.85  1371.59
                             1399.45  1405.16  1453.77  1493.22  1499.76
                             1508.83  1537.36  1565.17  1570.49  1592.22
                             1615.56  1632.12  1642.90  1648.71  1719.10
                             1735.38  1740.74  1744.26  1752.04  1758.12
                             1760.65  1809.62  1824.32  1838.70  1920.88
                             1930.78  1951.76  1965.59  1972.70  2005.15
                             2010.72  2034.55  2036.50  2043.58  2055.52
                             2101.47  2149.60  2150.08  2167.23  2171.69
                             2179.06  2183.41  2206.68  2247.97  2336.32
                             2368.02  2405.25  2613.08  4289.44  4318.55
                             4376.47  4383.70  4391.91  4419.07  4456.47
                             4466.98  4507.09  4521.02  4530.74  4537.17
                             4564.52  4576.18  4599.36  4603.19  4639.96
                             4659.34  4947.71  5143.53  5317.56

 Zero-point correction=                           0.347724 (Hartree/Particle)
 Thermal correction to Energy=                    0.365369
 Thermal correction to Enthalpy=                  0.366313
 Thermal correction to Gibbs Free Energy=         0.299772
 Sum of electronic and zero-point Energies=           -823.409652
 Sum of electronic and thermal Energies=              -823.392007
 Sum of electronic and thermal Enthalpies=            -823.391063
 Sum of electronic and thermal Free Energies=         -823.457604

                     E (Thermal)             CV                S
                      KCal/Mol        Cal/Mol-Kelvin    Cal/Mol-Kelvin
 Total                  229.272             69.029            140.047
 Electronic               0.000              0.000              0.000
 Translational            0.889              2.981             42.557
 Rotational               0.889              2.981             33.623
 Vibrational            227.495             63.067             63.867
 Vibration     1          0.593              1.986              7.322
 Vibration     2          0.593              1.985              6.274
 Vibration     3          0.594              1.983              5.599
 Vibration     4          0.596              1.977              4.761
 Vibration     5          0.601              1.960              3.787
 Vibration     6          0.605              1.947              3.392
 Vibration     7          0.607              1.938              3.213
 Vibration     8          0.614              1.916              2.844
 Vibration     9          0.627              1.875              2.400
 Vibration    10          0.628              1.872              2.368
 Vibration    11          0.652              1.796              1.883
 Vibration    12          0.661              1.768              1.752
 Vibration    13          0.689              1.684              1.448
 Vibration    14          0.704              1.640              1.323
 Vibration    15          0.725              1.580              1.176
 Vibration    16          0.742              1.535              1.082
 Vibration    17          0.767              1.468              0.958
 Vibration    18          0.778              1.439              0.911
 Vibration    19          0.783              1.425              0.890
 Vibration    20          0.805              1.369              0.807
 Vibration    21          0.822              1.329              0.754
 Vibration    22          0.832              1.305              0.723
 Vibration    23          0.841              1.284              0.697
 Vibration    24          0.851              1.259              0.668
 Vibration    25          0.898              1.156              0.560
 Vibration    26          0.947              1.053              0.467
 Vibration    27          0.969              1.011              0.433

 Optimization completed.
    -- Stationary point found.
 Normal termination of Gaussian 16 at Sat Dec 12 10:37:36 2020.

 ----------------------------------------------------------------------
 # B3LYP/6-311++G(d,p) empiricaldispersion=gd3bj scf=xqc pop=npa geom=c
 heck
 ----------------------------------------------------------------------

 --------------------------------------
 CID_79984351_JID_9450_Energie_neutraal
 --------------------------------------
 Structure from the checkpoint file:  "JID_9450.chk"
 Charge =  0 Multiplicity = 1

 SCF Done:  E(RB3LYP) =  -823.989130533     A.U. after   15 cycles
 Normal termination of Gaussian 16 at Sat Dec 12 10:48:05 2020.

 ----------------------------------------------------------------------
 # B3LYP/6-311++G(d,p) empiricaldispersion=gd3bj scf=xqc pop=npa geom=c
 heck
 ----------------------------------------------------------------------

 ------------------------------------
 CID_79984351_JID_9450_Energie_kation
 ------------------------------------
 Structure from the checkpoint file:  "JID_9450.chk"
 Charge =  1 Multiplicity = 2

 SCF Done:  E(UB3LYP) =  -823.733063240     A.U. after   22 cycles
 Normal termination of Gaussian 16 at Sat Dec 12 11:09:50 2020.
 Gaussian 16:  ES64L-G16RevA.03 25-Dec-2016

 ----------------------------------------------------------------------
 # B3LYP/6-311++G(d,p) empiricaldispersion=gd3bj scf=xqc pop=npa geom=c
 heck
 ----------------------------------------------------------------------

 -----------------------------------
 CID_79984351_JID_9450_Energie_anion
 -----------------------------------
 Structure from the checkpoint file:  "JID_9450.chk"
 Charge = -1 Multiplicity = 2

                         Standard orientation:
 ---------------------------------------------------------------------
 Center     Atomic      Atomic             Coordinates (Angstroms)
 Number     Number       Type             X           Y           Z
 ---------------------------------------------------------------------
      1          6           0       -4.888359    0.591795    0.449556
      2          6           0       -4.681792    0.488224   -1.041437
      3          6           0       -4.082853   -0.549616   -0.118958
      4          6           0       -2.600782   -0.618884    0.077749
      5          6           0       -1.761300   -0.984651   -0.983972
      6          6           0       -0.382577   -1.065797   -0.813166
      7          6           0        0.205754   -0.768282    0.424253
      8          6           0       -0.633542   -0.428640    1.489841
      9          6           0       -2.015756   -0.351996    1.319779
     10          6           0        1.726033   -0.745729    0.602251
     11          6           0        2.375071   -1.979052   -0.075065
     12          8           0        3.279828   -1.918753   -0.889537
     13          7           0        1.866018   -3.172343    0.374168
     14          7           0        2.412867    0.473368    0.221721
     15          6           0        2.315494    0.941861   -1.161241
     16          6           0        1.198620    1.976794   -1.383327
     17          7           0        1.246107    3.095127   -0.430510
     18          6           0        1.274159    2.592104    0.948081
     19          6           0        2.402477    1.572443    1.181557
     20          1           0       -5.873191    0.376894    0.853799
     21          1           0       -4.350097    1.375466    0.975189
     22          1           0       -5.523225    0.199895   -1.664771
     23          1           0       -3.999903    1.196173   -1.503993
     24          1           0       -4.580503   -1.519248   -0.126614
     25          1           0       -2.200379   -1.199838   -1.954722
     26          1           0        0.246352   -1.351705   -1.652353
     27          1           0       -0.198297   -0.208061    2.462153
     28          1           0       -2.651148   -0.080469    2.158152
     29          1           0        1.919981   -0.874008    1.674932
     30          1           0        0.958691   -3.193262    0.818502
     31          1           0        2.149152   -4.000541   -0.132158
     32          1           0        3.279747    1.409414   -1.416988
     33          1           0        2.208547    0.079944   -1.821990
     34          1           0        0.216780    1.501944   -1.282016
     35          1           0        1.262937    2.382874   -2.400565
     36          1           0        2.106823    3.620841   -0.595589
     37          1           0        0.301169    2.129713    1.151204
     38          1           0        1.386022    3.443134    1.631746
     39          1           0        2.358286    1.159969    2.196996
     40          1           0        3.364807    2.104390    1.092327
 ---------------------------------------------------------------------

 SCF Done:  E(UB3LYP) =  -823.980442688     A.U. after   33 cycles
 SCF Done:  E(UB3LYP) =  -823.980442689     a.u. after    1 cycles

 The electronic state is 2-A.
 Alpha  occ. eigenvalues --  -18.99915 -14.23476 -14.21111 -14.20935 -10.18016
 Alpha  occ. eigenvalues --  -10.11966 -10.10535 -10.09991 -10.09698 -10.09621
 Alpha  occ. eigenvalues --  -10.07964 -10.07369 -10.07332 -10.07330 -10.07329
 Alpha  occ. eigenvalues --  -10.07274 -10.07189 -10.07042 -10.06944  -0.94865
 Alpha  occ. eigenvalues --   -0.84973  -0.81190  -0.80121  -0.77180  -0.74583
 Alpha  occ. eigenvalues --   -0.67560  -0.67008  -0.64555  -0.62234  -0.56225
 Alpha  occ. eigenvalues --   -0.55225  -0.52435  -0.51559  -0.50458  -0.49596
 Alpha  occ. eigenvalues --   -0.47366  -0.46538  -0.43990  -0.42116  -0.40205
 Alpha  occ. eigenvalues --   -0.39657  -0.38776  -0.37505  -0.36943  -0.35998
 Alpha  occ. eigenvalues --   -0.35230  -0.34928  -0.34454  -0.33997  -0.32139
 Alpha  occ. eigenvalues --   -0.31363  -0.30888  -0.30334  -0.29198  -0.28136
 Alpha  occ. eigenvalues --   -0.27404  -0.26950  -0.26183  -0.25309  -0.24978
 Alpha  occ. eigenvalues --   -0.24619  -0.23879  -0.20813  -0.19321  -0.18613
 Alpha  occ. eigenvalues --   -0.16757  -0.16212  -0.15554  -0.14192  -0.10174
 Alpha  occ. eigenvalues --    0.04141
 Alpha virt. eigenvalues --    0.06044   0.06545   0.07016   0.07527   0.08103
 Alpha virt. eigenvalues --    0.08302   0.08549   0.08741   0.09024   0.09583
 Alpha virt. eigenvalues --    0.10282   0.10497   0.10719   0.11355   0.11683

  Beta  occ. eigenvalues --  -18.99912 -14.23447 -14.21109 -14.20914 -10.18010
  Beta  occ. eigenvalues --  -10.11964 -10.10528 -10.09989 -10.09696 -10.09620
  Beta  occ. eigenvalues --  -10.07963 -10.07349 -10.07331 -10.07308 -10.07212
  Beta  occ. eigenvalues --  -10.07187 -10.07120 -10.07044 -10.06917  -0.94853
  Beta  occ. eigenvalues --   -0.84944  -0.81148  -0.80094  -0.77082  -0.74489
  Beta  occ. eigenvalues --   -0.67419  -0.66995  -0.64484  -0.62130  -0.56184
  Beta  occ. eigenvalues --   -0.55212  -0.52325  -0.51477  -0.50415  -0.49537
  Beta  occ. eigenvalues --   -0.47315  -0.46450  -0.43957  -0.42064  -0.40160
  Beta  occ. eigenvalues --   -0.39591  -0.38727  -0.37442  -0.36910  -0.35988
  Beta  occ. eigenvalues --   -0.35186  -0.34878  -0.34387  -0.33980  -0.32108
  Beta  occ. eigenvalues --   -0.31334  -0.30863  -0.30299  -0.29173  -0.27984
  Beta  occ. eigenvalues --   -0.27254  -0.26915  -0.26169  -0.25279  -0.24916
  Beta  occ. eigenvalues --   -0.24556  -0.23790  -0.20688  -0.19295  -0.18575
  Beta  occ. eigenvalues --   -0.16706  -0.16163  -0.15382  -0.13703  -0.10077
  Beta virt. eigenvalues --    0.06054   0.06803   0.07265   0.07415   0.08008
  Beta virt. eigenvalues --    0.08205   0.08580   0.08780   0.09017   0.09396
  Beta virt. eigenvalues --    0.09744   0.10452   0.10665   0.10879   0.11524

 Mulliken charges and spin densities:
               1          2
     1  C    0.612757  -1.076454
     2  C    0.447499  -0.991329
     3  C   -0.819601   0.711926
     4  C    1.920661  -1.379018
     5  C   -1.294480   0.984009
     6  C   -0.468000   0.435819
     7  C    1.420949  -0.970833
     8  C   -0.773047   0.528772
     9  C   -0.518478   0.063647
    10  C   -0.251096  -0.596157
    11  C    0.468835  -0.633549
    12  O   -0.289590   0.001163
    13  N   -0.375200   0.082179
    14  N    0.289278   0.077413
    15  C   -0.167598  -0.103691
    16  C   -0.470051  -0.012619
    17  N   -0.103561   0.002560
    18  C   -0.406392  -0.068716
    19  C    0.001435  -0.026668
    20  H   -0.230522   0.381490
    21  H    0.097170   0.016841
    22  H   -0.212115   0.357185
    23  H    0.096009   0.037342
    24  H   -0.614495   0.866617
    25  H   -0.078094   0.258920
    26  H   -0.026390   0.198866
    27  H   -0.331088   0.489219
    28  H   -0.143373   0.318244
    29  H   -0.152924   0.331747
    30  H   -0.048851   0.312530
    31  H   -0.021025   0.319860
    32  H    0.153489   0.005390
    33  H    0.173981  -0.032009
    34  H    0.275595  -0.073268
    35  H    0.122838   0.021878
    36  H    0.202711   0.009406
    37  H    0.301993  -0.088816
    38  H    0.074491   0.077337
    39  H    0.010409   0.126732
    40  H    0.125870   0.036031
 Sum of Mulliken charges =  -1.00000   1.00000

 Dipole moment (field-independent basis, Debye):
    X=              5.4993    Y=              5.7899    Z=             -0.7851  Tot=              8.0238
 Quadrupole moment (field-independent basis, Debye-Ang):
   XX=           -212.3650   YY=           -160.6658   ZZ=           -143.5381
   XY=              2.1940   XZ=             -0.4080   YZ=              2.0229

 Summary of Natural Population Analysis:

                                       Natural Population
                Natural  -----------------------------------------------
    Atom  No    Charge         Core      Valence    Rydberg      Total
 -----------------------------------------------------------------------
      C    1   -0.19632      0.99962     2.18867    0.00803     3.19632
      C    2   -0.19352      0.99962     2.18611    0.00778     3.19352
      C    3   -0.12307      0.99957     2.11082    0.01268     3.12307
      C    4   -0.00161      0.99949     1.99084    0.01128     3.00161
      C    5   -0.08664      0.99951     2.07756    0.00958     3.08664
      C    6   -0.10626      0.99950     2.09654    0.01022     3.10626
      C    7   -0.02244      0.99947     2.00970    0.01327     3.02244
      C    8   -0.09770      0.99950     2.08744    0.01076     3.09770
      C    9   -0.09451      0.99950     2.08555    0.00946     3.09451
      C   10   -0.05029      0.99949     2.03413    0.01668     3.05029
      C   11    0.34638      0.99969     1.62914    0.02479     2.65362
      O   12   -0.31711      0.99987     3.31116    0.00608     4.31711
      N   13   -0.40549      0.99970     2.89815    0.00763     3.90549
      N   14   -0.27220      0.99971     2.75857    0.01393     3.77220
      C   15   -0.09382      0.99961     2.08413    0.01008     3.09382
      C   16   -0.10209      0.99962     2.09222    0.01025     3.10209
      N   17   -0.33551      0.99977     2.82363    0.01211     3.83551
      C   18   -0.10105      0.99962     2.09157    0.00985     3.10105
      C   19   -0.08947      0.99961     2.07804    0.01181     3.08947
      H   20    0.10274      0.00000     0.39599    0.00127     0.39726
      H   21    0.10075      0.00000     0.39824    0.00101     0.39925
      H   22    0.10195      0.00000     0.39675    0.00130     0.39805
      H   23    0.10082      0.00000     0.39820    0.00098     0.39918
      H   24    0.11296      0.00000     0.38271    0.00433     0.38704
      H   25    0.10050      0.00000     0.39855    0.00095     0.39950
      H   26    0.10018      0.00000     0.39820    0.00162     0.39982
      H   27    0.09837      0.00000     0.39999    0.00164     0.40163
      H   28    0.10108      0.00000     0.39790    0.00102     0.39892
      H   29    0.11139      0.00000     0.38653    0.00209     0.38861
      H   30    0.20051      0.00000     0.29642    0.00307     0.29949
      H   31    0.19414      0.00000     0.30377    0.00209     0.30586
      H   32    0.08735      0.00000     0.41136    0.00129     0.41265
      H   33    0.10809      0.00000     0.39072    0.00119     0.39191
      H   34    0.09977      0.00000     0.39872    0.00151     0.40023
      H   35    0.09018      0.00000     0.40891    0.00091     0.40982
      H   36    0.16161      0.00000     0.33582    0.00257     0.33839
      H   37    0.09841      0.00000     0.40011    0.00148     0.40159
      H   38    0.08973      0.00000     0.40930    0.00096     0.41027
      H   39    0.09717      0.00000     0.40159    0.00125     0.40283
      H   40    0.08501      0.00000     0.41367    0.00132     0.41499
 =======================================================================
   * Total *   -0.00000     18.99250    50.75740    0.25010    70.00000

 Normal termination of Gaussian 16 at Sat Dec 12 11:42:44 2020.
