 Gaussian 16, Revision A.03,

 -----------------------------------------------------------
 # opt freq B3LYP/6-31G(d) empiricaldispersion=gd3bj scf=xqc
 -----------------------------------------------------------

 -------------------------------
 CID_115716509_JID_7834_neutraal
 -------------------------------
 Symbolic Z-matrix:
 Charge =  0 Multiplicity = 1

 SCF Done:  E(RB3LYP) =  -679.555139802     A.U. after   13 cycles
 SCF Done:  E(RB3LYP) =  -679.560951241     A.U. after   11 cycles
 SCF Done:  E(RB3LYP) =  -679.561389564     A.U. after   11 cycles
 SCF Done:  E(RB3LYP) =  -679.561417650     A.U. after   11 cycles
 SCF Done:  E(RB3LYP) =  -679.561651063     A.U. after   11 cycles
 SCF Done:  E(RB3LYP) =  -679.561710247     A.U. after   11 cycles
 SCF Done:  E(RB3LYP) =  -679.561740304     A.U. after   10 cycles
 SCF Done:  E(RB3LYP) =  -679.561748506     A.U. after    9 cycles
 SCF Done:  E(RB3LYP) =  -679.561751036     A.U. after    8 cycles
 SCF Done:  E(RB3LYP) =  -679.561751477     A.U. after    7 cycles
 SCF Done:  E(RB3LYP) =  -679.561751613     A.U. after    7 cycles
 Optimization completed.
    -- Stationary point found.
 Normal termination of Gaussian 16 at Fri Dec 11 13:14:55 2020.

 --------------------------------------------------------------------
 #N Geom=AllCheck Guess=TCheck SCRF=Check GenChk RB3LYP/6-31G(d) Freq
 --------------------------------------------------------------------

 Structure from the checkpoint file:  "JID_7834.chk"
 -------------------------------
 CID_115716509_JID_7834_neutraal
 -------------------------------
 Charge =  0 Multiplicity = 1

 SCF Done:  E(RB3LYP) =  -679.561751613     A.U. after    1 cycles

  Exact polarizability: 191.735  -1.230 184.658  17.926   8.731 126.990
 Approx polarizability: 257.115  -2.755 273.423  34.983  16.476 200.566

                      1                      2                      3
                      A                      A                      A
 Frequencies --     24.4986                37.0999                50.6056
 Red. masses --      4.3272                 3.3911                 2.9124
 Frc consts  --      0.0015                 0.0028                 0.0044
 IR Inten    --      0.0323                 0.0580                 0.0431

                      4                      5                      6
                      A                      A                      A
 Frequencies --     74.0661                80.9366                98.2423
 Red. masses --      3.3358                 3.5348                 2.9874
 Frc consts  --      0.0108                 0.0136                 0.0170
 IR Inten    --      0.0540                 0.1566                 0.0229

                      7                      8                      9
                      A                      A                      A
 Frequencies --    114.3061               141.7874               152.7856
 Red. masses --      2.7301                 1.9657                 2.0868
 Frc consts  --      0.0210                 0.0233                 0.0287
 IR Inten    --      0.0505                 0.0529                 0.1058

                     10                     11                     12
                      A                      A                      A
 Frequencies --    208.5066               225.2303               246.8202
 Red. masses --      1.7048                 2.8461                 3.2316
 Frc consts  --      0.0437                 0.0851                 0.1160
 IR Inten    --      0.0464                 0.1528                 1.1833

                     13                     14                     15
                      A                      A                      A
 Frequencies --    268.3306               283.4706               312.4376
 Red. masses --      1.9439                 1.5328                 2.2751
 Frc consts  --      0.0825                 0.0726                 0.1309
 IR Inten    --      0.5392                 0.1523                 0.5146

                     16                     17                     18
                      A                      A                      A
 Frequencies --    327.1088               334.6128               392.0042
 Red. masses --      1.9958                 3.2171                 2.1174
 Frc consts  --      0.1258                 0.2122                 0.1917
 IR Inten    --      0.8489                 1.2844                 0.4165

                     19                     20                     21
                      A                      A                      A
 Frequencies --    421.2253               457.5231               482.2961
 Red. masses --      2.9916                 2.6886                 2.3172
 Frc consts  --      0.3127                 0.3316                 0.3176
 IR Inten    --      0.0908                 7.8427                 0.3245

                     22                     23                     24
                      A                      A                      A
 Frequencies --    504.4443               523.0229               541.3687
 Red. masses --      3.8463                 2.8293                 1.9760
 Frc consts  --      0.5767                 0.4560                 0.3412
 IR Inten    --      1.1550                 3.6102                 0.4565

                     25                     26                     27
                      A                      A                      A
 Frequencies --    629.2847               639.1938               644.2710
 Red. masses --      2.3593                 6.1190                 2.5333
 Frc consts  --      0.5505                 1.4730                 0.6195
 IR Inten    --     11.0887                 0.1294                 6.9063

                     28                     29                     30
                      A                      A                      A
 Frequencies --    704.8227               720.6563               747.0985
 Red. masses --      1.8639                 1.7333                 1.8472
 Frc consts  --      0.5455                 0.5304                 0.6075
 IR Inten    --     78.7104                21.2298                 8.6386

                     31                     32                     33
                      A                      A                      A
 Frequencies --    765.7716               795.9035               801.9648
 Red. masses --      1.5982                 1.4970                 1.5203
 Frc consts  --      0.5522                 0.5587                 0.5761
 IR Inten    --      2.2746                 2.1499                 2.1532

                     34                     35                     36
                      A                      A                      A
 Frequencies --    808.4607               859.6469               862.2096
 Red. masses --      2.0319                 1.9771                 1.3037
 Frc consts  --      0.7825                 0.8608                 0.5710
 IR Inten    --      6.4147                 1.7794                 0.5098

                     37                     38                     39
                      A                      A                      A
 Frequencies --    888.8371               905.5222               918.3775
 Red. masses --      1.9414                 1.8171                 1.8049
 Frc consts  --      0.9037                 0.8779                 0.8969
 IR Inten    --      6.3374                 1.6215                 2.7719

                     40                     41                     42
                      A                      A                      A
 Frequencies --    926.2089               943.2196               961.0067
 Red. masses --      1.5016                 2.3400                 1.7760
 Frc consts  --      0.7590                 1.2266                 0.9664
 IR Inten    --      1.8888                 1.7722                 0.5431

                     43                     44                     45
                      A                      A                      A
 Frequencies --    965.1332               966.3383               976.9766
 Red. masses --      1.7698                 1.4439                 1.8334
 Frc consts  --      0.9713                 0.7944                 1.0310
 IR Inten    --      7.9419                 1.5653                 1.8851

                     46                     47                     48
                      A                      A                      A
 Frequencies --    993.5801              1009.5206              1022.2693
 Red. masses --      1.2422                 1.2234                 6.0504
 Frc consts  --      0.7225                 0.7346                 3.7253
 IR Inten    --      0.3407                 0.7706                 0.1473

                     49                     50                     51
                      A                      A                      A
 Frequencies --   1027.9439              1054.3267              1061.9049
 Red. masses --      2.0040                 2.3834                 2.2239
 Frc consts  --      1.2476                 1.5610                 1.4775
 IR Inten    --      2.7124                 1.0177                 2.5788

                     52                     53                     54
                      A                      A                      A
 Frequencies --   1065.2879              1093.4811              1115.7023
 Red. masses --      2.0799                 1.6366                 1.6499
 Frc consts  --      1.3906                 1.1529                 1.2101
 IR Inten    --      0.8202                 1.1558                 1.6633

                     55                     56                     57
                      A                      A                      A
 Frequencies --   1133.8761              1154.1654              1171.6927
 Red. masses --      1.5668                 2.8758                 2.3630
 Frc consts  --      1.1869                 2.2570                 1.9113
 IR Inten    --      4.3796                27.2154                 4.7433

                     58                     59                     60
                      A                      A                      A
 Frequencies --   1176.0035              1190.4819              1193.5674
 Red. masses --      1.9084                 2.5193                 1.0967
 Frc consts  --      1.5550                 2.1037                 0.9205
 IR Inten    --     18.8925                38.4508                 0.2791

                     61                     62                     63
                      A                      A                      A
 Frequencies --   1216.8544              1217.9768              1230.9730
 Red. masses --      1.1627                 1.4788                 2.3938
 Frc consts  --      1.0144                 1.2925                 2.1372
 IR Inten    --      0.1297                 0.8268                 7.5139

                     64                     65                     66
                      A                      A                      A
 Frequencies --   1251.1832              1257.5269              1270.7495
 Red. masses --      1.4873                 1.3442                 1.2827
 Frc consts  --      1.3718                 1.2524                 1.2204
 IR Inten    --     17.1346                 1.2131                 0.1140

                     67                     68                     69
                      A                      A                      A
 Frequencies --   1273.8430              1280.4468              1292.2989
 Red. masses --      1.2924                 1.2568                 1.3971
 Frc consts  --      1.2356                 1.2140                 1.3747
 IR Inten    --      5.9885                 0.6772                 0.2508

                     70                     71                     72
                      A                      A                      A
 Frequencies --   1298.5751              1323.4884              1345.5892
 Red. masses --      1.3657                 1.3865                 1.2823
 Frc consts  --      1.3569                 1.4309                 1.3680
 IR Inten    --     15.3096                 3.3935                 7.4924

                     73                     74                     75
                      A                      A                      A
 Frequencies --   1363.5510              1366.6712              1371.2005
 Red. masses --      2.6952                 1.8466                 1.2724
 Frc consts  --      2.9524                 2.0321                 1.4096
 IR Inten    --      5.1538                 0.2179                 0.9108

                     76                     77                     78
                      A                      A                      A
 Frequencies --   1379.9328              1389.3236              1405.6170
 Red. masses --      1.5665                 1.3415                 1.3197
 Frc consts  --      1.7575                 1.5256                 1.5362
 IR Inten    --      0.5240                 7.3017                 2.5765

                     79                     80                     81
                      A                      A                      A
 Frequencies --   1424.0322              1434.4703              1440.8987
 Red. masses --      1.4029                 1.2794                 1.2427
 Frc consts  --      1.6762                 1.5511                 1.5201
 IR Inten    --      1.6294                18.4408                 5.0627

                     82                     83                     84
                      A                      A                      A
 Frequencies --   1502.4083              1507.9999              1514.2422
 Red. masses --      2.1212                 1.0926                 1.0819
 Frc consts  --      2.8210                 1.4639                 1.4616
 IR Inten    --      2.2188                 0.3967                 5.7215

                     85                     86                     87
                      A                      A                      A
 Frequencies --   1515.8763              1520.3504              1521.4319
 Red. masses --      1.0927                 1.0685                 1.1093
 Frc consts  --      1.4794                 1.4552                 1.5129
 IR Inten    --      4.1088                 9.7563                35.0526

                     88                     89                     90
                      A                      A                      A
 Frequencies --   1530.8746              1534.3465              1537.6929
 Red. masses --      1.0827                 1.1434                 1.0804
 Frc consts  --      1.4949                 1.5860                 1.5051
 IR Inten    --      6.0516                31.6831                24.3364

                     91                     92                     93
                      A                      A                      A
 Frequencies --   1541.6256              1544.3296              1548.4696
 Red. masses --      1.0716                 1.1226                 2.1437
 Frc consts  --      1.5005                 1.5775                 3.0284
 IR Inten    --      0.8975                 2.6480                12.7624

                     94                     95                     96
                      A                      A                      A
 Frequencies --   1643.7758              1667.2115              3000.4648
 Red. masses --      5.4237                 5.6022                 1.0836
 Frc consts  --      8.6344                 9.1746                 5.7475
 IR Inten    --      0.5679                 3.6471                30.0906

                     97                     98                     99
                      A                      A                      A
 Frequencies --   3029.2173              3042.1791              3051.4492
 Red. masses --      1.0829                 1.0385                 1.0383
 Frc consts  --      5.8544                 5.6626                 5.6965
 IR Inten    --     24.0869                21.8273                11.5058

                    100                    101                    102
                      A                      A                      A
 Frequencies --   3054.4095              3064.2254              3066.5791
 Red. masses --      1.0621                 1.0628                 1.0714
 Frc consts  --      5.8379                 5.8795                 5.9361
 IR Inten    --     23.3875                36.9711                33.0552

                    103                    104                    105
                      A                      A                      A
 Frequencies --   3069.1936              3069.4286              3075.2248
 Red. masses --      1.0645                 1.0638                 1.0609
 Frc consts  --      5.9083                 5.9051                 5.9112
 IR Inten    --      3.7615                74.8024                22.5496

                    106                    107                    108
                      A                      A                      A
 Frequencies --   3087.2588              3107.6629              3107.7457
 Red. masses --      1.0991                 1.1016                 1.1068
 Frc consts  --      6.1721                 6.2684                 6.2980
 IR Inten    --      3.3070                37.0148                24.4925

                    109                    110                    111
                      A                      A                      A
 Frequencies --   3110.8364              3113.3743              3117.2883
 Red. masses --      1.1022                 1.1041                 1.1019
 Frc consts  --      6.2844                 6.3054                 6.3085
 IR Inten    --     77.9853                60.8376                44.8383

                    112                    113                    114
                      A                      A                      A
 Frequencies --   3121.0894              3125.5445              3131.4410
 Red. masses --      1.1025                 1.1013                 1.1066
 Frc consts  --      6.3279                 6.3388                 6.3932
 IR Inten    --      7.7727                31.0515                76.7246

                    115                    116                    117
                      A                      A                      A
 Frequencies --   3179.2310              3184.1772              3193.8881
 Red. masses --      1.0845                 1.0868                 1.0905
 Frc consts  --      6.4582                 6.4923                 6.5539
 IR Inten    --      4.4882                 0.2942                17.9391

                    118                    119                    120
                      A                      A                      A
 Frequencies --   3200.0623              3210.6675              3516.2389
 Red. masses --      1.0942                 1.0980                 1.0732
 Frc consts  --      6.6016                 6.6689                 7.8178
 IR Inten    --     45.2687                17.6366                 5.9084

 - Thermochemistry -
 -------------------
 Temperature   298.150 Kelvin.  Pressure   1.00000 Atm.
 Atom     1 has atomic number  6 and mass  12.00000

 Molecular mass:   231.19870 amu.
 Principal axes and moments of inertia in atomic units:
                           1         2         3
     Eigenvalues --  2957.915615983.271127873.71294
           X            0.99952  -0.03016   0.00671
           Y            0.03013   0.99954   0.00431
           Z           -0.00683  -0.00410   0.99997
 This molecule is an asymmetric top.
 Rotational symmetry number  1.
 Warning -- assumption of classical behavior for rotation
           may cause significant error
 Rotational temperatures (Kelvin)      0.02928     0.01448     0.01100
 Rotational constants (GHZ):           0.61014     0.30163     0.22921
 Zero-point vibrational energy    1003021.8 (Joules/Mol)
                                  239.72797 (Kcal/Mol)
 Warning -- explicit consideration of  24 degrees of freedom as
           vibrations may cause significant error
 Vibrational temperatures:     35.25    53.38    72.81   106.56   116.45
          (Kelvin)            141.35   164.46   204.00   219.82   299.99
                              324.06   355.12   386.07   407.85   449.53
                              470.64   481.43   564.01   606.05   658.27
                              693.92   725.78   752.51   778.91   905.40
                              919.66   926.96  1014.08  1036.86  1074.91
                             1101.77  1145.13  1153.85  1163.19  1236.84
                             1240.53  1278.84  1302.84  1321.34  1332.61
                             1357.08  1382.67  1388.61  1390.35  1405.65
                             1429.54  1452.48  1470.82  1478.98  1516.94
                             1527.84  1532.71  1573.28  1605.25  1631.39
                             1660.59  1685.80  1692.01  1712.84  1717.28
                             1750.78  1752.40  1771.10  1800.17  1809.30
                             1828.33  1832.78  1842.28  1859.33  1868.36
                             1904.20  1936.00  1961.85  1966.34  1972.85
                             1985.42  1998.93  2022.37  2048.86  2063.88
                             2073.13  2161.63  2169.68  2178.66  2181.01
                             2187.45  2189.00  2202.59  2207.58  2212.40
                             2218.06  2221.95  2227.90  2365.03  2398.75
                             4317.00  4358.37  4377.02  4390.35  4394.61
                             4408.74  4412.12  4415.89  4416.22  4424.56
                             4441.88  4471.23  4471.35  4475.80  4479.45
                             4485.08  4490.55  4496.96  4505.45  4574.20
                             4581.32  4595.29  4604.18  4619.43  5059.08

 Zero-point correction=                           0.382031 (Hartree/Particle)
 Thermal correction to Energy=                    0.399376
 Thermal correction to Enthalpy=                  0.400321
 Thermal correction to Gibbs Free Energy=         0.335816
 Sum of electronic and zero-point Energies=           -679.179721
 Sum of electronic and thermal Energies=              -679.162375
 Sum of electronic and thermal Enthalpies=            -679.161431
 Sum of electronic and thermal Free Energies=         -679.225935

                     E (Thermal)             CV                S
                      KCal/Mol        Cal/Mol-Kelvin    Cal/Mol-Kelvin
 Total                  250.612             67.555            135.761
 Electronic               0.000              0.000              0.000
 Translational            0.889              2.981             42.216
 Rotational               0.889              2.981             33.299
 Vibrational            248.835             61.594             60.246
 Vibration     1          0.593              1.985              6.231
 Vibration     2          0.594              1.982              5.408
 Vibration     3          0.595              1.977              4.794
 Vibration     4          0.599              1.966              4.042
 Vibration     5          0.600              1.962              3.868
 Vibration     6          0.604              1.950              3.489
 Vibration     7          0.607              1.938              3.194
 Vibration     8          0.615              1.911              2.780
 Vibration     9          0.619              1.900              2.637
 Vibration    10          0.642              1.828              2.057
 Vibration    11          0.650              1.803              1.917
 Vibration    12          0.661              1.768              1.753
 Vibration    13          0.673              1.731              1.607
 Vibration    14          0.682              1.704              1.513
 Vibration    15          0.701              1.650              1.349
 Vibration    16          0.711              1.621              1.274
 Vibration    17          0.716              1.606              1.238
 Vibration    18          0.759              1.487              0.993
 Vibration    19          0.784              1.424              0.888
 Vibration    20          0.816              1.344              0.773
 Vibration    21          0.839              1.289              0.704
 Vibration    22          0.860              1.240              0.647
 Vibration    23          0.878              1.199              0.603
 Vibration    24          0.896              1.159              0.562

 Optimization completed.
    -- Stationary point found.
 Normal termination of Gaussian 16 at Fri Dec 11 13:33:42 2020.

 ----------------------------------------------------------------------
 # B3LYP/6-311++G(d,p) empiricaldispersion=gd3bj scf=xqc pop=npa geom=c
 heck
 ----------------------------------------------------------------------

 ---------------------------------------
 CID_115716509_JID_7834_Energie_neutraal
 ---------------------------------------
 Structure from the checkpoint file:  "JID_7834.chk"
 Charge =  0 Multiplicity = 1

 SCF Done:  E(RB3LYP) =  -679.744050803     A.U. after   14 cycles
 Normal termination of Gaussian 16 at Fri Dec 11 13:41:22 2020.

 ----------------------------------------------------------------------
 # B3LYP/6-311++G(d,p) empiricaldispersion=gd3bj scf=xqc pop=npa geom=c
 heck
 ----------------------------------------------------------------------

 -------------------------------------
 CID_115716509_JID_7834_Energie_kation
 -------------------------------------
 Structure from the checkpoint file:  "JID_7834.chk"
 Charge =  1 Multiplicity = 2

 SCF Done:  E(UB3LYP) =  -679.462737809     A.U. after   22 cycles
 Normal termination of Gaussian 16 at Fri Dec 11 13:57:26 2020.
 Gaussian 16:  ES64L-G16RevA.03 25-Dec-2016

 ----------------------------------------------------------------------
 # B3LYP/6-311++G(d,p) empiricaldispersion=gd3bj scf=xqc pop=npa geom=c
 heck
 ----------------------------------------------------------------------

 ------------------------------------
 CID_115716509_JID_7834_Energie_anion
 ------------------------------------
 Structure from the checkpoint file:  "JID_7834.chk"
 Charge = -1 Multiplicity = 2

                         Standard orientation:
 ---------------------------------------------------------------------
 Center     Atomic      Atomic             Coordinates (Angstroms)
 Number     Number       Type             X           Y           Z
 ---------------------------------------------------------------------
      1          6           0       -2.466446    3.237637   -0.646463
      2          6           0       -1.370058    2.241454   -1.033050
      3          6           0       -0.534856    1.704274    0.143458
      4          6           0       -1.395084    0.922170    1.185971
      5          6           0       -1.929070   -0.388575    0.661077
      6          6           0       -3.151241   -0.457800   -0.022115
      7          6           0       -3.608999   -1.661180   -0.557348
      8          6           0       -2.850302   -2.824948   -0.420135
      9          6           0       -1.636536   -2.775681    0.265082
     10          6           0       -1.184816   -1.569161    0.801584
     11          7           0        0.585985    0.933259   -0.391484
     12          6           0        1.905413    1.060874    0.230723
     13          6           0        1.963102    0.783099    1.743606
     14          6           0        2.855496    0.181786   -0.587945
     15          6           0        4.356990    0.033391   -0.225032
     16          6           0        4.275618   -1.444356   -0.691011
     17          6           0        2.734903   -1.369817   -0.527649
     18          1           0       -3.259494    2.775955   -0.047675
     19          1           0       -2.938827    3.663064   -1.538744
     20          1           0       -2.055971    4.069784   -0.060247
     21          1           0       -1.804081    1.393497   -1.578047
     22          1           0       -0.665605    2.716757   -1.724500
     23          1           0       -0.112567    2.571396    0.670216
     24          1           0       -0.778674    0.731961    2.069220
     25          1           0       -2.224677    1.559332    1.511987
     26          1           0       -3.751756    0.441309   -0.130450
     27          1           0       -4.560800   -1.690568   -1.080813
     28          1           0       -3.206192   -3.762664   -0.837362
     29          1           0       -1.042177   -3.676931    0.388670
     30          1           0       -0.247490   -1.543297    1.350969
     31          1           0        0.330932   -0.045485   -0.496066
     32          1           0        2.222322    2.105127    0.084281
     33          1           0        1.658085   -0.242162    1.980935
     34          1           0        2.974945    0.933550    2.135994
     35          1           0        1.301574    1.463613    2.288452
     36          1           0        2.763505    0.498258   -1.633070
     37          1           0        5.066385    0.695870   -0.731210
     38          1           0        4.529982    0.098040    0.853965
     39          1           0        4.813424   -2.193638   -0.102055
     40          1           0        4.563860   -1.552916   -1.741661
     41          1           0        2.425105   -1.718845    0.463490
     42          1           0        2.111619   -1.862824   -1.280405
 ---------------------------------------------------------------------

 SCF Done:  E(UB3LYP) =  -679.729901795     A.U. after   33 cycles
 SCF Done:  E(UB3LYP) =  -679.729901795     a.u. after    1 cycles

 The electronic state is 2-A.
 Alpha  occ. eigenvalues --  -14.19148 -10.10335 -10.10259 -10.08604 -10.08120
 Alpha  occ. eigenvalues --  -10.08112 -10.07908 -10.07863 -10.07766 -10.07728
 Alpha  occ. eigenvalues --  -10.07690 -10.07464 -10.07283 -10.07216 -10.06617
 Alpha  occ. eigenvalues --  -10.06459 -10.06073  -0.81411  -0.76502  -0.75259
 Alpha  occ. eigenvalues --   -0.69917  -0.66806  -0.65301  -0.64304  -0.60725
 Alpha  occ. eigenvalues --   -0.57383  -0.56788  -0.54820  -0.51460  -0.50188
 Alpha  occ. eigenvalues --   -0.50090  -0.47048  -0.44601  -0.41720  -0.39965
 Alpha  occ. eigenvalues --   -0.38991  -0.37927  -0.37337  -0.36358  -0.35364
 Alpha  occ. eigenvalues --   -0.34053  -0.33767  -0.32708  -0.32575  -0.31533
 Alpha  occ. eigenvalues --   -0.30339  -0.29485  -0.28852  -0.28455  -0.27434
 Alpha  occ. eigenvalues --   -0.26961  -0.26774  -0.25990  -0.25353  -0.24983
 Alpha  occ. eigenvalues --   -0.24307  -0.23638  -0.22633  -0.22004  -0.21211
 Alpha  occ. eigenvalues --   -0.20325  -0.16297  -0.15557  -0.12147   0.04185
 Alpha virt. eigenvalues --    0.05962   0.06141   0.06884   0.07502   0.07616
 Alpha virt. eigenvalues --    0.07785   0.07802   0.08668   0.08875   0.09248
 Alpha virt. eigenvalues --    0.09679   0.10248   0.10634   0.10960   0.11480

  Beta  occ. eigenvalues --  -14.19148 -10.10326 -10.10250 -10.08574 -10.08113
  Beta  occ. eigenvalues --  -10.08092 -10.07881 -10.07858 -10.07765 -10.07707
  Beta  occ. eigenvalues --  -10.07676 -10.07451 -10.07274 -10.07204 -10.06590
  Beta  occ. eigenvalues --  -10.06453 -10.06045  -0.81402  -0.76457  -0.75244
  Beta  occ. eigenvalues --   -0.69885  -0.66757  -0.65259  -0.64274  -0.60682
  Beta  occ. eigenvalues --   -0.57346  -0.56753  -0.54777  -0.51416  -0.50144
  Beta  occ. eigenvalues --   -0.50034  -0.47009  -0.44565  -0.41668  -0.39940
  Beta  occ. eigenvalues --   -0.38964  -0.37890  -0.37308  -0.36318  -0.35327
  Beta  occ. eigenvalues --   -0.34029  -0.33738  -0.32676  -0.32543  -0.31491
  Beta  occ. eigenvalues --   -0.30310  -0.29454  -0.28816  -0.28430  -0.27396
  Beta  occ. eigenvalues --   -0.26929  -0.26721  -0.25963  -0.25320  -0.24955
  Beta  occ. eigenvalues --   -0.24276  -0.23609  -0.22605  -0.21984  -0.21193
  Beta  occ. eigenvalues --   -0.20303  -0.16233  -0.15419  -0.12138
  Beta virt. eigenvalues --    0.06073   0.06559   0.06802   0.07262   0.07675
  Beta virt. eigenvalues --    0.07863   0.08075   0.08228   0.08961   0.09181
  Beta virt. eigenvalues --    0.09501   0.10034   0.10445   0.10871   0.11258

 Mulliken charges and spin densities:
               1          2
     1  C    0.406969  -1.036186
     2  C   -0.659598   0.567794
     3  C    0.182251  -0.558677
     4  C    1.824811  -2.141949
     5  C   -0.470374   1.469397
     6  C   -1.424298   0.976076
     7  C   -0.066196  -0.352831
     8  C    1.057117  -1.404898
     9  C    0.309572  -0.609390
    10  C   -0.574832   0.380684
    11  N    0.166734   0.014445
    12  C   -0.416431  -0.183887
    13  C    0.754210  -1.346029
    14  C   -0.304128   0.788281
    15  C   -0.391398  -0.034682
    16  C    0.138915  -0.557791
    17  C   -0.209280  -0.136898
    18  H   -0.109664   0.241035
    19  H   -0.071461   0.206246
    20  H   -0.225566   0.366687
    21  H    0.149326   0.007798
    22  H    0.075598   0.090514
    23  H    0.188079  -0.002549
    24  H   -0.027960   0.199328
    25  H   -0.092272   0.290483
    26  H    0.010030   0.117241
    27  H   -0.411764   0.589094
    28  H   -0.121181   0.270335
    29  H   -0.461709   0.647187
    30  H   -0.028006   0.154383
    31  H    0.218056  -0.043990
    32  H   -0.085562   0.234690
    33  H   -0.200653   0.377111
    34  H   -0.308872   0.449045
    35  H   -0.030291   0.168025
    36  H    0.150347   0.064120
    37  H   -0.052069   0.195619
    38  H    0.106512  -0.005986
    39  H   -0.296757   0.454961
    40  H    0.078057   0.038922
    41  H    0.177158  -0.052494
    42  H    0.046579   0.108739
 Sum of Mulliken charges =  -1.00000   1.00000

 Dipole moment (field-independent basis, Debye):
    X=              1.0917    Y=              1.0723    Z=             -1.8338  Tot=              2.3884
 Quadrupole moment (field-independent basis, Debye-Ang):
   XX=           -185.2838   YY=           -169.4505   ZZ=           -144.9215
   XY=              2.5194   XZ=             -5.8813   YZ=             -1.6265

 Summary of Natural Population Analysis:

                                       Natural Population
                Natural  -----------------------------------------------
    Atom  No    Charge         Core      Valence    Rydberg      Total
 -----------------------------------------------------------------------
      C    1   -0.28810      0.99966     2.28379    0.00465     3.28810
      C    2   -0.19332      0.99961     2.18433    0.00938     3.19332
      C    3   -0.00112      0.99958     1.98907    0.01246     3.00112
      C    4   -0.20692      0.99958     2.19745    0.00989     3.20692
      C    5   -0.01191      0.99950     2.00180    0.01061     3.01191
      C    6   -0.10284      0.99950     2.09404    0.00929     3.10284
      C    7   -0.09766      0.99956     2.08801    0.01009     3.09766
      C    8   -0.10345      0.99956     2.09438    0.00951     3.10345
      C    9   -0.09876      0.99956     2.08867    0.01053     3.09876
      C   10   -0.10761      0.99951     2.09849    0.00961     3.10761
      N   11   -0.35117      0.99972     2.84052    0.01093     3.85117
      C   12   -0.00469      0.99957     1.99308    0.01204     3.00469
      C   13   -0.29734      0.99964     2.29157    0.00612     3.29734
      C   14   -0.10689      0.99959     2.09580    0.01151     3.10689
      C   15   -0.18698      0.99963     2.17997    0.00738     3.18698
      C   16   -0.18892      0.99965     2.18126    0.00801     3.18892
      C   17   -0.19153      0.99963     2.18390    0.00801     3.19153
      H   18    0.09499      0.00000     0.40382    0.00119     0.40501
      H   19    0.09840      0.00000     0.40088    0.00072     0.40160
      H   20    0.09664      0.00000     0.40228    0.00108     0.40336
      H   21    0.09835      0.00000     0.40027    0.00139     0.40165
      H   22    0.10030      0.00000     0.39853    0.00117     0.39970
      H   23    0.09262      0.00000     0.40551    0.00187     0.40738
      H   24    0.10574      0.00000     0.39250    0.00176     0.39426
      H   25    0.10424      0.00000     0.39449    0.00127     0.39576
      H   26    0.10068      0.00000     0.39776    0.00156     0.39932
      H   27    0.10016      0.00000     0.39885    0.00099     0.39984
      H   28    0.10032      0.00000     0.39866    0.00101     0.39968
      H   29    0.10207      0.00000     0.39682    0.00111     0.39793
      H   30    0.10211      0.00000     0.39590    0.00199     0.39789
      H   31    0.18007      0.00000     0.31602    0.00391     0.31993
      H   32    0.08842      0.00000     0.40978    0.00180     0.41158
      H   33    0.09627      0.00000     0.40216    0.00157     0.40373
      H   34    0.09984      0.00000     0.39899    0.00117     0.40016
      H   35    0.10103      0.00000     0.39775    0.00121     0.39897
      H   36    0.10166      0.00000     0.39705    0.00129     0.39834
      H   37    0.09421      0.00000     0.40494    0.00085     0.40579
      H   38    0.09713      0.00000     0.40146    0.00142     0.40287
      H   39    0.09572      0.00000     0.40320    0.00107     0.40428
      H   40    0.09318      0.00000     0.40579    0.00103     0.40682
      H   41    0.09738      0.00000     0.40083    0.00179     0.40262
      H   42    0.09770      0.00000     0.40120    0.00110     0.40230
 =======================================================================
   * Total *   -0.00000     16.99305    46.81159    0.19536    64.00000

 Normal termination of Gaussian 16 at Fri Dec 11 14:21:39 2020.
