 Gaussian 16, Revision A.03,

 -----------------------------------------------------------
 # opt freq B3LYP/6-31G(d) empiricaldispersion=gd3bj scf=xqc
 -----------------------------------------------------------

 ------------------------------
 CID_55233858_JID_7645_neutraal
 ------------------------------
 Symbolic Z-matrix:
 Charge =  0 Multiplicity = 1

 SCF Done:  E(RB3LYP) =  -772.445382145     A.U. after   13 cycles
 SCF Done:  E(RB3LYP) =  -772.447105112     A.U. after   12 cycles
 SCF Done:  E(RB3LYP) =  -772.447703887     A.U. after   13 cycles
 SCF Done:  E(RB3LYP) =  -772.448999668     A.U. after   12 cycles
 SCF Done:  E(RB3LYP) =  -772.451046642     A.U. after   12 cycles
 SCF Done:  E(RB3LYP) =  -772.451901381     A.U. after   12 cycles
 SCF Done:  E(RB3LYP) =  -772.451562729     A.U. after   11 cycles
 SCF Done:  E(RB3LYP) =  -772.451688336     A.U. after   11 cycles
 SCF Done:  E(RB3LYP) =  -772.452094769     A.U. after    8 cycles
 SCF Done:  E(RB3LYP) =  -772.452194643     A.U. after   11 cycles
 SCF Done:  E(RB3LYP) =  -772.452262397     A.U. after    9 cycles
 SCF Done:  E(RB3LYP) =  -772.452264336     A.U. after    9 cycles
 SCF Done:  E(RB3LYP) =  -772.452264572     A.U. after    8 cycles
 SCF Done:  E(RB3LYP) =  -772.452264690     A.U. after    7 cycles
 SCF Done:  E(RB3LYP) =  -772.452264699     A.U. after    6 cycles
 Optimization completed.
    -- Stationary point found.
 Normal termination of Gaussian 16 at Sun Dec 13 16:11:46 2020.

 --------------------------------------------------------------------
 #N Geom=AllCheck Guess=TCheck SCRF=Check GenChk RB3LYP/6-31G(d) Freq
 --------------------------------------------------------------------

 Structure from the checkpoint file:  "JID_7645.chk"
 ------------------------------
 CID_55233858_JID_7645_neutraal
 ------------------------------
 Charge =  0 Multiplicity = 1

 SCF Done:  E(RB3LYP) =  -772.452264699     A.U. after    1 cycles

  Exact polarizability: 164.712  -4.145 156.406  24.194   6.156 136.850
 Approx polarizability: 219.254 -12.640 244.120  42.209  14.282 204.290

                      1                      2                      3
                      A                      A                      A
 Frequencies --     25.2253                42.3357                48.6582
 Red. masses --      4.1467                 2.9581                 3.7417
 Frc consts  --      0.0016                 0.0031                 0.0052
 IR Inten    --      0.0631                 0.1486                 0.3230

                      4                      5                      6
                      A                      A                      A
 Frequencies --     57.4945                64.3606               100.0581
 Red. masses --      3.5942                 4.2751                 3.5864
 Frc consts  --      0.0070                 0.0104                 0.0212
 IR Inten    --      0.0442                 0.1609                 0.7433

                      7                      8                      9
                      A                      A                      A
 Frequencies --    133.5910               136.4648               154.8205
 Red. masses --      2.9983                 2.6253                 3.0838
 Frc consts  --      0.0315                 0.0288                 0.0435
 IR Inten    --      0.1935                 1.3703                 3.6343

                     10                     11                     12
                      A                      A                      A
 Frequencies --    179.6245               196.0631               216.9334
 Red. masses --      1.8677                 2.2861                 1.8882
 Frc consts  --      0.0355                 0.0518                 0.0524
 IR Inten    --      1.4605                 5.3276                 1.7396

                     13                     14                     15
                      A                      A                      A
 Frequencies --    237.6309               252.5411               261.2901
 Red. masses --      1.6970                 2.2063                 2.4228
 Frc consts  --      0.0565                 0.0829                 0.0975
 IR Inten    --      0.0518                 1.9094                 4.5834

                     16                     17                     18
                      A                      A                      A
 Frequencies --    309.4228               330.7356               337.0567
 Red. masses --      3.5677                 2.2587                 3.5494
 Frc consts  --      0.2013                 0.1456                 0.2376
 IR Inten    --      0.7215                 0.6784                 2.3853

                     19                     20                     21
                      A                      A                      A
 Frequencies --    358.6526               414.0903               454.3693
 Red. masses --      3.4857                 2.2730                 3.0569
 Frc consts  --      0.2642                 0.2296                 0.3718
 IR Inten    --      1.8447                 0.2381                 3.8232

                     22                     23                     24
                      A                      A                      A
 Frequencies --    482.6551               491.8012               515.8755
 Red. masses --      3.3168                 2.3009                 2.0945
 Frc consts  --      0.4552                 0.3279                 0.3284
 IR Inten    --      2.8607                 0.9899                15.1646

                     25                     26                     27
                      A                      A                      A
 Frequencies --    526.0135               536.1213               547.2426
 Red. masses --      2.8026                 2.6688                 1.5967
 Frc consts  --      0.4569                 0.4520                 0.2817
 IR Inten    --     15.4687                 1.6417                77.3187

                     28                     29                     30
                      A                      A                      A
 Frequencies --    600.4212               693.4696               732.6316
 Red. masses --      4.3341                 4.1411                 4.3447
 Frc consts  --      0.9206                 1.1733                 1.3740
 IR Inten    --     35.9062                14.1463                 2.7403

                     31                     32                     33
                      A                      A                      A
 Frequencies --    758.2532               773.9375               790.1358
 Red. masses --      1.5444                 1.2864                 2.0563
 Frc consts  --      0.5231                 0.4540                 0.7564
 IR Inten    --     26.4356                 4.9563                11.7764

                     34                     35                     36
                      A                      A                      A
 Frequencies --    823.4109               869.0641               888.1633
 Red. masses --      4.6337                 2.4543                 1.7268
 Frc consts  --      1.8510                 1.0921                 0.8026
 IR Inten    --      2.1933                 6.2519                 5.8477

                     37                     38                     39
                      A                      A                      A
 Frequencies --    890.7699               907.7684               923.9471
 Red. masses --      1.7430                 2.3443                 2.5603
 Frc consts  --      0.8148                 1.1382                 1.2878
 IR Inten    --      0.7142                 7.9745                10.6251

                     40                     41                     42
                      A                      A                      A
 Frequencies --    939.3419               954.1051               987.7303
 Red. masses --      1.2363                 1.3885                 1.3004
 Frc consts  --      0.6427                 0.7447                 0.7475
 IR Inten    --      2.1966                 0.0974                 0.2944

                     43                     44                     45
                      A                      A                      A
 Frequencies --   1000.7909              1020.2169              1021.5981
 Red. masses --      2.2642                 1.7036                 1.7289
 Frc consts  --      1.3361                 1.0447                 1.0631
 IR Inten    --      4.6047                33.2463                44.9653

                     46                     47                     48
                      A                      A                      A
 Frequencies --   1047.7172              1078.2229              1084.8943
 Red. masses --      2.5052                 1.5868                 2.2743
 Frc consts  --      1.6202                 1.0869                 1.5771
 IR Inten    --     23.7566                 4.4711                24.3576

                     49                     50                     51
                      A                      A                      A
 Frequencies --   1088.7273              1097.4481              1121.3990
 Red. masses --      2.3114                 2.6440                 2.4237
 Frc consts  --      1.6143                 1.8762                 1.7958
 IR Inten    --     10.1116                71.3671                28.3773

                     52                     53                     54
                      A                      A                      A
 Frequencies --   1136.3526              1158.0337              1159.3949
 Red. masses --      2.3621                 3.1987                 2.1036
 Frc consts  --      1.7971                 2.5273                 1.6660
 IR Inten    --     65.9187                74.5294                22.7158

                     55                     56                     57
                      A                      A                      A
 Frequencies --   1173.1874              1195.7317              1196.2365
 Red. masses --      3.4926                 1.0993                 1.9204
 Frc consts  --      2.8322                 0.9261                 1.6191
 IR Inten    --     98.8868                 0.2699                 4.3427

                     58                     59                     60
                      A                      A                      A
 Frequencies --   1212.0840              1241.3642              1263.9349
 Red. masses --      1.9911                 2.7479                 1.3227
 Frc consts  --      1.7235                 2.4949                 1.2449
 IR Inten    --      5.6646                 4.7704                23.2661

                     61                     62                     63
                      A                      A                      A
 Frequencies --   1277.6821              1290.0299              1308.0766
 Red. masses --      1.1560                 1.1722                 1.3103
 Frc consts  --      1.1119                 1.1494                 1.3209
 IR Inten    --      2.0800                 3.6666                 8.0192

                     64                     65                     66
                      A                      A                      A
 Frequencies --   1318.8180              1324.1917              1344.3984
 Red. masses --      1.4371                 1.1788                 2.5257
 Frc consts  --      1.4727                 1.2178                 2.6896
 IR Inten    --      8.3762                 4.3866                 6.6204

                     67                     68                     69
                      A                      A                      A
 Frequencies --   1354.7886              1378.4835              1393.2245
 Red. masses --      1.4398                 1.6025                 1.2509
 Frc consts  --      1.5570                 1.7941                 1.4306
 IR Inten    --      3.1760                15.4919                29.2896

                     70                     71                     72
                      A                      A                      A
 Frequencies --   1399.0991              1412.7580              1435.9183
 Red. masses --      1.3071                 1.3445                 1.2994
 Frc consts  --      1.5075                 1.5810                 1.5785
 IR Inten    --      9.6606                25.6220                16.2517

                     73                     74                     75
                      A                      A                      A
 Frequencies --   1439.8791              1444.5696              1451.0734
 Red. masses --      1.2778                 1.2556                 1.1971
 Frc consts  --      1.5608                 1.5438                 1.4852
 IR Inten    --     10.5253                 8.4822                55.9529

                     76                     77                     78
                      A                      A                      A
 Frequencies --   1468.1821              1494.9457              1508.7645
 Red. masses --      1.4672                 2.0522                 1.0829
 Frc consts  --      1.8634                 2.7022                 1.4524
 IR Inten    --      3.2737                 6.4665                 4.1264

                     79                     80                     81
                      A                      A                      A
 Frequencies --   1512.6835              1520.7486              1524.4870
 Red. masses --      1.0932                 1.2032                 1.0550
 Frc consts  --      1.4739                 1.6394                 1.4446
 IR Inten    --      1.3294                 3.2921                 9.9734

                     82                     83                     84
                      A                      A                      A
 Frequencies --   1527.8189              1530.0666              1534.7983
 Red. masses --      1.2622                 1.1350                 1.0914
 Frc consts  --      1.7358                 1.5655                 1.5148
 IR Inten    --      5.4018                12.0274                 3.1231

                     85                     86                     87
                      A                      A                      A
 Frequencies --   1537.6051              1544.5062              1556.9156
 Red. masses --      1.2634                 1.2299                 1.0925
 Frc consts  --      1.7598                 1.7286                 1.5602
 IR Inten    --      7.0334                 4.6858                 1.8839

                     88                     89                     90
                      A                      A                      A
 Frequencies --   1638.5613              1667.0427              2971.1873
 Red. masses --      5.6026                 5.8086                 1.0569
 Frc consts  --      8.8627                 9.5108                 5.4973
 IR Inten    --      0.5247                 0.8137                16.7166

                     91                     92                     93
                      A                      A                      A
 Frequencies --   2981.4532              3004.2344              3023.0350
 Red. masses --      1.0596                 1.1054                 1.0995
 Frc consts  --      5.5497                 5.8779                 5.9202
 IR Inten    --    101.3073                50.8078                36.4120

                     94                     95                     96
                      A                      A                      A
 Frequencies --   3041.3034              3048.2503              3048.3590
 Red. masses --      1.0831                 1.0585                 1.0408
 Frc consts  --      5.9026                 5.7947                 5.6986
 IR Inten    --     21.2820                28.2388                25.5743

                     97                     98                     99
                      A                      A                      A
 Frequencies --   3052.5505              3073.3549              3082.1663
 Red. masses --      1.0390                 1.0589                 1.1011
 Frc consts  --      5.7043                 5.8929                 6.1628
 IR Inten    --     25.2209                46.9717                23.7671

                    100                    101                    102
                      A                      A                      A
 Frequencies --   3084.2679              3107.4652              3115.8560
 Red. masses --      1.0707                 1.1000                 1.1013
 Frc consts  --      6.0011                 6.2583                 6.2998
 IR Inten    --     44.5757                11.7597                38.4962

                    103                    104                    105
                      A                      A                      A
 Frequencies --   3122.0780              3122.2919              3137.5576
 Red. masses --      1.1035                 1.1060                 1.1008
 Frc consts  --      6.3373                 6.3523                 6.3848
 IR Inten    --      6.5383                35.5736                46.0259

                    106                    107                    108
                      A                      A                      A
 Frequencies --   3172.4240              3186.6481              3189.6003
 Red. masses --      1.0867                 1.0888                 1.0955
 Frc consts  --      6.4437                 6.5146                 6.5668
 IR Inten    --      8.8605                18.4525                 4.9126

                    109                    110                    111
                      A                      A                      A
 Frequencies --   3203.2851              3228.7370              3669.0439
 Red. masses --      1.0956                 1.0913                 1.0650
 Frc consts  --      6.6236                 6.7026                 8.4474
 IR Inten    --     33.0681                 8.0537                43.9937

 - Thermochemistry -
 -------------------
 Temperature   298.150 Kelvin.  Pressure   1.00000 Atm.
 Atom     1 has atomic number  6 and mass  12.00000

 Molecular mass:   238.15689 amu.
 Principal axes and moments of inertia in atomic units:
                           1         2         3
     Eigenvalues --  2849.783305982.502266725.96361
           X            0.99988  -0.00799   0.01302
           Y            0.00847   0.99926  -0.03739
           Z           -0.01271   0.03750   0.99922
 This molecule is an asymmetric top.
 Rotational symmetry number  1.
 Warning -- assumption of classical behavior for rotation
           may cause significant error
 Rotational temperatures (Kelvin)      0.03039     0.01448     0.01288
 Rotational constants (GHZ):           0.63329     0.30167     0.26832
 Zero-point vibrational energy     903461.0 (Joules/Mol)
                                  215.93235 (Kcal/Mol)
 Warning -- explicit consideration of  28 degrees of freedom as
           vibrations may cause significant error
 Vibrational temperatures:     36.29    60.91    70.01    82.72    92.60
          (Kelvin)            143.96   192.21   196.34   222.75   258.44
                              282.09   312.12   341.90   363.35   375.94
                              445.19   475.85   484.95   516.02   595.78
                              653.74   694.43   707.59   742.23   756.82
                              771.36   787.36   863.87   997.75  1054.09
                             1090.96  1113.52  1136.83  1184.70  1250.39
                             1277.87  1281.62  1306.08  1329.35  1351.50
                             1372.74  1421.12  1439.91  1467.86  1469.85
                             1507.43  1551.32  1560.92  1566.44  1578.98
                             1613.44  1634.96  1666.15  1668.11  1687.95
                             1720.39  1721.12  1743.92  1786.05  1818.52
                             1838.30  1856.07  1882.03  1897.48  1905.22
                             1934.29  1949.24  1983.33  2004.54  2012.99
                             2032.64  2065.97  2071.66  2078.41  2087.77
                             2112.39  2150.89  2170.78  2176.41  2188.02
                             2193.40  2198.19  2201.42  2208.23  2212.27
                             2222.20  2240.05  2357.52  2398.50  4274.88
                             4289.65  4322.42  4349.47  4375.76  4385.75
                             4385.91  4391.94  4421.87  4434.55  4437.57
                             4470.95  4483.02  4491.97  4492.28  4514.25
                             4564.41  4584.88  4589.12  4608.81  4645.43
                             5278.94

 Zero-point correction=                           0.344110 (Hartree/Particle)
 Thermal correction to Energy=                    0.362075
 Thermal correction to Enthalpy=                  0.363019
 Thermal correction to Gibbs Free Energy=         0.297073
 Sum of electronic and zero-point Energies=           -772.108155
 Sum of electronic and thermal Energies=              -772.090190
 Sum of electronic and thermal Enthalpies=            -772.089246
 Sum of electronic and thermal Free Energies=         -772.155192

                     E (Thermal)             CV                S
                      KCal/Mol        Cal/Mol-Kelvin    Cal/Mol-Kelvin
 Total                  227.205             67.426            138.795
 Electronic               0.000              0.000              0.000
 Translational            0.889              2.981             42.305
 Rotational               0.889              2.981             33.105
 Vibrational            225.428             61.464             63.385
 Vibration     1          0.593              1.985              6.173
 Vibration     2          0.595              1.980              5.147
 Vibration     3          0.595              1.978              4.871
 Vibration     4          0.596              1.975              4.541
 Vibration     5          0.597              1.971              4.319
 Vibration     6          0.604              1.949              3.453
 Vibration     7          0.613              1.920              2.894
 Vibration     8          0.614              1.917              2.853
 Vibration     9          0.620              1.897              2.612
 Vibration    10          0.629              1.867              2.332
 Vibration    11          0.636              1.845              2.170
 Vibration    12          0.646              1.815              1.985
 Vibration    13          0.656              1.783              1.821
 Vibration    14          0.664              1.758              1.713
 Vibration    15          0.669              1.744              1.653
 Vibration    16          0.699              1.656              1.365
 Vibration    17          0.713              1.614              1.256
 Vibration    18          0.718              1.601              1.226
 Vibration    19          0.733              1.557              1.128
 Vibration    20          0.778              1.440              0.912
 Vibration    21          0.813              1.351              0.783
 Vibration    22          0.839              1.289              0.703
 Vibration    23          0.848              1.268              0.679
 Vibration    24          0.871              1.215              0.620
 Vibration    25          0.881              1.192              0.596
 Vibration    26          0.891              1.170              0.574
 Vibration    27          0.902              1.146              0.550
 Vibration    28          0.959              1.031              0.449

 Optimization completed.
    -- Stationary point found.
 Normal termination of Gaussian 16 at Sun Dec 13 16:27:48 2020.

 ----------------------------------------------------------------------
 # B3LYP/6-311++G(d,p) empiricaldispersion=gd3bj scf=xqc pop=npa geom=c
 heck
 ----------------------------------------------------------------------

 --------------------------------------
 CID_55233858_JID_7645_Energie_neutraal
 --------------------------------------
 Structure from the checkpoint file:  "JID_7645.chk"
 Charge =  0 Multiplicity = 1

 SCF Done:  E(RB3LYP) =  -772.677441909     A.U. after   14 cycles
 Normal termination of Gaussian 16 at Sun Dec 13 16:35:50 2020.

 ----------------------------------------------------------------------
 # B3LYP/6-311++G(d,p) empiricaldispersion=gd3bj scf=xqc pop=npa geom=c
 heck
 ----------------------------------------------------------------------

 ------------------------------------
 CID_55233858_JID_7645_Energie_kation
 ------------------------------------
 Structure from the checkpoint file:  "JID_7645.chk"
 Charge =  1 Multiplicity = 2

 SCF Done:  E(UB3LYP) =  -772.376100394     A.U. after   25 cycles
 Normal termination of Gaussian 16 at Sun Dec 13 16:56:08 2020.
 Gaussian 16:  ES64L-G16RevA.03 25-Dec-2016

 ----------------------------------------------------------------------
 # B3LYP/6-311++G(d,p) empiricaldispersion=gd3bj scf=xqc pop=npa geom=c
 heck
 ----------------------------------------------------------------------

 -----------------------------------
 CID_55233858_JID_7645_Energie_anion
 -----------------------------------
 Structure from the checkpoint file:  "JID_7645.chk"
 Charge = -1 Multiplicity = 2

                         Standard orientation:
 ---------------------------------------------------------------------
 Center     Atomic      Atomic             Coordinates (Angstroms)
 Number     Number       Type             X           Y           Z
 ---------------------------------------------------------------------
      1          6           0        3.845109   -0.659150    1.521164
      2          6           0        3.945695   -1.254685    0.114807
      3          6           0        3.541142   -0.279710   -0.981976
      4          8           0        2.171461    0.052049   -0.821271
      5          6           0        1.711843    1.004900   -1.765164
      6          6           0        0.249400    1.324768   -1.503424
      7          8           0        0.050737    2.165884   -0.369382
      8          6           0        0.110765    1.514821    0.904427
      9          6           0       -1.304521    1.118796    1.356466
     10          6           0       -1.910031   -0.025896    0.544365
     11          6           0       -3.018328    0.231035   -0.268515
     12          6           0       -3.586216   -0.766792   -1.058661
     13          6           0       -3.053031   -2.053456   -1.030091
     14          6           0       -1.964041   -2.324387   -0.203417
     15          6           0       -1.375675   -1.331187    0.588396
     16          6           0       -0.174100   -1.694670    1.430595
     17          8           0       -2.109467    2.289681    1.325561
     18          1           0        4.481196    0.229207    1.616988
     19          1           0        4.162933   -1.383211    2.278961
     20          1           0        2.818405   -0.359223    1.749938
     21          1           0        4.976184   -1.576986   -0.083518
     22          1           0        3.314705   -2.149062    0.036163
     23          1           0        4.156937    0.634443   -0.927963
     24          1           0        3.702136   -0.726465   -1.977426
     25          1           0        2.309738    1.927889   -1.702002
     26          1           0        1.814704    0.603528   -2.788559
     27          1           0       -0.142917    1.887587   -2.356998
     28          1           0       -0.321528    0.394452   -1.417072
     29          1           0        0.803165    0.675876    0.877821
     30          1           0        0.491405    2.266974    1.603231
     31          1           0       -1.246533    0.817046    2.410797
     32          1           0       -3.442141    1.228375   -0.257704
     33          1           0       -4.445343   -0.540230   -1.684161
     34          1           0       -3.486473   -2.844958   -1.635288
     35          1           0       -1.555272   -3.331688   -0.166189
     36          1           0       -0.175451   -2.765245    1.658547
     37          1           0        0.758988   -1.473021    0.898388
     38          1           0       -0.147282   -1.153069    2.382187
     39          1           0       -1.837469    2.750556    0.510762
 ---------------------------------------------------------------------

 SCF Done:  E(UB3LYP) =  -772.664159872     A.U. after   33 cycles
 SCF Done:  E(UB3LYP) =  -772.664159872     a.u. after    1 cycles

 The electronic state is 2-A.
 Alpha  occ. eigenvalues --  -19.04512 -19.03694 -19.03568 -10.14143 -10.12915
 Alpha  occ. eigenvalues --  -10.12744 -10.12731 -10.12180 -10.09687 -10.09222
 Alpha  occ. eigenvalues --  -10.08545 -10.08485 -10.08308 -10.08206 -10.07723
 Alpha  occ. eigenvalues --  -10.07400 -10.06480  -0.96374  -0.94933  -0.93244
 Alpha  occ. eigenvalues --   -0.77342  -0.70214  -0.69279  -0.67674  -0.66281
 Alpha  occ. eigenvalues --   -0.62767  -0.60116  -0.58340  -0.55285  -0.51274
 Alpha  occ. eigenvalues --   -0.50711  -0.49590  -0.49003  -0.43444  -0.42527
 Alpha  occ. eigenvalues --   -0.41964  -0.40849  -0.39184  -0.38624  -0.37766
 Alpha  occ. eigenvalues --   -0.36301  -0.35367  -0.34656  -0.33873  -0.33744
 Alpha  occ. eigenvalues --   -0.33111  -0.32503  -0.31760  -0.30095  -0.29978
 Alpha  occ. eigenvalues --   -0.29741  -0.27326  -0.27160  -0.26766  -0.25603
 Alpha  occ. eigenvalues --   -0.25412  -0.25015  -0.24622  -0.23615  -0.22760
 Alpha  occ. eigenvalues --   -0.20495  -0.18277  -0.17311  -0.16264  -0.15251
 Alpha  occ. eigenvalues --    0.04086
 Alpha virt. eigenvalues --    0.05812   0.06272   0.06803   0.07274   0.07491
 Alpha virt. eigenvalues --    0.07557   0.08084   0.08727   0.08773   0.09430
 Alpha virt. eigenvalues --    0.10000   0.10387   0.10520   0.11627   0.11951

  Beta  occ. eigenvalues --  -19.04510 -19.03683 -19.03564 -10.14140 -10.12905
  Beta  occ. eigenvalues --  -10.12727 -10.12724 -10.12155 -10.09687 -10.09219
  Beta  occ. eigenvalues --  -10.08535 -10.08477 -10.08297 -10.08203 -10.07708
  Beta  occ. eigenvalues --  -10.07376 -10.06455  -0.96366  -0.94919  -0.93236
  Beta  occ. eigenvalues --   -0.77331  -0.70181  -0.69258  -0.67656  -0.66255
  Beta  occ. eigenvalues --   -0.62743  -0.60088  -0.58294  -0.55249  -0.51240
  Beta  occ. eigenvalues --   -0.50688  -0.49516  -0.48977  -0.43423  -0.42499
  Beta  occ. eigenvalues --   -0.41930  -0.40827  -0.39157  -0.38599  -0.37744
  Beta  occ. eigenvalues --   -0.36275  -0.35335  -0.34635  -0.33852  -0.33712
  Beta  occ. eigenvalues --   -0.33086  -0.32483  -0.31738  -0.30066  -0.29955
  Beta  occ. eigenvalues --   -0.29716  -0.27311  -0.27118  -0.26752  -0.25557
  Beta  occ. eigenvalues --   -0.25391  -0.24981  -0.24605  -0.23579  -0.22719
  Beta  occ. eigenvalues --   -0.20486  -0.18265  -0.17290  -0.16253  -0.15240
  Beta virt. eigenvalues --    0.06041   0.06559   0.06923   0.07106   0.07387
  Beta virt. eigenvalues --    0.07794   0.08037   0.08464   0.09031   0.09164
  Beta virt. eigenvalues --    0.09785   0.10362   0.10641   0.10988   0.11813

 Mulliken charges and spin densities:
               1          2
     1  C    0.657478  -1.146923
     2  C   -0.729896   0.477584
     3  C    0.955227  -1.117775
     4  O   -0.131162   0.036400
     5  C    0.373981  -0.578278
     6  C   -0.596429   0.077136
     7  O   -0.051063  -0.000667
     8  C   -0.196039  -0.002539
     9  C   -0.059997  -0.459389
    10  C   -0.248288   0.746073
    11  C   -0.411127   0.115440
    12  C    0.310346  -0.799534
    13  C    0.512916  -0.810150
    14  C   -0.075795  -0.291584
    15  C   -0.851737   1.416892
    16  C    0.340333  -1.063393
    17  O   -0.166339  -0.002940
    18  H    0.016155   0.116809
    19  H   -0.314307   0.457590
    20  H   -0.110167   0.211133
    21  H   -0.673175   0.845350
    22  H   -0.108583   0.261394
    23  H   -0.145222   0.277403
    24  H   -0.186311   0.335932
    25  H    0.022879   0.157083
    26  H   -0.218906   0.349774
    27  H   -0.359126   0.529658
    28  H    0.475818  -0.255604
    29  H    0.634880  -0.377370
    30  H    0.092232   0.111839
    31  H    0.130842   0.091293
    32  H    0.070610   0.079557
    33  H   -0.181141   0.345791
    34  H   -0.402801   0.570792
    35  H   -0.336860   0.510191
    36  H   -0.300675   0.451770
    37  H    1.126579  -0.916919
    38  H   -0.071962   0.202828
    39  H    0.206832   0.047350
 Sum of Mulliken charges =  -1.00000   1.00000

 Dipole moment (field-independent basis, Debye):
    X=             -3.9359    Y=              3.5474    Z=              1.4238  Tot=              5.4865
 Quadrupole moment (field-independent basis, Debye-Ang):
   XX=           -196.6397   YY=           -156.5653   ZZ=           -149.5612
   XY=              4.7524   XZ=             -0.2037   YZ=             -1.2774

 Summary of Natural Population Analysis:

                                       Natural Population
                Natural  -----------------------------------------------
    Atom  No    Charge         Core      Valence    Rydberg      Total
 -----------------------------------------------------------------------
      C    1   -0.28585      0.99966     2.28006    0.00612     3.28585
      C    2   -0.19956      0.99964     2.19126    0.00867     3.19956
      C    3   -0.00363      0.99958     1.99207    0.01198     3.00363
      O    4   -0.30962      0.99987     3.29946    0.01029     4.30962
      C    5   -0.01915      0.99958     2.00797    0.01159     3.01915
      C    6   -0.02121      0.99956     2.00846    0.01320     3.02121
      O    7   -0.31186      0.99989     3.30206    0.00992     4.31186
      C    8   -0.02533      0.99954     2.01411    0.01169     3.02533
      C    9    0.04647      0.99952     1.94033    0.01367     2.95353
      C   10   -0.03152      0.99944     2.02082    0.01126     3.03152
      C   11   -0.10173      0.99951     2.09170    0.01052     3.10173
      C   12   -0.10431      0.99956     2.09449    0.01026     3.10431
      C   13   -0.10090      0.99956     2.09126    0.01008     3.10090
      C   14   -0.09820      0.99951     2.08852    0.01016     3.09820
      C   15   -0.01482      0.99947     2.00537    0.00998     3.01482
      C   16   -0.30003      0.99963     2.29409    0.00631     3.30003
      O   17   -0.37149      0.99990     3.36537    0.00622     4.37149
      H   18    0.09560      0.00000     0.40338    0.00102     0.40440
      H   19    0.09955      0.00000     0.39935    0.00110     0.40045
      H   20    0.09744      0.00000     0.40104    0.00152     0.40256
      H   21    0.10002      0.00000     0.39811    0.00187     0.39998
      H   22    0.09781      0.00000     0.40057    0.00162     0.40219
      H   23    0.07704      0.00000     0.42123    0.00173     0.42296
      H   24    0.08284      0.00000     0.41532    0.00184     0.41716
      H   25    0.08264      0.00000     0.41584    0.00152     0.41736
      H   26    0.08422      0.00000     0.41404    0.00173     0.41578
      H   27    0.09254      0.00000     0.40622    0.00124     0.40746
      H   28    0.09288      0.00000     0.40441    0.00271     0.40712
      H   29    0.10318      0.00000     0.39471    0.00211     0.39682
      H   30    0.09103      0.00000     0.40791    0.00106     0.40897
      H   31    0.09409      0.00000     0.40457    0.00134     0.40591
      H   32    0.10716      0.00000     0.39169    0.00115     0.39284
      H   33    0.10013      0.00000     0.39902    0.00085     0.39987
      H   34    0.10158      0.00000     0.39735    0.00107     0.39842
      H   35    0.10136      0.00000     0.39745    0.00119     0.39864
      H   36    0.10517      0.00000     0.39385    0.00098     0.39483
      H   37    0.11387      0.00000     0.38419    0.00194     0.38613
      H   38    0.09960      0.00000     0.39921    0.00119     0.40040
      H   39    0.23297      0.00000     0.26388    0.00315     0.26703
 =======================================================================
   * Total *   -0.00000     16.99342    47.80075    0.20583    65.00000

 Normal termination of Gaussian 16 at Sun Dec 13 17:21:28 2020.
