 Gaussian 16, Revision A.03,

 -----------------------------------------------------------
 # opt freq B3LYP/6-31G(d) empiricaldispersion=gd3bj scf=xqc
 -----------------------------------------------------------

 ------------------------------
 CID_89112002_JID_5402_neutraal
 ------------------------------
 Symbolic Z-matrix:
 Charge =  0 Multiplicity = 1

 SCF Done:  E(RB3LYP) =  -659.096611163     A.U. after   15 cycles
 SCF Done:  E(RB3LYP) =  -659.099925491     A.U. after   12 cycles
 SCF Done:  E(RB3LYP) =  -659.099924447     A.U. after   13 cycles
 SCF Done:  E(RB3LYP) =  -659.098626914     A.U. after   14 cycles
 SCF Done:  E(RB3LYP) =  -659.097089925     A.U. after   13 cycles
 SCF Done:  E(RB3LYP) =  -659.100349253     A.U. after   10 cycles
 SCF Done:  E(RB3LYP) =  -659.102323855     A.U. after   13 cycles
 SCF Done:  E(RB3LYP) =  -659.102729470     A.U. after   13 cycles
 SCF Done:  E(RB3LYP) =  -659.103099900     A.U. after   14 cycles
 SCF Done:  E(RB3LYP) =  -659.103654303     A.U. after   12 cycles
 SCF Done:  E(RB3LYP) =  -659.105840986     A.U. after   10 cycles
 SCF Done:  E(RB3LYP) =  -659.105839306     A.U. after    9 cycles
 SCF Done:  E(RB3LYP) =  -659.105841340     A.U. after   10 cycles
 SCF Done:  E(RB3LYP) =  -659.105841399     A.U. after    7 cycles
 SCF Done:  E(RB3LYP) =  -659.105841423     A.U. after    7 cycles
 SCF Done:  E(RB3LYP) =  -659.105841429     A.U. after    6 cycles
 Optimization completed.
    -- Stationary point found.
 Normal termination of Gaussian 16 at Thu Dec 10 16:22:41 2020.

 --------------------------------------------------------------------
 #N Geom=AllCheck Guess=TCheck SCRF=Check GenChk RB3LYP/6-31G(d) Freq
 --------------------------------------------------------------------

 Structure from the checkpoint file:  "JID_5402.chk"
 ------------------------------
 CID_89112002_JID_5402_neutraal
 ------------------------------
 Charge =  0 Multiplicity = 1

 SCF Done:  E(RB3LYP) =  -659.105841429     A.U. after    1 cycles

  Exact polarizability: 200.574 -25.603 146.426 -12.075  -5.366 112.166
 Approx polarizability: 258.792 -56.187 222.941 -20.455  -9.815 178.237

                      1                      2                      3
                      A                      A                      A
 Frequencies --     15.6518                37.8682                56.2817
 Red. masses --      3.8781                 2.7849                 2.7553
 Frc consts  --      0.0006                 0.0024                 0.0051
 IR Inten    --      0.7109                 0.0943                 0.1170

                      4                      5                      6
                      A                      A                      A
 Frequencies --     66.3561               106.5841               115.2022
 Red. masses --      3.3233                 1.7780                 3.5327
 Frc consts  --      0.0086                 0.0119                 0.0276
 IR Inten    --      0.2470                 0.7921                 2.4413

                      7                      8                      9
                      A                      A                      A
 Frequencies --    135.3964               178.7453               181.0048
 Red. masses --      3.2193                 1.6568                 1.7868
 Frc consts  --      0.0348                 0.0312                 0.0345
 IR Inten    --      0.4518                 1.8518                 2.5209

                     10                     11                     12
                      A                      A                      A
 Frequencies --    190.5110               206.0712               213.8639
 Red. masses --      3.0253                 2.2218                 1.6682
 Frc consts  --      0.0647                 0.0556                 0.0450
 IR Inten    --      7.6321                29.0354                 0.0533

                     13                     14                     15
                      A                      A                      A
 Frequencies --    228.3757               238.8603               245.6737
 Red. masses --      1.9198                 1.0898                 1.3859
 Frc consts  --      0.0590                 0.0366                 0.0493
 IR Inten    --     15.2692                 0.4351                10.2318

                     16                     17                     18
                      A                      A                      A
 Frequencies --    263.2394               272.3010               285.8771
 Red. masses --      1.6801                 1.6276                 1.2293
 Frc consts  --      0.0686                 0.0711                 0.0592
 IR Inten    --     11.8942                30.2882                74.3369

                     19                     20                     21
                      A                      A                      A
 Frequencies --    309.5217               344.6279               363.8159
 Red. masses --      3.9440                 3.0338                 2.3185
 Frc consts  --      0.2226                 0.2123                 0.1808
 IR Inten    --     10.0671                 1.4528                43.6138

                     22                     23                     24
                      A                      A                      A
 Frequencies --    375.5114               383.1688               411.3771
 Red. masses --      2.1231                 3.3955                 3.3612
 Frc consts  --      0.1764                 0.2937                 0.3351
 IR Inten    --      3.0750                 3.6703                 0.2337

                     25                     26                     27
                      A                      A                      A
 Frequencies --    427.0438               490.3834               533.9570
 Red. masses --      1.8265                 3.7013                 3.0465
 Frc consts  --      0.1963                 0.5244                 0.5118
 IR Inten    --      4.6752                 3.3306                 3.9352

                     28                     29                     30
                      A                      A                      A
 Frequencies --    546.3749               574.3375               629.2883
 Red. masses --      4.7229                 3.4532                 3.5185
 Frc consts  --      0.8307                 0.6711                 0.8209
 IR Inten    --      5.9752                 2.3829                 9.6713

                     31                     32                     33
                      A                      A                      A
 Frequencies --    687.9789               777.3753               819.9395
 Red. masses --      3.8288                 3.0572                 1.8011
 Frc consts  --      1.0677                 1.0885                 0.7134
 IR Inten    --      2.3929                 5.2505                 5.0882

                     34                     35                     36
                      A                      A                      A
 Frequencies --    831.8606               859.4064               897.8790
 Red. masses --      2.7689                 2.5563                 1.8498
 Frc consts  --      1.1289                 1.1124                 0.8787
 IR Inten    --     19.4702                 3.3236                 4.7352

                     37                     38                     39
                      A                      A                      A
 Frequencies --    923.2241               949.0536               969.7637
 Red. masses --      2.2296                 1.1737                 1.5882
 Frc consts  --      1.1196                 0.6229                 0.8800
 IR Inten    --      9.4908                 3.7998                17.4796

                     40                     41                     42
                      A                      A                      A
 Frequencies --    982.8012              1007.8965              1010.1119
 Red. masses --      1.5310                 1.7631                 1.1614
 Frc consts  --      0.8713                 1.0553                 0.6982
 IR Inten    --      0.7854                19.7575                26.0928

                     43                     44                     45
                      A                      A                      A
 Frequencies --   1024.9808              1047.6681              1074.2696
 Red. masses --      1.7272                 1.5952                 1.6844
 Frc consts  --      1.0691                 1.0316                 1.1453
 IR Inten    --      1.3547                17.4901                11.9923

                     46                     47                     48
                      A                      A                      A
 Frequencies --   1074.8999              1075.9390              1092.8380
 Red. masses --      1.8162                 1.5497                 1.7302
 Frc consts  --      1.2364                 1.0570                 1.2174
 IR Inten    --     20.7447                 7.2602                29.5841

                     49                     50                     51
                      A                      A                      A
 Frequencies --   1104.8345              1140.0358              1159.0237
 Red. masses --      3.3821                 1.9169                 2.4936
 Frc consts  --      2.4324                 1.4679                 1.9736
 IR Inten    --     12.1611                 4.2833                 3.6149

                     52                     53                     54
                      A                      A                      A
 Frequencies --   1183.8422              1209.8955              1235.0809
 Red. masses --      2.3468                 1.7101                 2.5902
 Frc consts  --      1.9378                 1.4749                 2.3280
 IR Inten    --     26.3214                 8.1677               113.0766

                     55                     56                     57
                      A                      A                      A
 Frequencies --   1247.7535              1282.4870              1329.2126
 Red. masses --      1.3534                 1.3958                 2.4567
 Frc consts  --      1.2414                 1.3526                 2.5573
 IR Inten    --     24.3411                 1.2041                27.8374

                     58                     59                     60
                      A                      A                      A
 Frequencies --   1340.5974              1346.2670              1358.8403
 Red. masses --      1.4719                 1.6582                 1.2325
 Frc consts  --      1.5585                 1.7707                 1.3408
 IR Inten    --      9.4556                27.1006                 2.7517

                     61                     62                     63
                      A                      A                      A
 Frequencies --   1374.7941              1396.6142              1407.7355
 Red. masses --      1.4403                 1.3495                 1.3416
 Frc consts  --      1.6039                 1.5509                 1.5664
 IR Inten    --      2.5548                 2.9878                 1.9255

                     64                     65                     66
                      A                      A                      A
 Frequencies --   1418.4277              1431.8246              1434.8134
 Red. masses --      1.4700                 1.2570                 1.2099
 Frc consts  --      1.7425                 1.5183                 1.4676
 IR Inten    --      3.3576                 2.7028                 5.5350

                     67                     68                     69
                      A                      A                      A
 Frequencies --   1440.5613              1443.8492              1453.4856
 Red. masses --      1.2501                 1.2613                 1.2257
 Frc consts  --      1.5285                 1.5492                 1.5256
 IR Inten    --      0.7132                 5.9750                 5.5335

                     70                     71                     72
                      A                      A                      A
 Frequencies --   1495.0189              1506.7220              1508.8527
 Red. masses --      1.0942                 1.0454                 1.0725
 Frc consts  --      1.4409                 1.3983                 1.4386
 IR Inten    --      6.6211                 6.0845                13.9997

                     73                     74                     75
                      A                      A                      A
 Frequencies --   1517.1747              1518.1360              1524.1685
 Red. masses --      1.0481                 1.0646                 1.0553
 Frc consts  --      1.4214                 1.4457                 1.4445
 IR Inten    --      2.2684                13.6630                 1.0045

                     76                     77                     78
                      A                      A                      A
 Frequencies --   1524.9279              1532.2327              1535.6708
 Red. masses --      1.0743                 1.0520                 1.0542
 Frc consts  --      1.4719                 1.4551                 1.4648
 IR Inten    --      9.3424                11.3846                 3.0859

                     79                     80                     81
                      A                      A                      A
 Frequencies --   1538.1924              1543.6023              1658.3152
 Red. masses --      1.0509                 1.0491                 5.9734
 Frc consts  --      1.4649                 1.4728                 9.6785
 IR Inten    --      9.4253                 8.9986                99.3109

                     82                     83                     84
                      A                      A                      A
 Frequencies --   1716.8081              1761.9664              2987.3458
 Red. masses --      5.1596                11.6961                 1.0825
 Frc consts  --      8.9601                21.3938                 5.6919
 IR Inten    --     47.4240               107.4406                35.2361

                     85                     86                     87
                      A                      A                      A
 Frequencies --   3030.1026              3036.1973              3039.6032
 Red. masses --      1.0376                 1.0361                 1.0379
 Frc consts  --      5.6132                 5.6273                 5.6498
 IR Inten    --     43.4845                27.5468                32.5144

                     88                     89                     90
                      A                      A                      A
 Frequencies --   3046.0162              3049.5556              3051.3310
 Red. masses --      1.0397                 1.0751                 1.0456
 Frc consts  --      5.6838                 5.8905                 5.7360
 IR Inten    --     26.9903                 5.7449                19.3140

                     91                     92                     93
                      A                      A                      A
 Frequencies --   3059.2986              3075.0631              3097.0046
 Red. masses --      1.0681                 1.0996                 1.1000
 Frc consts  --      5.8897                 6.1262                 6.2163
 IR Inten    --     43.1531                21.0494                16.3755

                     94                     95                     96
                      A                      A                      A
 Frequencies --   3098.2557              3099.4423              3104.3517
 Red. masses --      1.1021                 1.1015                 1.1017
 Frc consts  --      6.2334                 6.2343                 6.2552
 IR Inten    --     18.6482                 8.1182                 5.6069

                     97                     98                     99
                      A                      A                      A
 Frequencies --   3110.7631              3111.7989              3113.0650
 Red. masses --      1.1018                 1.1008                 1.0990
 Frc consts  --      6.2816                 6.2804                 6.2753
 IR Inten    --     44.9136                58.3442                26.0642

                    100                    101                    102
                      A                      A                      A
 Frequencies --   3119.0803              3142.9048              3176.3992
 Red. masses --      1.0999                 1.0984                 1.0903
 Frc consts  --      6.3045                 6.3927                 6.4812
 IR Inten    --     14.9109                28.1761                 3.1866

                    103                    104                    105
                      A                      A                      A
 Frequencies --   3184.6257              3210.3731              3788.2161
 Red. masses --      1.0853                 1.0931                 1.0663
 Frc consts  --      6.4849                 6.6376                 9.0156
 IR Inten    --     33.2910                 3.6578                16.4243

 - Thermochemistry -
 -------------------
 Temperature   298.150 Kelvin.  Pressure   1.00000 Atm.
 Atom     1 has atomic number  6 and mass  12.00000

 Molecular mass:   210.16198 amu.
 Principal axes and moments of inertia in atomic units:
                           1         2         3
     Eigenvalues --  1942.150885704.915866321.58744
           X            0.99995   0.00932  -0.00263
           Y           -0.00938   0.99970  -0.02242
           Z            0.00242   0.02245   0.99975
 This molecule is an asymmetric top.
 Rotational symmetry number  1.
 Warning -- assumption of classical behavior for rotation
           may cause significant error
 Rotational temperatures (Kelvin)      0.04460     0.01518     0.01370
 Rotational constants (GHZ):           0.92925     0.31635     0.28549
 Zero-point vibrational energy     860639.7 (Joules/Mol)
                                  205.69782 (Kcal/Mol)
 Warning -- explicit consideration of  29 degrees of freedom as
           vibrations may cause significant error
 Vibrational temperatures:     22.52    54.48    80.98    95.47   153.35
          (Kelvin)            165.75   194.81   257.17   260.43   274.10
                              296.49   307.70   328.58   343.67   353.47
                              378.74   391.78   411.31   445.33   495.84
                              523.45   540.28   551.29   591.88   614.42
                              705.55   768.25   786.11   826.34   905.41
                              989.85  1118.47  1179.71  1196.86  1236.49
                             1291.85  1328.31  1365.48  1395.27  1414.03
                             1450.14  1453.33  1474.72  1507.36  1545.63
                             1546.54  1548.04  1572.35  1589.61  1640.26
                             1667.58  1703.28  1740.77  1777.01  1795.24
                             1845.21  1912.44  1928.82  1936.98  1955.07
                             1978.02  2009.42  2025.42  2040.80  2060.08
                             2064.38  2072.65  2077.38  2091.24  2151.00
                             2167.84  2170.90  2182.88  2184.26  2192.94
                             2194.03  2204.54  2209.49  2213.12  2220.90
                             2385.95  2470.10  2535.08  4298.12  4359.64
                             4368.41  4373.31  4382.54  4387.63  4390.18
                             4401.65  4424.33  4455.90  4457.70  4459.41
                             4466.47  4475.69  4477.18  4479.01  4487.66
                             4521.94  4570.13  4581.97  4619.01  5450.40

 Zero-point correction=                           0.327800 (Hartree/Particle)
 Thermal correction to Energy=                    0.346332
 Thermal correction to Enthalpy=                  0.347276
 Thermal correction to Gibbs Free Energy=         0.280918
 Sum of electronic and zero-point Energies=           -658.778041
 Sum of electronic and thermal Energies=              -658.759510
 Sum of electronic and thermal Enthalpies=            -658.758566
 Sum of electronic and thermal Free Energies=         -658.824924

                     E (Thermal)             CV                S
                      KCal/Mol        Cal/Mol-Kelvin    Cal/Mol-Kelvin
 Total                  217.326             67.844            139.662
 Electronic               0.000              0.000              0.000
 Translational            0.889              2.981             41.932
 Rotational               0.889              2.981             32.615
 Vibrational            215.549             61.883             65.115
 Vibration     1          0.593              1.986              7.121
 Vibration     2          0.594              1.982              5.368
 Vibration     3          0.596              1.975              4.583
 Vibration     4          0.598              1.970              4.259
 Vibration     5          0.605              1.944              3.330
 Vibration     6          0.608              1.937              3.179
 Vibration     7          0.613              1.918              2.868
 Vibration     8          0.629              1.868              2.341
 Vibration     9          0.630              1.866              2.318
 Vibration    10          0.634              1.853              2.223
 Vibration    11          0.641              1.831              2.078
 Vibration    12          0.644              1.820              2.010
 Vibration    13          0.651              1.798              1.892
 Vibration    14          0.657              1.781              1.811
 Vibration    15          0.660              1.770              1.761
 Vibration    16          0.670              1.740              1.640
 Vibration    17          0.675              1.724              1.582
 Vibration    18          0.684              1.700              1.498
 Vibration    19          0.699              1.656              1.365
 Vibration    20          0.723              1.586              1.191
 Vibration    21          0.737              1.547              1.106
 Vibration    22          0.746              1.522              1.057
 Vibration    23          0.752              1.506              1.027
 Vibration    24          0.775              1.446              0.922
 Vibration    25          0.789              1.411              0.868
 Vibration    26          0.846              1.271              0.683
 Vibration    27          0.889              1.175              0.578
 Vibration    28          0.902              1.148              0.552
 Vibration    29          0.931              1.087              0.496

 Optimization completed.
    -- Stationary point found.
 Normal termination of Gaussian 16 at Thu Dec 10 16:35:18 2020.

 ----------------------------------------------------------------------
 # B3LYP/6-311++G(d,p) empiricaldispersion=gd3bj scf=xqc pop=npa geom=c
 heck
 ----------------------------------------------------------------------

 --------------------------------------
 CID_89112002_JID_5402_Energie_neutraal
 --------------------------------------
 Structure from the checkpoint file:  "JID_5402.chk"
 Charge =  0 Multiplicity = 1

 SCF Done:  E(RB3LYP) =  -659.301390141     A.U. after   15 cycles
 Normal termination of Gaussian 16 at Thu Dec 10 16:41:55 2020.

 ----------------------------------------------------------------------
 # B3LYP/6-311++G(d,p) empiricaldispersion=gd3bj scf=xqc pop=npa geom=c
 heck
 ----------------------------------------------------------------------

 ------------------------------------
 CID_89112002_JID_5402_Energie_kation
 ------------------------------------
 Structure from the checkpoint file:  "JID_5402.chk"
 Charge =  1 Multiplicity = 2

 SCF Done:  E(UB3LYP) =  -659.008267313     A.U. after   23 cycles
 Normal termination of Gaussian 16 at Thu Dec 10 16:58:58 2020.
 Gaussian 16:  ES64L-G16RevA.03 25-Dec-2016

 ----------------------------------------------------------------------
 # B3LYP/6-311++G(d,p) empiricaldispersion=gd3bj scf=xqc pop=npa geom=c
 heck
 ----------------------------------------------------------------------

 -----------------------------------
 CID_89112002_JID_5402_Energie_anion
 -----------------------------------
 Structure from the checkpoint file:  "JID_5402.chk"
 Charge = -1 Multiplicity = 2

                         Standard orientation:
 ---------------------------------------------------------------------
 Center     Atomic      Atomic             Coordinates (Angstroms)
 Number     Number       Type             X           Y           Z
 ---------------------------------------------------------------------
      1          6           0       -5.217259    0.897604    0.690416
      2          6           0       -3.853466    0.989832    0.078101
      3          6           0       -2.939331    0.004553    0.112369
      4          6           0       -1.597635    0.062369   -0.470427
      5          6           0       -0.762369   -1.006465   -0.363137
      6          6           0       -1.178412   -2.312351    0.291432
      7          6           0        0.633251   -0.963743   -0.895506
      8          8           0        0.904190   -0.600042   -2.030889
      9          6           0        1.792140   -1.395949    0.031657
     10          6           0        2.956995   -0.395728   -0.058945
     11          6           0        2.623950    1.096920    0.124840
     12          6           0        1.852685    1.408636    1.413577
     13          6           0        3.922152    1.912468    0.059465
     14          8           0        1.421195   -1.529457    1.402026
     15          6           0       -1.198582    1.364118   -1.123486
     16          1           0       -5.380087   -0.072754    1.170827
     17          1           0       -6.001332    1.041316   -0.065514
     18          1           0       -5.365847    1.682039    1.445084
     19          1           0       -3.618327    1.927943   -0.420820
     20          1           0       -3.217232   -0.913582    0.623889
     21          1           0       -0.452794   -3.107369    0.084704
     22          1           0       -1.290320   -2.226041    1.379202
     23          1           0       -2.132466   -2.665797   -0.111952
     24          1           0        2.162044   -2.359555   -0.354853
     25          1           0        3.689280   -0.706879    0.696777
     26          1           0        3.423200   -0.523971   -1.041117
     27          1           0        2.002428    1.401560   -0.726399
     28          1           0        2.417041    1.084724    2.296112
     29          1           0        1.679027    2.488291    1.498878
     30          1           0        0.885778    0.900331    1.443429
     31          1           0        4.469277    1.722665   -0.871543
     32          1           0        3.714077    2.987147    0.115259
     33          1           0        4.585338    1.657950    0.896400
     34          1           0        0.966201   -2.374741    1.516805
     35          1           0       -1.868599    1.586583   -1.962658
     36          1           0       -1.289431    2.191207   -0.409195
     37          1           0       -0.185052    1.341343   -1.514554
 ---------------------------------------------------------------------

 SCF Done:  E(UB3LYP) =  -659.309053115     A.U. after   30 cycles

 The electronic state is 2-A.
 Alpha  occ. eigenvalues --  -18.99817 -18.92829 -10.08944 -10.06954 -10.05337
 Alpha  occ. eigenvalues --  -10.05301 -10.04733 -10.04265 -10.04032 -10.03299
 Alpha  occ. eigenvalues --  -10.01620 -10.01554 -10.01489 -10.01487 -10.01234
 Alpha  occ. eigenvalues --   -0.90270  -0.86741  -0.69081  -0.67994  -0.64157
 Alpha  occ. eigenvalues --   -0.61319  -0.59780  -0.56875  -0.54812  -0.52458
 Alpha  occ. eigenvalues --   -0.50531  -0.46243  -0.43381  -0.40941  -0.38999
 Alpha  occ. eigenvalues --   -0.35985  -0.35141  -0.32752  -0.32097  -0.31608
 Alpha  occ. eigenvalues --   -0.30056  -0.29710  -0.29441  -0.28950  -0.28085
 Alpha  occ. eigenvalues --   -0.27375  -0.26836  -0.26381  -0.25732  -0.25117
 Alpha  occ. eigenvalues --   -0.24565  -0.23850  -0.23192  -0.21931  -0.21429
 Alpha  occ. eigenvalues --   -0.21092  -0.20195  -0.19185  -0.18586  -0.16709
 Alpha  occ. eigenvalues --   -0.14944  -0.08428  -0.07398   0.04740
 Alpha virt. eigenvalues --    0.07768   0.08219   0.08459   0.09954   0.10304
 Alpha virt. eigenvalues --    0.10496   0.11213   0.11724   0.11906   0.12073
 Alpha virt. eigenvalues --    0.12606   0.13122   0.13480   0.14119   0.14366

  Beta  occ. eigenvalues --  -18.99808 -18.92397 -10.08966 -10.06647 -10.05336
  Beta  occ. eigenvalues --  -10.05302 -10.04762 -10.04251 -10.04029 -10.03295
  Beta  occ. eigenvalues --  -10.01640 -10.01510 -10.01282 -10.01126 -10.01121
  Beta  occ. eigenvalues --   -0.90220  -0.85959  -0.69066  -0.67540  -0.63739
  Beta  occ. eigenvalues --   -0.61215  -0.59576  -0.56868  -0.54704  -0.52168
  Beta  occ. eigenvalues --   -0.50390  -0.45782  -0.43116  -0.40787  -0.38696
  Beta  occ. eigenvalues --   -0.35735  -0.35005  -0.32581  -0.31910  -0.31510
  Beta  occ. eigenvalues --   -0.29737  -0.29557  -0.29119  -0.28832  -0.27918
  Beta  occ. eigenvalues --   -0.27326  -0.26622  -0.26196  -0.25651  -0.24982
  Beta  occ. eigenvalues --   -0.24378  -0.23689  -0.22970  -0.21780  -0.21323
  Beta  occ. eigenvalues --   -0.20402  -0.20081  -0.19004  -0.17763  -0.16344
  Beta  occ. eigenvalues --   -0.13833  -0.07877  -0.05885
  Beta virt. eigenvalues --    0.07707   0.08134   0.08443   0.09838   0.10213
  Beta virt. eigenvalues --    0.10407   0.10692   0.11211   0.11677   0.11994
  Beta virt. eigenvalues --    0.12063   0.12522   0.13381   0.13522   0.14182

 Mulliken charges and spin densities:
               1          2
     1  C   -0.707543  -0.016609
     2  C   -0.377535   0.282533
     3  C   -0.365476  -0.065936
     4  C    0.876861   0.160529
     5  C    0.376448   0.087789
     6  C   -0.564381  -0.008333
     7  C   -0.257013   0.245306
     8  O   -0.295713   0.146316
     9  C   -0.109114  -0.048986
    10  C   -0.471654  -0.308935
    11  C    0.612610   0.141389
    12  C   -0.781188  -0.042053
    13  C   -0.558241  -0.027474
    14  O   -0.194027   0.013374
    15  C   -0.757624  -0.017537
    16  H    0.117099   0.003325
    17  H    0.110295   0.009977
    18  H    0.104595   0.019700
    19  H    0.119677  -0.018863
    20  H    0.070046  -0.002179
    21  H    0.106194   0.013633
    22  H    0.152327   0.029815
    23  H    0.120562   0.004949
    24  H   -0.044162   0.248689
    25  H    0.088545   0.060967
    26  H    0.147684   0.008299
    27  H    0.157650  -0.004542
    28  H    0.130070   0.006884
    29  H    0.090956   0.012772
    30  H    0.160623  -0.007909
    31  H    0.123346   0.003492
    32  H    0.115115   0.007094
    33  H    0.105925   0.008415
    34  H    0.225176   0.023880
    35  H    0.115998   0.018272
    36  H    0.114431   0.011895
    37  H    0.141438   0.000060
 Sum of Mulliken charges =  -1.00000   1.00000

 Dipole moment (field-independent basis, Debye):
    X=              1.3564    Y=              0.1845    Z=              2.5179  Tot=              2.8659
 Quadrupole moment (field-independent basis, Debye-Ang):
   XX=           -138.6202   YY=           -106.8107   ZZ=           -118.3924
   XY=              5.7988   XZ=              0.5706   YZ=             -3.7401

 Summary of Natural Population Analysis:

                                       Natural Population
                Natural  -----------------------------------------------
    Atom  No    Charge         Core      Valence    Rydberg      Total
 -----------------------------------------------------------------------
      C    1   -0.29922      0.99967     2.29507    0.00449     3.29922
      C    2   -0.01887      0.99956     2.01070    0.00861     3.01887
      C    3   -0.12597      0.99950     2.11769    0.00878     3.12597
      C    4    0.03677      0.99944     1.95578    0.00801     2.96323
      C    5   -0.04116      0.99941     2.02951    0.01224     3.04116
      C    6   -0.29799      0.99964     2.29332    0.00503     3.29799
      C    7    0.30341      0.99958     1.67337    0.02364     2.69659
      O    8   -0.26881      0.99988     3.26291    0.00602     4.26881
      C    9    0.02538      0.99951     1.95951    0.01560     2.97462
      C   10   -0.19072      0.99960     2.17824    0.01288     3.19072
      C   11   -0.12125      0.99961     2.11479    0.00685     3.12125
      C   12   -0.28622      0.99965     2.28153    0.00504     3.28622
      C   13   -0.27965      0.99966     2.27568    0.00432     3.27965
      O   14   -0.37753      0.99989     3.37041    0.00723     4.37753
      C   15   -0.29872      0.99964     2.29440    0.00468     3.29872
      H   16    0.09283      0.00000     0.40611    0.00106     0.40717
      H   17    0.09438      0.00000     0.40439    0.00123     0.40562
      H   18    0.09505      0.00000     0.40371    0.00124     0.40495
      H   19    0.08198      0.00000     0.41687    0.00115     0.41802
      H   20    0.08620      0.00000     0.41232    0.00148     0.41380
      H   21    0.09102      0.00000     0.40785    0.00113     0.40898
      H   22    0.09827      0.00000     0.40034    0.00140     0.40173
      H   23    0.10148      0.00000     0.39740    0.00112     0.39852
      H   24    0.08623      0.00000     0.41118    0.00259     0.41377
      H   25    0.09338      0.00000     0.40540    0.00121     0.40662
      H   26    0.10596      0.00000     0.39317    0.00087     0.39404
      H   27    0.10370      0.00000     0.39457    0.00173     0.39630
      H   28    0.09205      0.00000     0.40702    0.00093     0.40795
      H   29    0.08907      0.00000     0.41014    0.00079     0.41093
      H   30    0.11597      0.00000     0.38313    0.00089     0.38403
      H   31    0.09538      0.00000     0.40385    0.00076     0.40462
      H   32    0.09373      0.00000     0.40548    0.00079     0.40627
      H   33    0.09079      0.00000     0.40821    0.00100     0.40921
      H   34    0.22952      0.00000     0.26797    0.00251     0.27048
      H   35    0.09754      0.00000     0.40121    0.00124     0.40246
      H   36    0.09375      0.00000     0.40504    0.00121     0.40625
      H   37    0.11228      0.00000     0.38669    0.00103     0.38772
 =======================================================================
   * Total *    0.00000     14.99423    42.84498    0.16079    58.00000

 Normal termination of Gaussian 16 at Thu Dec 10 17:29:53 2020.
