 Gaussian 16, Revision A.03,

 -----------------------------------------------------------
 # opt freq B3LYP/6-31G(d) empiricaldispersion=gd3bj scf=xqc
 -----------------------------------------------------------

 -------------------------------
 CID_141415314_JID_5820_neutraal
 -------------------------------
 Symbolic Z-matrix:
 Charge =  0 Multiplicity = 1

 SCF Done:  E(RB3LYP) =  -701.158538847     A.U. after   16 cycles
 SCF Done:  E(RB3LYP) =  -701.166254803     A.U. after   15 cycles
 SCF Done:  E(RB3LYP) =  -701.169190452     A.U. after   14 cycles
 SCF Done:  E(RB3LYP) =  -701.171504664     A.U. after   14 cycles
 SCF Done:  E(RB3LYP) =  -701.173162767     A.U. after   16 cycles
 SCF Done:  E(RB3LYP) =  -701.174555562     A.U. after   14 cycles
 SCF Done:  E(RB3LYP) =  -701.174866140     A.U. after   14 cycles
 SCF Done:  E(RB3LYP) =  -701.175505077     A.U. after   14 cycles
 SCF Done:  E(RB3LYP) =  -701.175535048     A.U. after   12 cycles
 SCF Done:  E(RB3LYP) =  -701.175546959     A.U. after   12 cycles
 SCF Done:  E(RB3LYP) =  -701.175570394     A.U. after    9 cycles
 SCF Done:  E(RB3LYP) =  -701.175570876     A.U. after    9 cycles
 SCF Done:  E(RB3LYP) =  -701.175571368     A.U. after    9 cycles
 SCF Done:  E(RB3LYP) =  -701.175571839     A.U. after    9 cycles
 SCF Done:  E(RB3LYP) =  -701.175572002     A.U. after    9 cycles
 SCF Done:  E(RB3LYP) =  -701.175572025     A.U. after    7 cycles
 Optimization completed.
    -- Stationary point found.
 Normal termination of Gaussian 16 at Thu Dec 10 17:12:46 2020.

 --------------------------------------------------------------------
 #N Geom=AllCheck Guess=TCheck SCRF=Check GenChk RB3LYP/6-31G(d) Freq
 --------------------------------------------------------------------

 Structure from the checkpoint file:  "JID_5820.chk"
 -------------------------------
 CID_141415314_JID_5820_neutraal
 -------------------------------
 Charge =  0 Multiplicity = 1

 SCF Done:  E(RB3LYP) =  -701.175572025     A.U. after    1 cycles

  Exact polarizability: 270.439  22.197 145.100   0.600  -0.052  50.612
 Approx polarizability: 433.419  78.007 262.972   0.699  -0.076  77.682

                      1                      2                      3
                      A                      A                      A
 Frequencies --     27.3823                34.5170                43.6622
 Red. masses --      1.0530                 4.6719                 8.7748
 Frc consts  --      0.0005                 0.0033                 0.0099
 IR Inten    --      0.2587                 0.1932                 1.0921

                      4                      5                      6
                      A                      A                      A
 Frequencies --     57.9712                93.5851                94.1480
 Red. masses --      5.2647                 6.8641                 7.7395
 Frc consts  --      0.0104                 0.0354                 0.0404
 IR Inten    --      0.5344                 0.7055                 0.3179

                      7                      8                      9
                      A                      A                      A
 Frequencies --    179.0587               185.7492               228.6216
 Red. masses --      9.1304                 4.0536                 5.9626
 Frc consts  --      0.1725                 0.0824                 0.1836
 IR Inten    --      1.8309                 1.6006                 0.4823

                     10                     11                     12
                      A                      A                      A
 Frequencies --    271.5920               326.9445               352.0383
 Red. masses --      6.5747                 4.4449                 6.5829
 Frc consts  --      0.2857                 0.2799                 0.4807
 IR Inten    --      0.5938                 0.0715                 5.7524

                     13                     14                     15
                      A                      A                      A
 Frequencies --    375.2310               415.8456               464.0201
 Red. masses --      3.5894                 3.0476                 4.4335
 Frc consts  --      0.2978                 0.3105                 0.5624
 IR Inten    --      0.5490                 0.0054                10.4568

                     16                     17                     18
                      A                      A                      A
 Frequencies --    465.1241               520.4099               542.1678
 Red. masses --      5.1461                 6.9943                 5.4610
 Frc consts  --      0.6559                 1.1161                 0.9458
 IR Inten    --     12.7089                 2.0545                11.7263

                     19                     20                     21
                      A                      A                      A
 Frequencies --    546.5648               607.7665               623.4364
 Red. masses --      2.0786                 1.6774                 6.0388
 Frc consts  --      0.3659                 0.3651                 1.3829
 IR Inten    --     66.7613                51.6090                30.3104

                     22                     23                     24
                      A                      A                      A
 Frequencies --    652.9041               726.5719               727.2127
 Red. masses --      6.8529                 4.8381                 3.9259
 Frc consts  --      1.7212                 1.5048                 1.2232
 IR Inten    --      1.7170                29.7941                19.8906

                     25                     26                     27
                      A                      A                      A
 Frequencies --    752.8878               778.9663               815.7560
 Red. masses --      5.6362                 5.0117                 5.8561
 Frc consts  --      1.8823                 1.7917                 2.2960
 IR Inten    --     24.1525                10.7075                14.2933

                     28                     29                     30
                      A                      A                      A
 Frequencies --    831.7642               855.4539               879.0696
 Red. masses --      1.4157                 1.2753                 5.3613
 Frc consts  --      0.5771                 0.5499                 2.4410
 IR Inten    --     28.7780                 3.6773                 5.4126

                     31                     32                     33
                      A                      A                      A
 Frequencies --    921.2651               966.2786               982.3213
 Red. masses --      1.3930                 1.3543                 1.3067
 Frc consts  --      0.6966                 0.7450                 0.7429
 IR Inten    --      9.1360                 1.4895                 1.6408

                     34                     35                     36
                      A                      A                      A
 Frequencies --   1021.2632              1042.5648              1073.7157
 Red. masses --      1.4196                 2.8553                 1.5390
 Frc consts  --      0.8724                 1.8285                 1.0453
 IR Inten    --      0.7398                 1.8858                20.8215

                     37                     38                     39
                      A                      A                      A
 Frequencies --   1096.9608              1160.6549              1197.5465
 Red. masses --      6.4372                 1.3589                 1.9667
 Frc consts  --      4.5638                 1.0785                 1.6618
 IR Inten    --     71.0946                29.6181               381.8750

                     40                     41                     42
                      A                      A                      A
 Frequencies --   1224.5549              1250.8806              1264.3235
 Red. masses --      1.2205                 2.9074                 2.7571
 Frc consts  --      1.0783                 2.6804                 2.5967
 IR Inten    --     14.9951                 1.3290                 5.5228

                     43                     44                     45
                      A                      A                      A
 Frequencies --   1334.9161              1358.6495              1365.4163
 Red. masses --      2.9519                 2.2572                 2.3049
 Frc consts  --      3.0992                 2.4549                 2.5319
 IR Inten    --     13.2114                 3.4802                46.1983

                     46                     47                     48
                      A                      A                      A
 Frequencies --   1404.5754              1441.8125              1453.2165
 Red. masses --      2.2062                 1.2534                 3.4677
 Frc consts  --      2.5644                 1.5351                 4.3147
 IR Inten    --    148.2228                 5.7605               269.5475

                     49                     50                     51
                      A                      A                      A
 Frequencies --   1467.4706              1516.5466              1519.6902
 Red. masses --      2.4297                 1.0569                 1.1159
 Frc consts  --      3.0828                 1.4321                 1.5184
 IR Inten    --     41.9143                 6.9101                14.4358

                     52                     53                     54
                      A                      A                      A
 Frequencies --   1562.4025              1613.4989              1662.4638
 Red. masses --      2.4464                 5.2826                 5.7389
 Frc consts  --      3.5185                 8.1029                 9.3450
 IR Inten    --      8.9341                 6.7485                76.1481

                     55                     56                     57
                      A                      A                      A
 Frequencies --   1680.7604              1807.2035              2278.1945
 Red. masses --      6.2471                 9.9661                13.9758
 Frc consts  --     10.3978                19.1775                42.7376
 IR Inten    --     12.8912               328.0459              1070.8989

                     58                     59                     60
                      A                      A                      A
 Frequencies --   3042.2704              3100.0443              3128.8803
 Red. masses --      1.0409                 1.0951                 1.1028
 Frc consts  --      5.6761                 6.2005                 6.3610
 IR Inten    --     33.7071                20.9076                15.6455

                     61                     62                     63
                      A                      A                      A
 Frequencies --   3177.7206              3182.8176              3195.1542
 Red. masses --      1.0869                 1.0900                 1.0946
 Frc consts  --      6.4664                 6.5056                 6.5839
 IR Inten    --     11.9910                20.1546                26.0403

                     64                     65                     66
                      A                      A                      A
 Frequencies --   3223.8246              3255.0543              3702.0593
 Red. masses --      1.0878                 1.0913                 1.0644
 Frc consts  --      6.6607                 6.8129                 8.5945
 IR Inten    --      2.1597                 1.4093               103.0104

 - Thermochemistry -
 -------------------
 Temperature   298.150 Kelvin.  Pressure   1.00000 Atm.
 Atom     1 has atomic number  6 and mass  12.00000

 Molecular mass:   203.06948 amu.
 Principal axes and moments of inertia in atomic units:
                           1         2         3
     Eigenvalues --  1352.772616180.349197521.84781
           X            0.99992  -0.01281   0.00022
           Y            0.01281   0.99992  -0.00005
           Z           -0.00022   0.00005   1.00000
 This molecule is an asymmetric top.
 Rotational symmetry number  1.
 Warning -- assumption of classical behavior for rotation
           may cause significant error
 Rotational temperatures (Kelvin)      0.06403     0.01401     0.01151
 Rotational constants (GHZ):           1.33411     0.29201     0.23993
 Zero-point vibrational energy     473442.4 (Joules/Mol)
                                  113.15546 (Kcal/Mol)
 Warning -- explicit consideration of  20 degrees of freedom as
           vibrations may cause significant error
 Vibrational temperatures:     39.40    49.66    62.82    83.41   134.65
          (Kelvin)            135.46   257.63   267.25   328.94   390.76
                              470.40   506.50   539.87   598.31   667.62
                              669.21   748.75   780.06   786.38   874.44
                              896.99   939.38  1045.37  1046.30  1083.24
                             1120.76  1173.69  1196.72  1230.81  1264.79
                             1325.50  1390.26  1413.34  1469.37  1500.02
                             1544.84  1578.28  1669.92  1723.00  1761.86
                             1799.74  1819.08  1920.65  1954.79  1964.53
                             2020.87  2074.45  2090.85  2111.36  2181.97
                             2186.50  2247.95  2321.47  2391.91  2418.24
                             2600.16  3277.81  4377.15  4460.27  4501.76
                             4572.03  4579.36  4597.11  4638.36  4683.30
                             5326.44

 Zero-point correction=                           0.180325 (Hartree/Particle)
 Thermal correction to Energy=                    0.194181
 Thermal correction to Enthalpy=                  0.195125
 Thermal correction to Gibbs Free Energy=         0.137009
 Sum of electronic and zero-point Energies=           -700.995247
 Sum of electronic and thermal Energies=              -700.981391
 Sum of electronic and thermal Enthalpies=            -700.980447
 Sum of electronic and thermal Free Energies=         -701.038563

                     E (Thermal)             CV                S
                      KCal/Mol        Cal/Mol-Kelvin    Cal/Mol-Kelvin
 Total                  121.850             50.198            122.315
 Electronic               0.000              0.000              0.000
 Translational            0.889              2.981             41.830
 Rotational               0.889              2.981             32.508
 Vibrational            120.073             44.236             47.978
 Vibration     1          0.593              1.984              6.011
 Vibration     2          0.594              1.983              5.551
 Vibration     3          0.595              1.980              5.086
 Vibration     4          0.596              1.974              4.525
 Vibration     5          0.603              1.954              3.584
 Vibration     6          0.603              1.953              3.572
 Vibration     7          0.629              1.868              2.338
 Vibration     8          0.632              1.859              2.270
 Vibration     9          0.651              1.797              1.890
 Vibration    10          0.675              1.726              1.586
 Vibration    11          0.711              1.622              1.275
 Vibration    12          0.729              1.571              1.157
 Vibration    13          0.746              1.523              1.058
 Vibration    14          0.779              1.436              0.906
 Vibration    15          0.822              1.330              0.754
 Vibration    16          0.823              1.327              0.751
 Vibration    17          0.875              1.205              0.609
 Vibration    18          0.897              1.157              0.561
 Vibration    19          0.902              1.147              0.551
 Vibration    20          0.967              1.015              0.436

                           ! Non-Optimized Parameters !
 Normal termination of Gaussian 16 at Thu Dec 10 17:19:47 2020.

 ----------------------------------------------------------------------
 # B3LYP/6-311++G(d,p) empiricaldispersion=gd3bj scf=xqc pop=npa geom=c
 heck
 ----------------------------------------------------------------------

 ---------------------------------------
 CID_141415314_JID_5820_Energie_neutraal
 ---------------------------------------
 Structure from the checkpoint file:  "JID_5820.chk"
 Charge =  0 Multiplicity = 1

 SCF Done:  E(RB3LYP) =  -701.373350926     A.U. after   15 cycles
 Normal termination of Gaussian 16 at Thu Dec 10 17:22:55 2020.

 ----------------------------------------------------------------------
 # B3LYP/6-311++G(d,p) empiricaldispersion=gd3bj scf=xqc pop=npa geom=c
 heck
 ----------------------------------------------------------------------

 -------------------------------------
 CID_141415314_JID_5820_Energie_kation
 -------------------------------------
 Structure from the checkpoint file:  "JID_5820.chk"
 Charge =  1 Multiplicity = 2

 SCF Done:  E(UB3LYP) =  -701.087448954     A.U. after   23 cycles
 Normal termination of Gaussian 16 at Thu Dec 10 17:30:50 2020.
 Gaussian 16:  ES64L-G16RevA.03 25-Dec-2016

 ----------------------------------------------------------------------
 # B3LYP/6-311++G(d,p) empiricaldispersion=gd3bj scf=xqc pop=npa geom=c
 heck
 ----------------------------------------------------------------------

 ------------------------------------
 CID_141415314_JID_5820_Energie_anion
 ------------------------------------
 Structure from the checkpoint file:  "JID_5820.chk"
 Charge = -1 Multiplicity = 2

                         Standard orientation:
 ---------------------------------------------------------------------
 Center     Atomic      Atomic             Coordinates (Angstroms)
 Number     Number       Type             X           Y           Z
 ---------------------------------------------------------------------
      1          6           0       -5.173707    0.588568   -0.018744
      2          6           0       -3.714951    0.209813    0.008440
      3          6           0       -2.715328    1.193274    0.012106
      4          6           0       -1.366425    0.862210    0.008130
      5          6           0       -0.960106   -0.488947    0.002925
      6          6           0       -1.968815   -1.474183    0.003422
      7          6           0       -3.314714   -1.132299    0.007316
      8          6           0        0.417844   -0.946962    0.001331
      9          6           0        1.585506   -0.250385   -0.000224
     10          6           0        2.890161   -0.955226   -0.002576
     11          8           0        3.966506   -0.389179   -0.003897
     12          8           0        2.784236   -2.306790   -0.003243
     13          7           0        1.587995    1.151830    0.000265
     14          7           0        2.639559    1.814194   -0.001108
     15          7           0        3.447420    2.616191   -0.002061
     16          1           0       -5.364068    1.489585    0.574037
     17          1           0       -5.506811    0.799128   -1.043771
     18          1           0       -5.804219   -0.216789    0.371009
     19          1           0       -3.003180    2.241856    0.019662
     20          1           0       -0.619027    1.644120    0.012864
     21          1           0       -1.681489   -2.522681    0.004534
     22          1           0       -4.068300   -1.915799    0.010754
     23          1           0        0.538572   -2.024299    0.000335
     24          1           0        3.700965   -2.638047   -0.004739
 ---------------------------------------------------------------------

 SCF Done:  E(UB3LYP) =  -701.403098376     A.U. after   23 cycles

 The electronic state is 2-A.
 Alpha  occ. eigenvalues --  -19.03390 -18.96062 -14.33991 -14.23538 -14.22846
 Alpha  occ. eigenvalues --  -10.14777 -10.06349 -10.06140 -10.04336 -10.04194
 Alpha  occ. eigenvalues --  -10.04057 -10.03912 -10.03638 -10.02827 -10.01567
 Alpha  occ. eigenvalues --   -1.00118  -0.97071  -0.87803  -0.84287  -0.72827
 Alpha  occ. eigenvalues --   -0.67401  -0.63933  -0.61405  -0.57593  -0.51715
 Alpha  occ. eigenvalues --   -0.50548  -0.47536  -0.44568  -0.40833  -0.37897
 Alpha  occ. eigenvalues --   -0.37510  -0.35967  -0.34546  -0.34294  -0.32654
 Alpha  occ. eigenvalues --   -0.31533  -0.31455  -0.31269  -0.30003  -0.28975
 Alpha  occ. eigenvalues --   -0.27763  -0.26433  -0.24617  -0.23907  -0.22200
 Alpha  occ. eigenvalues --   -0.20748  -0.20284  -0.18880  -0.17364  -0.13952
 Alpha  occ. eigenvalues --   -0.13759  -0.12756  -0.07647   0.02730
 Alpha virt. eigenvalues --    0.07551   0.08855   0.09476   0.10115   0.10580
 Alpha virt. eigenvalues --    0.10612   0.11129   0.12353   0.13045   0.13386
 Alpha virt. eigenvalues --    0.14136   0.14648   0.15221   0.16109   0.16634

  Beta  occ. eigenvalues --  -19.03351 -18.95788 -14.33894 -14.23363 -14.22936
  Beta  occ. eigenvalues --  -10.14572 -10.06175 -10.06164 -10.04275 -10.04157
  Beta  occ. eigenvalues --  -10.04017 -10.03922 -10.03481 -10.02639 -10.01183
  Beta  occ. eigenvalues --   -0.99917  -0.96841  -0.87426  -0.84181  -0.72540
  Beta  occ. eigenvalues --   -0.66863  -0.63579  -0.61197  -0.57342  -0.51484
  Beta  occ. eigenvalues --   -0.49868  -0.47417  -0.44313  -0.40672  -0.37765
  Beta  occ. eigenvalues --   -0.36951  -0.35652  -0.34368  -0.34112  -0.32442
  Beta  occ. eigenvalues --   -0.31238  -0.30975  -0.30392  -0.29814  -0.28924
  Beta  occ. eigenvalues --   -0.27670  -0.26176  -0.24425  -0.23133  -0.22007
  Beta  occ. eigenvalues --   -0.20678  -0.19490  -0.17748  -0.17298  -0.13504
  Beta  occ. eigenvalues --   -0.12840  -0.12148  -0.06043
  Beta virt. eigenvalues --    0.07513   0.08343   0.08873   0.09452   0.10156
  Beta virt. eigenvalues --    0.10637   0.10819   0.11472   0.12331   0.13361
  Beta virt. eigenvalues --    0.14195   0.14646   0.15045   0.15321   0.16134

 Mulliken charges and spin densities:
               1          2
     1  C   -0.500713  -0.027799
     2  C    0.740057   0.192815
     3  C   -0.416098  -0.062695
     4  C   -0.878785   0.159830
     5  C    1.088747  -0.027195
     6  C   -0.185341   0.133817
     7  C   -0.753011  -0.043209
     8  C   -0.205184   0.283574
     9  C   -0.401459   0.072669
    10  C   -0.248623   0.136956
    11  O   -0.413365   0.091180
    12  O   -0.233996   0.009940
    13  N    0.049911  -0.037889
    14  N    0.745461   0.025766
    15  N   -0.670523   0.088741
    16  H    0.117164   0.005707
    17  H    0.118459   0.025878
    18  H    0.119821   0.003040
    19  H    0.121057   0.004303
    20  H    0.184612  -0.010522
    21  H    0.105145  -0.005670
    22  H    0.090690   0.002529
    23  H    0.165370  -0.021147
    24  H    0.260602  -0.000619
 Sum of Mulliken charges =  -1.00000   1.00000

 Dipole moment (field-independent basis, Debye):
    X=             -4.1368    Y=             -1.9431    Z=              0.0138  Tot=              4.5704
 Quadrupole moment (field-independent basis, Debye-Ang):
   XX=           -140.5030   YY=            -98.8291   ZZ=            -95.2055
   XY=            -12.0783   XZ=             -0.1463   YZ=              0.0680

 Summary of Natural Population Analysis:

                                       Natural Population
                Natural  -----------------------------------------------
    Atom  No    Charge         Core      Valence    Rydberg      Total
 -----------------------------------------------------------------------
      C    1   -0.29262      0.99965     2.28849    0.00448     3.29262
      C    2    0.02900      0.99952     1.96312    0.00836     2.97100
      C    3   -0.12981      0.99953     2.12190    0.00838     3.12981
      C    4   -0.04962      0.99953     2.04173    0.00835     3.04962
      C    5   -0.05006      0.99952     2.04157    0.00897     3.05006
      C    6   -0.05195      0.99954     2.04371    0.00869     3.05195
      C    7   -0.13194      0.99953     2.12378    0.00864     3.13194
      C    8   -0.00267      0.99942     1.99327    0.00999     3.00267
      C    9    0.02423      0.99940     1.96394    0.01243     2.97577
      C   10    0.40679      0.99966     1.56958    0.02397     2.59321
      O   11   -0.30537      0.99987     3.29673    0.00876     4.30537
      O   12   -0.35229      0.99988     3.34638    0.00603     4.35229
      N   13   -0.19013      0.99964     2.67509    0.01539     3.69013
      N   14    0.13289      0.99970     2.35182    0.01558     3.36711
      N   15   -0.03709      0.99981     2.52388    0.01340     3.53709
      H   16    0.09729      0.00000     0.40176    0.00095     0.40271
      H   17    0.09973      0.00000     0.39922    0.00105     0.40027
      H   18    0.09563      0.00000     0.40343    0.00094     0.40437
      H   19    0.09011      0.00000     0.40886    0.00103     0.40989
      H   20    0.10694      0.00000     0.39162    0.00144     0.39306
      H   21    0.08951      0.00000     0.40877    0.00173     0.41049
      H   22    0.08963      0.00000     0.40928    0.00110     0.41037
      H   23    0.09995      0.00000     0.39920    0.00085     0.40005
      H   24    0.23186      0.00000     0.26483    0.00331     0.26814
 =======================================================================
   * Total *    0.00001     14.99421    37.83196    0.17382    52.99999

 Normal termination of Gaussian 16 at Thu Dec 10 17:37:05 2020.
