 Gaussian 16, Revision A.03,

 -----------------------------------------------------------
 # opt freq B3LYP/6-31G(d) empiricaldispersion=gd3bj scf=xqc
 -----------------------------------------------------------

 ------------------------------
 CID_81546158_JID_5462_neutraal
 ------------------------------
 Symbolic Z-matrix:
 Charge =  0 Multiplicity = 1

 SCF Done:  E(RB3LYP) =  -1011.73910140     A.U. after   15 cycles
 SCF Done:  E(RB3LYP) =  -1011.74349859     A.U. after   12 cycles
 SCF Done:  E(RB3LYP) =  -1011.74410415     A.U. after   12 cycles
 SCF Done:  E(RB3LYP) =  -1011.74419831     A.U. after   11 cycles
 SCF Done:  E(RB3LYP) =  -1011.74422214     A.U. after   10 cycles
 SCF Done:  E(RB3LYP) =  -1011.74423300     A.U. after   11 cycles
 SCF Done:  E(RB3LYP) =  -1011.74423855     A.U. after   10 cycles
 SCF Done:  E(RB3LYP) =  -1011.74424248     A.U. after   10 cycles
 SCF Done:  E(RB3LYP) =  -1011.74424386     A.U. after    9 cycles
 SCF Done:  E(RB3LYP) =  -1011.74424479     A.U. after    8 cycles
 SCF Done:  E(RB3LYP) =  -1011.74604015     A.U. after   11 cycles
 SCF Done:  E(RB3LYP) =  -1011.74610906     A.U. after   11 cycles
 SCF Done:  E(RB3LYP) =  -1011.74610918     A.U. after    8 cycles
 SCF Done:  E(RB3LYP) =  -1011.74610910     A.U. after    7 cycles
 SCF Done:  E(RB3LYP) =  -1011.74610916     A.U. after    7 cycles
 Optimization completed.
    -- Stationary point found.
 Normal termination of Gaussian 16 at Mon Dec 14 16:57:07 2020.

 --------------------------------------------------------------------
 #N Geom=AllCheck Guess=TCheck SCRF=Check GenChk RB3LYP/6-31G(d) Freq
 --------------------------------------------------------------------

 Structure from the checkpoint file:  "JID_5462.chk"
 ------------------------------
 CID_81546158_JID_5462_neutraal
 ------------------------------
 Charge =  0 Multiplicity = 1

 SCF Done:  E(RB3LYP) =  -1011.74610916     A.U. after    1 cycles

  Exact polarizability: 206.934  10.906 127.028  10.004 -11.454 109.403
 Approx polarizability: 266.247  23.441 214.845  12.318 -37.091 190.025

 ******    1 imaginary frequencies (negative Signs) ******

                      1                      2                      3
                      A                      A                      A
 Frequencies --    -24.0355                36.4705                51.0307
 Red. masses --      1.0350                 4.9185                 4.3266
 Frc consts  --      0.0004                 0.0039                 0.0066
 IR Inten    --      0.1011                 0.5714                 4.6336

                      4                      5                      6
                      A                      A                      A
 Frequencies --     62.7029               114.2548               137.8602
 Red. masses --      4.4819                 6.0099                 3.7834
 Frc consts  --      0.0104                 0.0462                 0.0424
 IR Inten    --      5.6624                 2.4000                 4.0652

                      7                      8                      9
                      A                      A                      A
 Frequencies --    204.7772               214.6229               270.3524
 Red. masses --      2.6059                 4.2732                 3.7769
 Frc consts  --      0.0644                 0.1160                 0.1626
 IR Inten    --      2.5707                 2.2531                 3.8122

                     10                     11                     12
                      A                      A                      A
 Frequencies --    288.7129               314.1551               320.0881
 Red. masses --      3.0862                 2.8561                 2.7215
 Frc consts  --      0.1516                 0.1661                 0.1643
 IR Inten    --      3.8103                 3.4618                 5.4254

                     13                     14                     15
                      A                      A                      A
 Frequencies --    343.1002               385.7967               425.6078
 Red. masses --      2.6159                 2.9249                 3.2261
 Frc consts  --      0.1814                 0.2565                 0.3443
 IR Inten    --      1.1630                 1.4410                 6.7465

                     16                     17                     18
                      A                      A                      A
 Frequencies --    435.2148               450.3467               486.4923
 Red. masses --      2.6697                 2.5067                 3.3888
 Frc consts  --      0.2979                 0.2995                 0.4725
 IR Inten    --      1.8185                 5.4141                17.4406

                     19                     20                     21
                      A                      A                      A
 Frequencies --    515.3494               554.2106               589.6887
 Red. masses --      3.0448                 3.6896                 2.9330
 Frc consts  --      0.4764                 0.6677                 0.6009
 IR Inten    --     26.2275                24.8278                42.3441

                     22                     23                     24
                      A                      A                      A
 Frequencies --    601.5980               620.0274               627.9778
 Red. masses --      5.0549                 3.4456                 2.1277
 Frc consts  --      1.0779                 0.7804                 0.4944
 IR Inten    --      9.9446                34.0099                 7.7792

                     25                     26                     27
                      A                      A                      A
 Frequencies --    660.5596               742.4837               787.8431
 Red. masses --      5.9493                 3.5489                 4.0334
 Frc consts  --      1.5295                 1.1527                 1.4750
 IR Inten    --      4.0559                 2.2104                 0.7832

                     28                     29                     30
                      A                      A                      A
 Frequencies --    801.2671               833.3454               840.3284
 Red. masses --      1.6802                 2.1998                 1.5621
 Frc consts  --      0.6356                 0.9001                 0.6499
 IR Inten    --      2.8120                 5.7737                26.2736

                     31                     32                     33
                      A                      A                      A
 Frequencies --    877.8569               903.1981               916.0196
 Red. masses --      4.5892                 1.3861                 1.4249
 Frc consts  --      2.0837                 0.6662                 0.7045
 IR Inten    --      3.3743                 2.4566                 8.2328

                     34                     35                     36
                      A                      A                      A
 Frequencies --    953.2872               959.5638              1007.9245
 Red. masses --      2.0943                 1.2915                 1.4884
 Frc consts  --      1.1213                 0.7006                 0.8909
 IR Inten    --     15.4533                 0.6100                15.7174

                     37                     38                     39
                      A                      A                      A
 Frequencies --   1015.3221              1022.2652              1041.9895
 Red. masses --      1.9930                 2.1508                 2.9907
 Frc consts  --      1.2105                 1.3243                 1.9132
 IR Inten    --      9.2264                 4.6292                 3.7481

                     40                     41                     42
                      A                      A                      A
 Frequencies --   1050.0298              1071.6009              1084.9036
 Red. masses --      3.3417                 1.5167                 1.7175
 Frc consts  --      2.1708                 1.0262                 1.1910
 IR Inten    --     51.5669                 3.4938                15.1835

                     43                     44                     45
                      A                      A                      A
 Frequencies --   1090.6861              1132.8718              1147.6510
 Red. masses --      2.1742                 3.1834                 1.6626
 Frc consts  --      1.5238                 2.4072                 1.2902
 IR Inten    --     25.0114                50.5403                 4.2842

                     46                     47                     48
                      A                      A                      A
 Frequencies --   1172.4687              1214.7829              1230.4353
 Red. masses --      1.2283                 1.3885                 1.3801
 Frc consts  --      0.9949                 1.2073                 1.2311
 IR Inten    --      8.0510                 9.6572                 1.2751

                     49                     50                     51
                      A                      A                      A
 Frequencies --   1272.9165              1280.0956              1292.6771
 Red. masses --      2.1998                 1.4754                 2.7440
 Frc consts  --      2.1001                 1.4244                 2.7015
 IR Inten    --     12.1354                 3.5639                10.8501

                     52                     53                     54
                      A                      A                      A
 Frequencies --   1312.5028              1337.7274              1339.5281
 Red. masses --      1.3468                 2.6938                 1.7959
 Frc consts  --      1.3669                 2.8402                 1.8986
 IR Inten    --      4.0781                74.9270                36.2762

                     55                     56                     57
                      A                      A                      A
 Frequencies --   1346.5654              1356.8896              1362.2468
 Red. masses --      1.3333                 1.3193                 1.3452
 Frc consts  --      1.4244                 1.4312                 1.4708
 IR Inten    --     19.4902                 3.2811                20.0446

                     58                     59                     60
                      A                      A                      A
 Frequencies --   1409.5275              1423.9588              1434.0726
 Red. masses --      1.3872                 1.6306                 1.2878
 Frc consts  --      1.6238                 1.9480                 1.5604
 IR Inten    --      5.4645                 5.8931                 0.0287

                     61                     62                     63
                      A                      A                      A
 Frequencies --   1438.0178              1480.5501              1492.9749
 Red. masses --      2.2864                 1.0996                 1.0938
 Frc consts  --      2.7857                 1.4201                 1.4364
 IR Inten    --     47.0905                 2.2564                 9.3353

                     64                     65                     66
                      A                      A                      A
 Frequencies --   1504.7120              1510.5187              1516.7936
 Red. masses --      1.0830                 1.1328                 1.0453
 Frc consts  --      1.4448                 1.5229                 1.4170
 IR Inten    --      6.1171                31.3822                 5.6417

                     67                     68                     69
                      A                      A                      A
 Frequencies --   1524.1502              1535.2227              1556.5097
 Red. masses --      1.0951                 1.5747                 2.4124
 Frc consts  --      1.4988                 2.1867                 3.4435
 IR Inten    --      3.9053                 3.2043               219.2743

                     70                     71                     72
                      A                      A                      A
 Frequencies --   1627.1404              1663.8260              3035.3110
 Red. masses --      4.0625                 6.0875                 1.0822
 Frc consts  --      6.3371                 9.9290                 5.8746
 IR Inten    --     21.1800                39.2436                10.5730

                     73                     74                     75
                      A                      A                      A
 Frequencies --   3042.9580              3054.6266              3063.0216
 Red. masses --      1.0395                 1.0614                 1.0620
 Frc consts  --      5.6709                 5.8350                 5.8705
 IR Inten    --     39.1971                15.9076                 3.8823

                     76                     77                     78
                      A                      A                      A
 Frequencies --   3065.9995              3069.9889              3091.6092
 Red. masses --      1.0602                 1.0614                 1.1008
 Frc consts  --      5.8722                 5.8940                 6.1989
 IR Inten    --     15.6056                23.0903                22.9311

                     79                     80                     81
                      A                      A                      A
 Frequencies --   3101.9557              3109.2342              3127.6895
 Red. masses --      1.1021                 1.1035                 1.1033
 Frc consts  --      6.2480                 6.2856                 6.3588
 IR Inten    --     16.9149                 8.6046                10.0029

                     82                     83                     84
                      A                      A                      A
 Frequencies --   3130.9517              3153.8417              3171.6114
 Red. masses --      1.1053                 1.0989                 1.0879
 Frc consts  --      6.3838                 6.4398                 6.4477
 IR Inten    --     10.9275                 9.2745                17.5413

                     85                     86                     87
                      A                      A                      A
 Frequencies --   3178.0303              3195.3364              3549.1484
 Red. masses --      1.0886                 1.0944                 1.0749
 Frc consts  --      6.4779                 6.5837                 7.9778
 IR Inten    --     47.5260                16.1845                 5.4618

 - Thermochemistry -
 -------------------
 Temperature   298.150 Kelvin.  Pressure   1.00000 Atm.
 Atom     1 has atomic number  6 and mass  12.00000

 Molecular mass:   224.09834 amu.
 Principal axes and moments of inertia in atomic units:
                           1         2         3
     Eigenvalues --  1091.430078435.407038739.36121
           X            0.99994   0.00457   0.00954
           Y           -0.00452   0.99998  -0.00499
           Z           -0.00956   0.00494   0.99994
 This molecule is an asymmetric top.
 Rotational symmetry number  1.
 Warning -- assumption of classical behavior for rotation
           may cause significant error
 Rotational temperatures (Kelvin)      0.07936     0.01027     0.00991
 Rotational constants (GHZ):           1.65356     0.21395     0.20651
    1 imaginary frequencies ignored.
 Zero-point vibrational energy     686474.4 (Joules/Mol)
                                  164.07132 (Kcal/Mol)
 Warning -- explicit consideration of  22 degrees of freedom as
           vibrations may cause significant error
 Vibrational temperatures:     52.47    73.42    90.22   164.39   198.35
          (Kelvin)            294.63   308.79   388.98   415.39   452.00
                              460.54   493.64   555.08   612.35   626.18
                              647.95   699.95   741.47   797.39   848.43
                              865.57   892.08   903.52   950.40  1068.27
                             1133.53  1152.84  1199.00  1209.05  1263.04
                             1299.50  1317.95  1371.57  1380.60  1450.18
                             1460.82  1470.81  1499.19  1510.76  1541.79
                             1560.93  1569.25  1629.95  1651.21  1686.92
                             1747.80  1770.32  1831.44  1841.77  1859.87
                             1888.40  1924.69  1927.28  1937.41  1952.26
                             1959.97  2028.00  2048.76  2063.31  2068.99
                             2130.18  2148.06  2164.94  2173.30  2182.33
                             2192.91  2208.84  2239.47  2341.09  2393.87
                             4367.14  4378.14  4394.93  4407.00  4411.29
                             4417.03  4448.14  4463.02  4473.49  4500.05
                             4504.74  4537.67  4563.24  4572.48  4597.38
                             5106.43

 Zero-point correction=                           0.261464 (Hartree/Particle)
 Thermal correction to Energy=                    0.275001
 Thermal correction to Enthalpy=                  0.275945
 Thermal correction to Gibbs Free Energy=         0.220401
 Sum of electronic and zero-point Energies=          -1011.484645
 Sum of electronic and thermal Energies=             -1011.471108
 Sum of electronic and thermal Enthalpies=           -1011.470164
 Sum of electronic and thermal Free Energies=        -1011.525709

                     E (Thermal)             CV                S
                      KCal/Mol        Cal/Mol-Kelvin    Cal/Mol-Kelvin
 Total                  172.566             53.571            116.904
 Electronic               0.000              0.000              0.000
 Translational            0.889              2.981             42.123
 Rotational               0.889              2.981             32.753
 Vibrational            170.788             47.610             42.027
 Vibration     1          0.594              1.982              5.442
 Vibration     2          0.595              1.977              4.777
 Vibration     3          0.597              1.972              4.370
 Vibration     4          0.607              1.938              3.195
 Vibration     5          0.614              1.916              2.833
 Vibration     6          0.640              1.833              2.090
 Vibration     7          0.645              1.819              2.004
 Vibration     8          0.674              1.728              1.594
 Vibration     9          0.685              1.695              1.481
 Vibration    10          0.702              1.647              1.340
 Vibration    11          0.706              1.635              1.310
 Vibration    12          0.722              1.589              1.198
 Vibration    13          0.754              1.501              1.016
 Vibration    14          0.787              1.415              0.873
 Vibration    15          0.796              1.393              0.842
 Vibration    16          0.809              1.360              0.795
 Vibration    17          0.842              1.280              0.693
 Vibration    18          0.870              1.216              0.621
 Vibration    19          0.910              1.130              0.536
 Vibration    20          0.947              1.054              0.468
 Vibration    21          0.960              1.028              0.447
 Vibration    22          0.980              0.990              0.416

 Optimization completed.
    -- Stationary point found.
 Normal termination of Gaussian 16 at Mon Dec 14 17:05:57 2020.

 ----------------------------------------------------------------------
 # B3LYP/6-311++G(d,p) empiricaldispersion=gd3bj scf=xqc pop=npa geom=c
 heck
 ----------------------------------------------------------------------

 --------------------------------------
 CID_81546158_JID_5462_Energie_neutraal
 --------------------------------------
 Structure from the checkpoint file:  "JID_5462.chk"
 Charge =  0 Multiplicity = 1

 SCF Done:  E(RB3LYP) =  -1011.94358597     A.U. after   16 cycles
 Normal termination of Gaussian 16 at Mon Dec 14 17:10:45 2020.

 ----------------------------------------------------------------------
 # B3LYP/6-311++G(d,p) empiricaldispersion=gd3bj scf=xqc pop=npa geom=c
 heck
 ----------------------------------------------------------------------

 ------------------------------------
 CID_81546158_JID_5462_Energie_kation
 ------------------------------------
 Structure from the checkpoint file:  "JID_5462.chk"
 Charge =  1 Multiplicity = 2

 SCF Done:  E(UB3LYP) =  -1011.66589431     A.U. after   23 cycles
 Normal termination of Gaussian 16 at Mon Dec 14 17:20:22 2020.
 Gaussian 16:  ES64L-G16RevA.03 25-Dec-2016

 ----------------------------------------------------------------------
 # B3LYP/6-311++G(d,p) empiricaldispersion=gd3bj scf=xqc pop=npa geom=c
 heck
 ----------------------------------------------------------------------

 -----------------------------------
 CID_81546158_JID_5462_Energie_anion
 -----------------------------------
 Structure from the checkpoint file:  "JID_5462.chk"
 Charge = -1 Multiplicity = 2

                         Standard orientation:
 ---------------------------------------------------------------------
 Center     Atomic      Atomic             Coordinates (Angstroms)
 Number     Number       Type             X           Y           Z
 ---------------------------------------------------------------------
      1          6           0       -5.566927   -0.928930   -0.064990
      2          6           0       -4.178612   -0.340796   -0.033403
      3          7           0       -3.242015   -1.003961    0.656350
      4          6           0       -1.998936   -0.515655    0.706145
      5          6           0       -1.594436    0.673530    0.075228
      6          6           0       -2.582651    1.359742   -0.651799
      7          6           0       -3.871033    0.853509   -0.702866
      8          7           0       -0.309395    1.201536    0.188124
      9          6           0        0.841460    0.365804    0.512581
     10          6           0        2.044735    1.281588    0.768970
     11          6           0        3.291894    0.515144    1.198491
     12         16           0        3.890484   -0.594809   -0.156863
     13          8           0        3.924770    0.252360   -1.415855
     14          6           0        2.324518   -1.578626   -0.230210
     15          6           0        1.139999   -0.682091   -0.576760
     16          1           0       -5.587989   -1.843764    0.531125
     17          1           0       -6.309457   -0.230245    0.340375
     18          1           0       -5.877750   -1.172956   -1.088772
     19          1           0       -1.288563   -1.103104    1.282732
     20          1           0       -2.330742    2.285744   -1.164677
     21          1           0       -4.640946    1.378024   -1.262433
     22          1           0       -0.099081    1.890344   -0.526400
     23          1           0        0.613485   -0.155021    1.452223
     24          1           0        2.287009    1.831390   -0.149743
     25          1           0        1.779915    2.017325    1.536332
     26          1           0        3.125134   -0.110480    2.083438
     27          1           0        4.122570    1.195139    1.408185
     28          1           0        2.212144   -2.084283    0.736611
     29          1           0        2.491168   -2.338969   -0.998822
     30          1           0        0.252157   -1.300430   -0.747216
     31          1           0        1.364854   -0.162975   -1.515954
 ---------------------------------------------------------------------

 SCF Done:  E(UB3LYP) =  -1011.93301147     A.U. after   33 cycles
 SCF Done:  E(UB3LYP) =  -1011.93334611     a.u. after    8 cycles

 The electronic state is 2-A.
 Alpha  occ. eigenvalues --  -88.85127 -18.98910 -14.23360 -14.20750 -10.12332
 Alpha  occ. eigenvalues --  -10.12153 -10.11052 -10.10874 -10.10802 -10.09896
 Alpha  occ. eigenvalues --  -10.08743 -10.08698 -10.08550 -10.08201 -10.07547
 Alpha  occ. eigenvalues --   -7.92874  -5.89144  -5.88990  -5.88478  -0.91850
 Alpha  occ. eigenvalues --   -0.85883  -0.83361  -0.74284  -0.69959  -0.68331
 Alpha  occ. eigenvalues --   -0.67743  -0.64574  -0.59902  -0.55209  -0.54508
 Alpha  occ. eigenvalues --   -0.52234  -0.50701  -0.47950  -0.43418  -0.42069
 Alpha  occ. eigenvalues --   -0.38971  -0.38728  -0.38187  -0.36626  -0.35150
 Alpha  occ. eigenvalues --   -0.34355  -0.33956  -0.33526  -0.32202  -0.31867
 Alpha  occ. eigenvalues --   -0.31028  -0.30223  -0.29139  -0.28709  -0.28068
 Alpha  occ. eigenvalues --   -0.27436  -0.25800  -0.25697  -0.24435  -0.21679
 Alpha  occ. eigenvalues --   -0.18172  -0.17557  -0.15988  -0.14381  -0.11457
 Alpha  occ. eigenvalues --    0.04100
 Alpha virt. eigenvalues --    0.05562   0.06297   0.06777   0.07253   0.07999
 Alpha virt. eigenvalues --    0.08228   0.08564   0.09503   0.09980   0.10343
 Alpha virt. eigenvalues --    0.10415   0.10777   0.11132   0.12145   0.12561

  Beta  occ. eigenvalues --  -88.85124 -18.98902 -14.23352 -14.20707 -10.12342
  Beta  occ. eigenvalues --  -10.12136 -10.11023 -10.10883 -10.10760 -10.09860
  Beta  occ. eigenvalues --  -10.08729 -10.08653 -10.08546 -10.08169 -10.07537
  Beta  occ. eigenvalues --   -7.92872  -5.89142  -5.88989  -5.88469  -0.91829
  Beta  occ. eigenvalues --   -0.85846  -0.83311  -0.74247  -0.69883  -0.68293
  Beta  occ. eigenvalues --   -0.67699  -0.64536  -0.59858  -0.55140  -0.54449
  Beta  occ. eigenvalues --   -0.52161  -0.50665  -0.47874  -0.43373  -0.42034
  Beta  occ. eigenvalues --   -0.38930  -0.38670  -0.38142  -0.36589  -0.35102
  Beta  occ. eigenvalues --   -0.34315  -0.33909  -0.33499  -0.32165  -0.31829
  Beta  occ. eigenvalues --   -0.30991  -0.30189  -0.29056  -0.28680  -0.28020
  Beta  occ. eigenvalues --   -0.27399  -0.25758  -0.25646  -0.24397  -0.21598
  Beta  occ. eigenvalues --   -0.17974  -0.17537  -0.15931  -0.14353  -0.11370
  Beta virt. eigenvalues --    0.06126   0.06644   0.06891   0.07188   0.07781
  Beta virt. eigenvalues --    0.08168   0.08569   0.09070   0.09940   0.10127
  Beta virt. eigenvalues --    0.10530   0.10696   0.10941   0.11335   0.12185

 Mulliken charges and spin densities:
               1          2
     1  C    0.635772  -1.209653
     2  C   -0.502842   0.165878
     3  N   -0.071056   0.138050
     4  C   -0.458358   0.015880
     5  C    1.593828  -1.444071
     6  C   -1.569016   1.562640
     7  C    0.702932  -0.651692
     8  N    0.062492   0.143147
     9  C    0.805176  -1.235145
    10  C   -0.838407   0.646952
    11  C    0.537358  -1.482957
    12  S    1.027024  -0.332881
    13  O   -0.460948   0.040798
    14  C   -0.064914  -0.915115
    15  C   -0.678301   0.724004
    16  H    0.090140   0.061614
    17  H    0.052358   0.091221
    18  H    0.061940   0.079892
    19  H   -0.487405   0.704085
    20  H   -0.500859   0.646563
    21  H   -0.434377   0.622963
    22  H    0.136030   0.105785
    23  H    0.395656  -0.232906
    24  H    0.173866  -0.009455
    25  H   -0.313648   0.527630
    26  H   -0.668103   0.858749
    27  H   -0.157602   0.435768
    28  H   -0.376915   0.583083
    29  H    0.092897   0.141563
    30  H    0.107356   0.102710
    31  H    0.107923   0.114900
 Sum of Mulliken charges =  -1.00000   1.00000

 Dipole moment (field-independent basis, Debye):
    X=             -1.1972    Y=             -0.4145    Z=             -2.6577  Tot=              2.9443
 Quadrupole moment (field-independent basis, Debye-Ang):
   XX=           -185.6756   YY=           -133.0607   ZZ=           -143.3590
   XY=              0.8847   XZ=             -3.5676   YZ=              6.3472

 Summary of Natural Population Analysis:

                                       Natural Population
                Natural  -----------------------------------------------
    Atom  No    Charge         Core      Valence    Rydberg      Total
 -----------------------------------------------------------------------
      C    1   -0.29673      0.99964     2.29230    0.00479     3.29673
      C    2    0.08374      0.99955     1.90378    0.01293     2.91626
      N    3   -0.22780      0.99968     2.71727    0.01085     3.72780
      C    4    0.00566      0.99954     1.98260    0.01219     2.99434
      C    5    0.06939      0.99949     1.92055    0.01057     2.93061
      C    6   -0.09512      0.99953     2.08550    0.01009     3.09512
      C    7   -0.10937      0.99952     2.10053    0.00932     3.10937
      N    8   -0.31156      0.99968     2.80070    0.01118     3.81156
      C    9   -0.00831      0.99957     1.99569    0.01306     3.00831
      C   10   -0.20375      0.99960     2.19220    0.01195     3.20375
      C   11   -0.27213      0.99959     2.25963    0.01291     3.27213
      S   12    0.57686      4.99946     2.36961    0.05407     7.42314
      O   13   -0.48806      0.99993     3.48240    0.00572     4.48806
      C   14   -0.27322      0.99959     2.26189    0.01174     3.27322
      C   15   -0.21117      0.99959     2.20153    0.01005     3.21117
      H   16    0.10804      0.00000     0.39066    0.00130     0.39196
      H   17    0.10010      0.00000     0.39869    0.00121     0.39990
      H   18    0.09940      0.00000     0.39938    0.00121     0.40060
      H   19    0.09188      0.00000     0.40582    0.00231     0.40812
      H   20    0.10008      0.00000     0.39863    0.00129     0.39992
      H   21    0.10169      0.00000     0.39706    0.00126     0.39831
      H   22    0.18123      0.00000     0.31593    0.00284     0.31877
      H   23    0.09795      0.00000     0.39864    0.00341     0.40205
      H   24    0.10704      0.00000     0.39148    0.00148     0.39296
      H   25    0.11233      0.00000     0.38619    0.00147     0.38767
      H   26    0.11192      0.00000     0.38237    0.00571     0.38808
      H   27    0.11098      0.00000     0.38749    0.00153     0.38902
      H   28    0.11020      0.00000     0.38672    0.00308     0.38980
      H   29    0.10893      0.00000     0.38996    0.00111     0.39107
      H   30    0.11000      0.00000     0.38865    0.00134     0.39000
      H   31    0.10980      0.00000     0.38885    0.00135     0.39020
 =======================================================================
   * Total *    0.00000     18.99396    40.77271    0.23333    60.00000

 Normal termination of Gaussian 16 at Mon Dec 14 19:04:38 2020.
