 Gaussian 16, Revision A.03,

 -----------------------------------------------------------
 # opt freq B3LYP/6-31G(d) empiricaldispersion=gd3bj scf=xqc
 -----------------------------------------------------------

 ------------------------------
 CID_69608813_JID_9590_neutraal
 ------------------------------
 Symbolic Z-matrix:
 Charge =  0 Multiplicity = 1

 SCF Done:  E(RB3LYP) =  -752.202424332     A.U. after   14 cycles
 SCF Done:  E(RB3LYP) =  -752.208002430     A.U. after   12 cycles
 SCF Done:  E(RB3LYP) =  -752.207899021     A.U. after   12 cycles
 SCF Done:  E(RB3LYP) =  -752.209281672     A.U. after   12 cycles
 SCF Done:  E(RB3LYP) =  -752.209478498     A.U. after   11 cycles
 SCF Done:  E(RB3LYP) =  -752.209525529     A.U. after   10 cycles
 SCF Done:  E(RB3LYP) =  -752.209539645     A.U. after   10 cycles
 SCF Done:  E(RB3LYP) =  -752.209544480     A.U. after   10 cycles
 SCF Done:  E(RB3LYP) =  -752.209545084     A.U. after    8 cycles
 SCF Done:  E(RB3LYP) =  -752.209545215     A.U. after    7 cycles
 SCF Done:  E(RB3LYP) =  -752.209545246     A.U. after    6 cycles
 Optimization completed.
    -- Stationary point found.
 Normal termination of Gaussian 16 at Mon Dec 14 18:54:13 2020.

 --------------------------------------------------------------------
 #N Geom=AllCheck Guess=TCheck SCRF=Check GenChk RB3LYP/6-31G(d) Freq
 --------------------------------------------------------------------

 Structure from the checkpoint file:  "JID_9590.chk"
 ------------------------------
 CID_69608813_JID_9590_neutraal
 ------------------------------
 Charge =  0 Multiplicity = 1

 SCF Done:  E(RB3LYP) =  -752.209545246     A.U. after    1 cycles

  Exact polarizability: 234.694 -18.368 180.241  13.537   6.948 144.269
 Approx polarizability: 336.283 -31.621 285.232  29.622  15.914 236.014

                      1                      2                      3
                      A                      A                      A
 Frequencies --     46.8433                47.5887                60.4065
 Red. masses --      3.9214                 4.4846                 3.5735
 Frc consts  --      0.0051                 0.0060                 0.0077
 IR Inten    --      0.3384                 0.4050                 0.1372

                      4                      5                      6
                      A                      A                      A
 Frequencies --     98.6086               124.5547               155.5341
 Red. masses --      2.4712                 2.3906                 2.4095
 Frc consts  --      0.0142                 0.0219                 0.0343
 IR Inten    --      0.0653                 0.4727                 0.9606

                      7                      8                      9
                      A                      A                      A
 Frequencies --    176.0122               227.9523               241.8174
 Red. masses --      3.6599                 3.3672                 3.3702
 Frc consts  --      0.0668                 0.1031                 0.1161
 IR Inten    --      0.1686                 1.5462                 3.4283

                     10                     11                     12
                      A                      A                      A
 Frequencies --    281.3617               305.8978               310.2272
 Red. masses --      3.7603                 3.5351                 2.6636
 Frc consts  --      0.1754                 0.1949                 0.1510
 IR Inten    --      1.7131                 5.9686                 0.5507

                     13                     14                     15
                      A                      A                      A
 Frequencies --    326.9809               427.7601               429.8886
 Red. masses --      2.5206                 3.7169                 3.2182
 Frc consts  --      0.1588                 0.4007                 0.3504
 IR Inten    --      1.4050                 1.7886                 3.2302

                     16                     17                     18
                      A                      A                      A
 Frequencies --    439.9572               461.8776               485.7360
 Red. masses --      3.3980                 3.1364                 3.9840
 Frc consts  --      0.3875                 0.3942                 0.5538
 IR Inten    --      0.9330                 0.2690                 2.5237

                     19                     20                     21
                      A                      A                      A
 Frequencies --    517.6550               544.1450               560.0145
 Red. masses --      3.6879                 4.0691                 4.3205
 Frc consts  --      0.5822                 0.7099                 0.7983
 IR Inten    --      0.0714                 0.3390                 6.7481

                     22                     23                     24
                      A                      A                      A
 Frequencies --    583.1732               601.6372               620.2923
 Red. masses --      3.0869                 4.5781                 3.3880
 Frc consts  --      0.6185                 0.9764                 0.7680
 IR Inten    --      1.5635                 4.0308                 1.9598

                     25                     26                     27
                      A                      A                      A
 Frequencies --    636.9363               706.2544               730.9863
 Red. masses --      4.6457                 3.3449                 3.2594
 Frc consts  --      1.1104                 0.9830                 1.0262
 IR Inten    --      1.7643                 2.2899                11.4890

                     28                     29                     30
                      A                      A                      A
 Frequencies --    741.7673               757.4367               784.8386
 Red. masses --      2.3717                 1.4373                 4.1324
 Frc consts  --      0.7689                 0.4858                 1.4997
 IR Inten    --      8.3620                45.7192                 4.7115

                     31                     32                     33
                      A                      A                      A
 Frequencies --    799.7160               809.5900               836.1722
 Red. masses --      1.4864                 2.5296                 2.9148
 Frc consts  --      0.5601                 0.9769                 1.2008
 IR Inten    --     13.0659                 2.6452                 2.1839

                     34                     35                     36
                      A                      A                      A
 Frequencies --    852.7467               860.8217               881.2667
 Red. masses --      1.7143                 1.4348                 2.0827
 Frc consts  --      0.7345                 0.6264                 0.9530
 IR Inten    --      3.4788                 1.9831                10.6388

                     37                     38                     39
                      A                      A                      A
 Frequencies --    889.4733               912.3411               921.7755
 Red. masses --      2.5154                 1.3727                 1.3360
 Frc consts  --      1.1725                 0.6732                 0.6688
 IR Inten    --      0.3623                 0.4307                 1.3097

                     40                     41                     42
                      A                      A                      A
 Frequencies --    935.4179               949.6263               961.6349
 Red. masses --      1.4617                 2.9629                 1.2191
 Frc consts  --      0.7536                 1.5742                 0.6642
 IR Inten    --      1.9934                 0.9990                 0.1126

                     43                     44                     45
                      A                      A                      A
 Frequencies --    971.4617               986.2484               998.6328
 Red. masses --      1.2763                 2.5106                 2.4288
 Frc consts  --      0.7097                 1.4388                 1.4271
 IR Inten    --      0.3162                 0.0255                 0.4863

                     46                     47                     48
                      A                      A                      A
 Frequencies --   1046.9340              1055.7790              1081.1490
 Red. masses --      3.5215                 2.1189                 1.9647
 Frc consts  --      2.2742                 1.3916                 1.3530
 IR Inten    --      1.5778                 6.0910                 1.2916

                     49                     50                     51
                      A                      A                      A
 Frequencies --   1087.0099              1107.7020              1114.0599
 Red. masses --      1.8992                 2.4774                 1.8952
 Frc consts  --      1.3222                 1.7910                 1.3858
 IR Inten    --      4.4130                12.2249                 3.0313

                     52                     53                     54
                      A                      A                      A
 Frequencies --   1115.9880              1139.5721              1171.7706
 Red. masses --      1.8940                 2.2843                 1.1702
 Frc consts  --      1.3898                 1.7477                 0.9467
 IR Inten    --      0.5062                11.7734                 1.6004

                     55                     56                     57
                      A                      A                      A
 Frequencies --   1187.9726              1191.3155              1192.9225
 Red. masses --      1.2146                 1.3258                 1.5657
 Frc consts  --      1.0100                 1.1086                 1.3127
 IR Inten    --      2.5205                 0.4826                 0.5472

                     58                     59                     60
                      A                      A                      A
 Frequencies --   1207.2600              1209.1969              1212.4354
 Red. masses --      1.4191                 1.3735                 2.2336
 Frc consts  --      1.2186                 1.1833                 1.9345
 IR Inten    --      1.2576                 3.0287                 0.4667

                     61                     62                     63
                      A                      A                      A
 Frequencies --   1237.5444              1251.5160              1274.2091
 Red. masses --      1.3631                 1.7611                 2.2284
 Frc consts  --      1.2300                 1.6252                 2.1317
 IR Inten    --      1.3134                 1.1602                30.4667

                     64                     65                     66
                      A                      A                      A
 Frequencies --   1294.8190              1305.0012              1313.3984
 Red. masses --      1.2631                 1.6370                 1.3281
 Frc consts  --      1.2477                 1.6425                 1.3498
 IR Inten    --      5.6765                25.5466                 0.7743

                     67                     68                     69
                      A                      A                      A
 Frequencies --   1338.6329              1340.2684              1343.7248
 Red. masses --      2.0772                 2.2179                 2.1380
 Frc consts  --      2.1931                 2.3474                 2.2745
 IR Inten    --     56.2713                13.4663                 6.1557

                     70                     71                     72
                      A                      A                      A
 Frequencies --   1378.3055              1382.1887              1390.7420
 Red. masses --      2.6661                 1.5675                 1.5786
 Frc consts  --      2.9841                 1.7644                 1.7990
 IR Inten    --      9.4561                 7.5998                 8.4836

                     73                     74                     75
                      A                      A                      A
 Frequencies --   1396.5693              1410.6154              1434.6683
 Red. masses --      1.4580                 1.5715                 2.4370
 Frc consts  --      1.6754                 1.8424                 2.9553
 IR Inten    --      4.9507                 6.8792                48.7541

                     76                     77                     78
                      A                      A                      A
 Frequencies --   1489.2171              1507.0100              1509.2259
 Red. masses --      1.9839                 1.4201                 1.4755
 Frc consts  --      2.5923                 1.9002                 1.9801
 IR Inten    --      5.5363                17.0471                16.2698

                     79                     80                     81
                      A                      A                      A
 Frequencies --   1510.8018              1516.1717              1519.4350
 Red. masses --      1.3767                 1.5553                 1.8948
 Frc consts  --      1.8514                 2.1064                 2.5774
 IR Inten    --     26.6748                 0.6305                22.0218

                     82                     83                     84
                      A                      A                      A
 Frequencies --   1522.0165              1532.3254              1537.8529
 Red. masses --      1.1111                 1.1048                 2.2368
 Frc consts  --      1.5166                 1.5284                 3.1168
 IR Inten    --      5.1231                 0.6504               148.4323

                     85                     86                     87
                      A                      A                      A
 Frequencies --   1558.0752              1637.2448              1648.5844
 Red. masses --      1.2243                 6.2975                 6.2746
 Frc consts  --      1.7511                 9.9460                10.0475
 IR Inten    --     26.4918                22.6311                 4.5897

                     88                     89                     90
                      A                      A                      A
 Frequencies --   1654.4777              1669.9858              2997.1797
 Red. masses --      6.2895                 6.4819                 1.0739
 Frc consts  --     10.1435                10.6506                 5.6839
 IR Inten    --     19.6622                68.6977                59.4645

                     91                     92                     93
                      A                      A                      A
 Frequencies --   3015.0594              3030.3641              3036.7570
 Red. masses --      1.0694                 1.0697                 1.0643
 Frc consts  --      5.7275                 5.7877                 5.7828
 IR Inten    --     25.1283                19.6181                19.7323

                     94                     95                     96
                      A                      A                      A
 Frequencies --   3040.0062              3042.1637              3066.7710
 Red. masses --      1.0684                 1.0650                 1.0920
 Frc consts  --      5.8176                 5.8072                 6.0511
 IR Inten    --     36.0477                18.7204                39.9905

                     97                     98                     99
                      A                      A                      A
 Frequencies --   3084.8723              3086.0980              3092.6744
 Red. masses --      1.0963                 1.0992                 1.0963
 Frc consts  --      6.1470                 6.1682                 6.1779
 IR Inten    --     67.3853                44.4746                29.7236

                    100                    101                    102
                      A                      A                      A
 Frequencies --   3094.2999              3102.4176              3172.9905
 Red. masses --      1.0900                 1.0978                 1.0875
 Frc consts  --      6.1488                 6.2253                 6.4510
 IR Inten    --     31.3491                30.6906                11.0602

                    103                    104                    105
                      A                      A                      A
 Frequencies --   3177.5269              3185.1245              3195.1436
 Red. masses --      1.0866                 1.0887                 1.0902
 Frc consts  --      6.4637                 6.5072                 6.5574
 IR Inten    --     10.0631                16.3042                23.7161

                    106                    107                    108
                      A                      A                      A
 Frequencies --   3203.6477              3211.2147              3212.1195
 Red. masses --      1.0919                 1.0963                 1.0959
 Frc consts  --      6.6026                 6.6607                 6.6617
 IR Inten    --     33.3639                18.2160                18.9014

 - Thermochemistry -
 -------------------
 Temperature   298.150 Kelvin.  Pressure   1.00000 Atm.
 Atom     1 has atomic number  6 and mass  12.00000

 Molecular mass:   249.15175 amu.
 Principal axes and moments of inertia in atomic units:
                           1         2         3
     Eigenvalues --  2752.283046446.461097456.69257
           X            0.99990   0.01381   0.00421
           Y           -0.01383   0.99989   0.00498
           Z           -0.00414  -0.00504   0.99998
 This molecule is an asymmetric top.
 Rotational symmetry number  1.
 Warning -- assumption of classical behavior for rotation
           may cause significant error
 Rotational temperatures (Kelvin)      0.03147     0.01344     0.01162
 Rotational constants (GHZ):           0.65573     0.27996     0.24203
 Zero-point vibrational energy     861749.1 (Joules/Mol)
                                  205.96297 (Kcal/Mol)
 Warning -- explicit consideration of  24 degrees of freedom as
           vibrations may cause significant error
 Vibrational temperatures:     67.40    68.47    86.91   141.88   179.21
          (Kelvin)            223.78   253.24   327.97   347.92   404.82
                              440.12   446.35   470.45   615.45   618.51
                              633.00   664.54   698.87   744.79   782.90
                              805.74   839.06   865.62   892.46   916.41
                             1016.14  1051.73  1067.24  1089.78  1129.21
                             1150.61  1164.82  1203.07  1226.91  1238.53
                             1267.95  1279.75  1312.66  1326.23  1345.86
                             1366.30  1383.58  1397.72  1418.99  1436.81
                             1506.30  1519.03  1555.53  1563.96  1593.74
                             1602.88  1605.66  1639.59  1685.92  1709.23
                             1714.04  1716.35  1736.98  1739.76  1744.42
                             1780.55  1800.65  1833.30  1862.96  1877.61
                             1889.69  1925.99  1928.35  1933.32  1983.07
                             1988.66  2000.97  2009.35  2029.56  2064.17
                             2142.65  2168.25  2171.44  2173.71  2181.43
                             2186.13  2189.84  2204.67  2212.63  2241.72
                             2355.63  2371.95  2380.42  2402.74  4312.27
                             4338.00  4360.02  4369.22  4373.89  4377.00
                             4412.40  4438.44  4440.21  4449.67  4452.01
                             4463.69  4565.23  4571.75  4582.68  4597.10
                             4609.33  4620.22  4621.52

 Zero-point correction=                           0.328223 (Hartree/Particle)
 Thermal correction to Energy=                    0.343237
 Thermal correction to Enthalpy=                  0.344181
 Thermal correction to Gibbs Free Energy=         0.285808
 Sum of electronic and zero-point Energies=           -751.881322
 Sum of electronic and thermal Energies=              -751.866308
 Sum of electronic and thermal Enthalpies=            -751.865364
 Sum of electronic and thermal Free Energies=         -751.923737

                     E (Thermal)             CV                S
                      KCal/Mol        Cal/Mol-Kelvin    Cal/Mol-Kelvin
 Total                  215.384             61.925            122.856
 Electronic               0.000              0.000              0.000
 Translational            0.889              2.981             42.439
 Rotational               0.889              2.981             33.247
 Vibrational            213.607             55.964             47.170
 Vibration     1          0.595              1.979              4.946
 Vibration     2          0.595              1.978              4.915
 Vibration     3          0.597              1.973              4.444
 Vibration     4          0.604              1.950              3.482
 Vibration     5          0.610              1.928              3.028
 Vibration     6          0.620              1.896              2.603
 Vibration     7          0.628              1.872              2.370
 Vibration     8          0.651              1.798              1.895
 Vibration     9          0.658              1.776              1.789
 Vibration    10          0.681              1.708              1.525
 Vibration    11          0.696              1.663              1.384
 Vibration    12          0.699              1.654              1.361
 Vibration    13          0.711              1.622              1.275
 Vibration    14          0.789              1.410              0.866
 Vibration    15          0.791              1.405              0.859
 Vibration    16          0.800              1.383              0.827
 Vibration    17          0.820              1.335              0.761
 Vibration    18          0.842              1.282              0.695
 Vibration    19          0.873              1.211              0.615
 Vibration    20          0.899              1.153              0.556
 Vibration    21          0.916              1.118              0.524
 Vibration    22          0.940              1.068              0.480
 Vibration    23          0.960              1.028              0.447
 Vibration    24          0.980              0.989              0.416

 Optimization completed.
    -- Stationary point found.
 Normal termination of Gaussian 16 at Mon Dec 14 19:17:38 2020.

 ----------------------------------------------------------------------
 # B3LYP/6-311++G(d,p) empiricaldispersion=gd3bj scf=xqc pop=npa geom=c
 heck
 ----------------------------------------------------------------------

 --------------------------------------
 CID_69608813_JID_9590_Energie_neutraal
 --------------------------------------
 Structure from the checkpoint file:  "JID_9590.chk"
 Charge =  0 Multiplicity = 1

 SCF Done:  E(RB3LYP) =  -752.395081933     A.U. after   15 cycles
 Normal termination of Gaussian 16 at Mon Dec 14 19:27:52 2020.

 ----------------------------------------------------------------------
 # B3LYP/6-311++G(d,p) empiricaldispersion=gd3bj scf=xqc pop=npa geom=c
 heck
 ----------------------------------------------------------------------

 ------------------------------------
 CID_69608813_JID_9590_Energie_kation
 ------------------------------------
 Structure from the checkpoint file:  "JID_9590.chk"
 Charge =  1 Multiplicity = 2

 SCF Done:  E(UB3LYP) =  -752.145051248     A.U. after   21 cycles
 Normal termination of Gaussian 16 at Mon Dec 14 19:48:28 2020.
 Gaussian 16:  ES64L-G16RevA.03 25-Dec-2016

 ----------------------------------------------------------------------
 # B3LYP/6-311++G(d,p) empiricaldispersion=gd3bj scf=xqc pop=npa geom=c
 heck
 ----------------------------------------------------------------------

 -----------------------------------
 CID_69608813_JID_9590_Energie_anion
 -----------------------------------
 Structure from the checkpoint file:  "JID_9590.chk"
 Charge = -1 Multiplicity = 2

                         Standard orientation:
 ---------------------------------------------------------------------
 Center     Atomic      Atomic             Coordinates (Angstroms)
 Number     Number       Type             X           Y           Z
 ---------------------------------------------------------------------
      1          6           0       -2.972466   -2.393135    0.287674
      2          6           0       -1.856985   -2.177507    1.311533
      3          6           0       -0.797177   -1.230832    0.741866
      4          6           0       -1.384984    0.025602    0.127093
      5          6           0       -2.745858    0.094567   -0.223702
      6          6           0       -3.691257   -1.068606    0.021625
      7          6           0       -3.260917    1.273213   -0.777657
      8          6           0       -2.453331    2.385228   -0.990673
      9          6           0       -1.101461    2.319864   -0.661219
     10          6           0       -0.567492    1.152171   -0.114545
     11          7           0        0.818328    1.154744    0.218411
     12          6           0        1.243880    1.558983    1.572061
     13          6           0        2.751257    1.206521    1.617861
     14          6           0        2.899986    0.208143    0.488355
     15          6           0        3.956960   -0.613949    0.134386
     16          6           0        3.857808   -1.407135   -1.019218
     17          6           0        2.705952   -1.349252   -1.805334
     18          6           0        1.632078   -0.519318   -1.463743
     19          6           0        1.739821    0.250174   -0.304540
     20          1           0       -2.536566   -2.775027   -0.645900
     21          1           0       -3.690656   -3.144421    0.635960
     22          1           0       -2.285795   -1.752392    2.229956
     23          1           0       -1.387627   -3.128271    1.589025
     24          1           0       -0.070941   -0.962284    1.516218
     25          1           0       -0.214295   -1.763387   -0.021704
     26          1           0       -4.376121   -1.165249   -0.830048
     27          1           0       -4.323928   -0.828239    0.889394
     28          1           0       -4.315437    1.311269   -1.042165
     29          1           0       -2.868787    3.290884   -1.423278
     30          1           0       -0.436772    3.160709   -0.833414
     31          1           0        1.044120    2.622224    1.733969
     32          1           0        0.682003    0.994643    2.332844
     33          1           0        3.049115    0.812263    2.594609
     34          1           0        3.363363    2.097920    1.426424
     35          1           0        4.855407   -0.646701    0.746310
     36          1           0        4.677433   -2.061291   -1.300434
     37          1           0        2.635031   -1.960808   -2.700986
     38          1           0        0.737277   -0.473443   -2.076603
 ---------------------------------------------------------------------

 SCF Done:  E(UB3LYP) =  -752.380479754     A.U. after   33 cycles
 SCF Done:  E(UB3LYP) =  -752.380479753     a.u. after    1 cycles

 The electronic state is 2-A.
 Alpha  occ. eigenvalues --  -14.23552 -10.11479 -10.11418 -10.11350 -10.08896
 Alpha  occ. eigenvalues --  -10.08782 -10.08763 -10.08130 -10.08123 -10.08108
 Alpha  occ. eigenvalues --  -10.08052 -10.07868 -10.07849 -10.07718 -10.07455
 Alpha  occ. eigenvalues --  -10.07419 -10.07333 -10.07152 -10.07073  -0.87255
 Alpha  occ. eigenvalues --   -0.77629  -0.75115  -0.72092  -0.70056  -0.66796
 Alpha  occ. eigenvalues --   -0.64968  -0.64682  -0.63289  -0.61289  -0.54383
 Alpha  occ. eigenvalues --   -0.53532  -0.52889  -0.52007  -0.49599  -0.47695
 Alpha  occ. eigenvalues --   -0.45700  -0.43394  -0.39968  -0.39560  -0.38521
 Alpha  occ. eigenvalues --   -0.38058  -0.37584  -0.36997  -0.34453  -0.34031
 Alpha  occ. eigenvalues --   -0.33730  -0.33444  -0.31959  -0.31038  -0.29919
 Alpha  occ. eigenvalues --   -0.29595  -0.29304  -0.28841  -0.28374  -0.27179
 Alpha  occ. eigenvalues --   -0.26867  -0.26433  -0.24944  -0.24611  -0.24020
 Alpha  occ. eigenvalues --   -0.22524  -0.22202  -0.20151  -0.15755  -0.15641
 Alpha  occ. eigenvalues --   -0.14947  -0.10108   0.04184
 Alpha virt. eigenvalues --    0.05857   0.06293   0.06636   0.07176   0.07246
 Alpha virt. eigenvalues --    0.07683   0.08037   0.08280   0.08489   0.08671
 Alpha virt. eigenvalues --    0.09461   0.09791   0.10034   0.10096   0.10681

  Beta  occ. eigenvalues --  -14.23552 -10.11480 -10.11415 -10.11331 -10.08883
  Beta  occ. eigenvalues --  -10.08778 -10.08742 -10.08121 -10.08112 -10.08095
  Beta  occ. eigenvalues --  -10.08046 -10.07861 -10.07837 -10.07699 -10.07448
  Beta  occ. eigenvalues --  -10.07411 -10.07331 -10.07132 -10.07052  -0.87246
  Beta  occ. eigenvalues --   -0.77607  -0.75098  -0.72065  -0.70032  -0.66770
  Beta  occ. eigenvalues --   -0.64934  -0.64656  -0.63259  -0.61261  -0.54347
  Beta  occ. eigenvalues --   -0.53498  -0.52848  -0.51963  -0.49573  -0.47669
  Beta  occ. eigenvalues --   -0.45650  -0.43363  -0.39943  -0.39526  -0.38490
  Beta  occ. eigenvalues --   -0.38033  -0.37554  -0.36971  -0.34431  -0.33995
  Beta  occ. eigenvalues --   -0.33706  -0.33418  -0.31932  -0.31003  -0.29887
  Beta  occ. eigenvalues --   -0.29566  -0.29278  -0.28805  -0.28346  -0.27152
  Beta  occ. eigenvalues --   -0.26836  -0.26412  -0.24914  -0.24590  -0.23981
  Beta  occ. eigenvalues --   -0.22489  -0.22173  -0.20131  -0.15712  -0.15617
  Beta  occ. eigenvalues --   -0.14902  -0.10089
  Beta virt. eigenvalues --    0.06049   0.06571   0.06876   0.07029   0.07340
  Beta virt. eigenvalues --    0.07449   0.08055   0.08231   0.08629   0.08852
  Beta virt. eigenvalues --    0.09112   0.09562   0.10101   0.10286   0.10468

 Mulliken charges and spin densities:
               1          2
     1  C   -0.714748   0.350984
     2  C    0.120555  -0.673204
     3  C    0.148119  -0.379487
     4  C   -0.229015   0.128068
     5  C   -0.715722   0.855200
     6  C    1.421045  -1.854440
     7  C   -0.021337  -0.118325
     8  C    1.171463  -1.478604
     9  C   -0.522142   0.823218
    10  C   -1.753852   1.026295
    11  N    0.655795  -0.197462
    12  C    0.077047  -0.254388
    13  C    2.116925  -2.633243
    14  C   -0.742758   1.006199
    15  C   -0.441053   0.102706
    16  C    0.274394  -0.685789
    17  C    0.417318  -0.628179
    18  C   -0.638324   0.620335
    19  C    0.251728   0.053569
    20  H   -0.003046   0.136037
    21  H   -0.346566   0.531603
    22  H   -0.089337   0.230481
    23  H   -0.301317   0.481312
    24  H    0.384326  -0.215626
    25  H    0.358974  -0.201554
    26  H   -0.042854   0.192127
    27  H   -0.084116   0.270157
    28  H   -0.297828   0.458485
    29  H   -0.238060   0.398967
    30  H   -0.300344   0.457932
    31  H   -0.275551   0.454735
    32  H   -0.116917   0.235297
    33  H   -0.133651   0.311453
    34  H   -0.089575   0.259309
    35  H   -0.295989   0.462991
    36  H   -0.009491   0.146351
    37  H   -0.056443   0.218384
    38  H    0.062347   0.108107
 Sum of Mulliken charges =  -1.00000   1.00000

 Dipole moment (field-independent basis, Debye):
    X=              1.7690    Y=             -0.0534    Z=             -1.5938  Tot=              2.3817
 Quadrupole moment (field-independent basis, Debye-Ang):
   XX=           -195.2543   YY=           -169.1353   ZZ=           -151.9943
   XY=             -7.5699   XZ=             -0.5789   YZ=              2.4432

 Summary of Natural Population Analysis:

                                       Natural Population
                Natural  -----------------------------------------------
    Atom  No    Charge         Core      Valence    Rydberg      Total
 -----------------------------------------------------------------------
      C    1   -0.18786      0.99963     2.18015    0.00808     3.18786
      C    2   -0.18565      0.99963     2.17792    0.00810     3.18565
      C    3   -0.20309      0.99960     2.19458    0.00891     3.20309
      C    4   -0.01116      0.99943     2.00288    0.00885     3.01116
      C    5   -0.01143      0.99948     2.00239    0.00957     3.01143
      C    6   -0.19539      0.99960     2.18699    0.00880     3.19539
      C    7   -0.09661      0.99952     2.08790    0.00920     3.09661
      C    8   -0.09994      0.99956     2.09078    0.00961     3.09994
      C    9   -0.09755      0.99951     2.08828    0.00976     3.09755
      C   10    0.07911      0.99943     1.90864    0.01283     2.92089
      N   11   -0.25830      0.99962     2.74525    0.01343     3.75830
      C   12   -0.06928      0.99962     2.06030    0.00936     3.06928
      C   13   -0.19883      0.99961     2.19112    0.00810     3.19883
      C   14   -0.03385      0.99947     2.02334    0.01104     3.03385
      C   15   -0.09355      0.99951     2.08522    0.00883     3.09355
      C   16   -0.12616      0.99957     2.11619    0.01040     3.12616
      C   17   -0.09421      0.99957     2.08514    0.00949     3.09421
      C   18   -0.13196      0.99952     2.12435    0.00809     3.13196
      C   19    0.10284      0.99943     1.88637    0.01135     2.89716
      H   20    0.09317      0.00000     0.40543    0.00140     0.40683
      H   21    0.10078      0.00000     0.39782    0.00140     0.39922
      H   22    0.09429      0.00000     0.40428    0.00144     0.40571
      H   23    0.10049      0.00000     0.39848    0.00103     0.39951
      H   24    0.10570      0.00000     0.39268    0.00162     0.39430
      H   25    0.10878      0.00000     0.38960    0.00162     0.39122
      H   26    0.10328      0.00000     0.39556    0.00116     0.39672
      H   27    0.10276      0.00000     0.39579    0.00145     0.39724
      H   28    0.09904      0.00000     0.39956    0.00140     0.40096
      H   29    0.10061      0.00000     0.39842    0.00096     0.39939
      H   30    0.10523      0.00000     0.39357    0.00120     0.39477
      H   31    0.09820      0.00000     0.40027    0.00154     0.40180
      H   32    0.08704      0.00000     0.41149    0.00147     0.41296
      H   33    0.10626      0.00000     0.39266    0.00108     0.39374
      H   34    0.10399      0.00000     0.39452    0.00148     0.39601
      H   35    0.09971      0.00000     0.39934    0.00095     0.40029
      H   36    0.09812      0.00000     0.40110    0.00078     0.40188
      H   37    0.09838      0.00000     0.40080    0.00082     0.40162
      H   38    0.10704      0.00000     0.39164    0.00133     0.39296
 =======================================================================
   * Total *    0.00000     18.99131    47.80078    0.20791    67.00000

 Normal termination of Gaussian 16 at Mon Dec 14 20:20:56 2020.
