 Gaussian 16, Revision A.03,

 -----------------------------------------------------------
 # opt freq B3LYP/6-31G(d) empiricaldispersion=gd3bj scf=xqc
 -----------------------------------------------------------

 -------------------------------
 CID_80457726_JID_10019_neutraal
 -------------------------------
 Symbolic Z-matrix:
 Charge =  0 Multiplicity = 1

 SCF Done:  E(RB3LYP) =  -1277.78782227     A.U. after   15 cycles
 SCF Done:  E(RB3LYP) =  -1277.79687070     A.U. after   12 cycles
 SCF Done:  E(RB3LYP) =  -1277.79802957     A.U. after   13 cycles
 SCF Done:  E(RB3LYP) =  -1277.79826739     A.U. after   12 cycles
 SCF Done:  E(RB3LYP) =  -1277.79808491     A.U. after   12 cycles
 SCF Done:  E(RB3LYP) =  -1277.79861510     A.U. after   12 cycles
 SCF Done:  E(RB3LYP) =  -1277.79866707     A.U. after   11 cycles
 SCF Done:  E(RB3LYP) =  -1277.79868186     A.U. after   10 cycles
 SCF Done:  E(RB3LYP) =  -1277.79868424     A.U. after    9 cycles
 SCF Done:  E(RB3LYP) =  -1277.79868515     A.U. after    8 cycles
 SCF Done:  E(RB3LYP) =  -1277.79868557     A.U. after    8 cycles
 SCF Done:  E(RB3LYP) =  -1277.79868565     A.U. after    7 cycles
 SCF Done:  E(RB3LYP) =  -1277.79868574     A.U. after    6 cycles
 Optimization completed.
    -- Stationary point found.
 Normal termination of Gaussian 16 at Sat Dec 12 14:56:32 2020.

 --------------------------------------------------------------------
 #N Geom=AllCheck Guess=TCheck SCRF=Check GenChk RB3LYP/6-31G(d) Freq
 --------------------------------------------------------------------

 Structure from the checkpoint file:  "JID_10019.chk"
 -------------------------------
 CID_80457726_JID_10019_neutraal
 -------------------------------
 Charge =  0 Multiplicity = 1

 SCF Done:  E(RB3LYP) =  -1277.79868574     A.U. after    1 cycles

  Exact polarizability: 278.701 -18.216 180.309 -12.185   5.578 121.632
 Approx polarizability: 409.261 -38.672 294.902 -31.120  14.504 180.082

                      1                      2                      3
                      A                      A                      A
 Frequencies --     27.3577                48.1886                53.5691
 Red. masses --      4.2398                 4.1092                 4.9684
 Frc consts  --      0.0019                 0.0056                 0.0084
 IR Inten    --      1.8197                 1.7900                 1.1348

                      4                      5                      6
                      A                      A                      A
 Frequencies --     73.4881                77.6059                97.1374
 Red. masses --      3.4586                 2.8553                 4.2738
 Frc consts  --      0.0110                 0.0101                 0.0238
 IR Inten    --      1.9292                 1.8496                 0.2423

                      7                      8                      9
                      A                      A                      A
 Frequencies --    105.8942               123.6051               145.0819
 Red. masses --      6.3201                 3.5716                 1.3454
 Frc consts  --      0.0418                 0.0322                 0.0167
 IR Inten    --      2.8601                 0.4806                 0.0904

                     10                     11                     12
                      A                      A                      A
 Frequencies --    168.5749               175.3125               184.1115
 Red. masses --      3.0146                 4.0974                 6.2853
 Frc consts  --      0.0505                 0.0742                 0.1255
 IR Inten    --      0.1772                 0.3240                 0.4906

                     13                     14                     15
                      A                      A                      A
 Frequencies --    213.7817               225.4826               248.2549
 Red. masses --      4.2270                 1.0457                 2.5679
 Frc consts  --      0.1138                 0.0313                 0.0932
 IR Inten    --      0.3131                 0.0693                 1.4772

                     16                     17                     18
                      A                      A                      A
 Frequencies --    251.8883               267.6827               276.3236
 Red. masses --      1.3995                 1.2336                 4.0335
 Frc consts  --      0.0523                 0.0521                 0.1815
 IR Inten    --      0.6114                 0.3785                10.7262

                     19                     20                     21
                      A                      A                      A
 Frequencies --    318.1910               328.5815               359.1310
 Red. masses --      3.8660                 3.9266                 6.1028
 Frc consts  --      0.2306                 0.2498                 0.4638
 IR Inten    --      5.5916                 0.9198                15.5817

                     22                     23                     24
                      A                      A                      A
 Frequencies --    369.4887               377.6489               403.8630
 Red. masses --      2.9529                 6.3688                 4.6502
 Frc consts  --      0.2375                 0.5352                 0.4469
 IR Inten    --      2.1267                 0.2847                 4.8538

                     25                     26                     27
                      A                      A                      A
 Frequencies --    414.4198               440.2653               482.4149
 Red. masses --      3.4286                 3.0593                 4.1370
 Frc consts  --      0.3469                 0.3494                 0.5673
 IR Inten    --      2.2579                 0.8295                 6.8753

                     28                     29                     30
                      A                      A                      A
 Frequencies --    496.9854               501.4307               521.8425
 Red. masses --      3.9410                 1.2872                 4.5233
 Frc consts  --      0.5735                 0.1907                 0.7257
 IR Inten    --     19.1297                73.3042                 9.1086

                     31                     32                     33
                      A                      A                      A
 Frequencies --    594.9106               621.7476               627.8253
 Red. masses --      4.4761                 5.2166                 3.0942
 Frc consts  --      0.9334                 1.1881                 0.7186
 IR Inten    --     25.1409                19.0024                 5.6400

                     34                     35                     36
                      A                      A                      A
 Frequencies --    668.8053               678.7018               731.2006
 Red. masses --      6.6211                 8.1700                 4.6691
 Frc consts  --      1.7449                 2.2173                 1.4708
 IR Inten    --     12.3470                 1.0498                 1.8912

                     37                     38                     39
                      A                      A                      A
 Frequencies --    755.8675               797.8355               806.2027
 Red. masses --      5.9430                 1.5077                 5.9494
 Frc consts  --      2.0005                 0.5654                 2.2783
 IR Inten    --     17.4218                25.0879                11.4078

                     40                     41                     42
                      A                      A                      A
 Frequencies --    829.4937               839.1549               867.8548
 Red. masses --      3.7258                 1.5321                 4.0384
 Frc consts  --      1.5104                 0.6357                 1.7921
 IR Inten    --      6.4742                27.8070                12.9937

                     43                     44                     45
                      A                      A                      A
 Frequencies --    886.6631               902.7222               907.7706
 Red. masses --      3.1828                 1.2751                 3.6079
 Frc consts  --      1.4743                 0.6122                 1.7517
 IR Inten    --      2.8262                 0.0892                13.8309

                     46                     47                     48
                      A                      A                      A
 Frequencies --    951.9086               980.1712               987.3307
 Red. masses --      1.1853                 1.8149                 1.9690
 Frc consts  --      0.6328                 1.0273                 1.1309
 IR Inten    --      4.3536                 0.8520                 2.6909

                     49                     50                     51
                      A                      A                      A
 Frequencies --    998.6128              1045.8986              1077.9091
 Red. masses --      2.8728                 6.4820                 3.1114
 Frc consts  --      1.6879                 4.1777                 2.1300
 IR Inten    --      5.6782                66.4584                57.1676

                     52                     53                     54
                      A                      A                      A
 Frequencies --   1136.8542              1161.7052              1167.6477
 Red. masses --      2.7381                 1.7216                 2.3985
 Frc consts  --      2.0850                 1.3689                 1.9267
 IR Inten    --     22.0513                13.0005                10.1531

                     55                     56                     57
                      A                      A                      A
 Frequencies --   1175.3698              1186.5457              1187.1397
 Red. masses --      2.3192                 1.2696                 1.2787
 Frc consts  --      1.8877                 1.0532                 1.0618
 IR Inten    --      2.1932                 0.8351                 0.5258

                     58                     59                     60
                      A                      A                      A
 Frequencies --   1206.2268              1217.3854              1221.6311
 Red. masses --      1.7604                 1.5930                 1.5256
 Frc consts  --      1.5091                 1.3910                 1.3414
 IR Inten    --     22.1690                99.9910                11.7812

                     61                     62                     63
                      A                      A                      A
 Frequencies --   1226.1137              1230.6851              1263.2799
 Red. masses --      1.7246                 2.3690                 2.7469
 Frc consts  --      1.5275                 2.1140                 2.5828
 IR Inten    --     51.3156                76.5790               229.3931

                     64                     65                     66
                      A                      A                      A
 Frequencies --   1285.2220              1300.0425              1319.4584
 Red. masses --      1.7486                 2.6968                 5.3074
 Frc consts  --      1.7017                 2.6855                 5.4441
 IR Inten    --    119.7789               194.3461                 0.5313

                     67                     68                     69
                      A                      A                      A
 Frequencies --   1330.2105              1363.8422              1382.9407
 Red. masses --      1.9260                 1.4968                 1.9577
 Frc consts  --      2.0079                 1.6403                 2.2060
 IR Inten    --     10.2410                39.7438               147.9218

                     70                     71                     72
                      A                      A                      A
 Frequencies --   1397.9044              1404.7146              1429.1759
 Red. masses --      1.6451                 5.6339                 1.2899
 Frc consts  --      1.8941                 6.5499                 1.5523
 IR Inten    --     28.3258               135.9909                 7.7758

                     73                     74                     75
                      A                      A                      A
 Frequencies --   1431.4973              1450.4616              1490.6402
 Red. masses --      2.0808                 1.2353                 1.2134
 Frc consts  --      2.5123                 1.5312                 1.5886
 IR Inten    --    165.0578                 9.9349                10.9381

                     76                     77                     78
                      A                      A                      A
 Frequencies --   1498.1348              1506.6485              1512.0921
 Red. masses --      1.2934                 3.4447                 1.0633
 Frc consts  --      1.7103                 4.6070                 1.4324
 IR Inten    --      2.8447               339.9042                 5.7960

                     79                     80                     81
                      A                      A                      A
 Frequencies --   1517.2081              1519.5895              1521.0658
 Red. masses --      1.0845                 2.3985                 1.0482
 Frc consts  --      1.4709                 3.2632                 1.4289
 IR Inten    --      3.4032                71.2595                 5.7723

                     82                     83                     84
                      A                      A                      A
 Frequencies --   1523.3163              1528.9300              1532.7064
 Red. masses --      1.0756                 1.0598                 1.0739
 Frc consts  --      1.4705                 1.4596                 1.4864
 IR Inten    --     29.7260                15.6956                 6.6544

                     85                     86                     87
                      A                      A                      A
 Frequencies --   1534.8967              1547.4890              1549.8476
 Red. masses --      1.2041                 1.0479                 2.2432
 Frc consts  --      1.6713                 1.4786                 3.1747
 IR Inten    --     61.0933                18.4838                69.1724

                     88                     89                     90
                      A                      A                      A
 Frequencies --   1664.9813              1694.1505              1829.7954
 Red. masses --      6.9422                 7.3988                11.7864
 Frc consts  --     11.3388                12.5116                23.2507
 IR Inten    --     77.2711                51.1153               186.3704

                     91                     92                     93
                      A                      A                      A
 Frequencies --   3025.6175              3040.0580              3048.4078
 Red. masses --      1.0349                 1.0440                 1.0405
 Frc consts  --      5.5817                 5.6846                 5.6970
 IR Inten    --     69.7620                22.6882                25.0355

                     94                     95                     96
                      A                      A                      A
 Frequencies --   3073.8397              3080.1778              3084.3696
 Red. masses --      1.0815                 1.0290                 1.1067
 Frc consts  --      6.0204                 5.7519                 6.2031
 IR Inten    --      5.9845                34.9826                42.7798

                     97                     98                     99
                      A                      A                      A
 Frequencies --   3101.3382              3107.6668              3124.7732
 Red. masses --      1.0878                 1.0977                 1.0932
 Frc consts  --      6.1647                 6.2458                 6.2892
 IR Inten    --     20.5149                 1.7639                40.7080

                    100                    101                    102
                      A                      A                      A
 Frequencies --   3138.4333              3150.0882              3159.2401
 Red. masses --      1.1005                 1.0990                 1.1078
 Frc consts  --      6.3863                 6.4253                 6.5147
 IR Inten    --     23.5682                17.4359                12.5616

                    103                    104                    105
                      A                      A                      A
 Frequencies --   3161.0066              3188.1523              3209.7790
 Red. masses --      1.0996                 1.1077                 1.0903
 Frc consts  --      6.4735                 6.6334                 6.6180
 IR Inten    --     26.9270                16.1783                 8.0938

                    106                    107                    108
                      A                      A                      A
 Frequencies --   3233.3720              3241.9543              3671.1032
 Red. masses --      1.0911                 1.0912                 1.0804
 Frc consts  --      6.7212                 6.7575                 8.5790
 IR Inten    --      1.6896                 8.6080                79.4296

 - Thermochemistry -
 -------------------
 Temperature   298.150 Kelvin.  Pressure   1.00000 Atm.
 Atom     1 has atomic number  6 and mass  12.00000

 Molecular mass:   294.10381 amu.
 Principal axes and moments of inertia in atomic units:
                           1         2         3
     Eigenvalues --  3506.438079087.64335**********
           X            0.99991   0.01340  -0.00212
           Y           -0.01348   0.99890  -0.04487
           Z            0.00151   0.04489   0.99899
 This molecule is an asymmetric top.
 Rotational symmetry number  1.
 Warning -- assumption of classical behavior for rotation
           may cause significant error
 Rotational temperatures (Kelvin)      0.02470     0.00953     0.00854
 Rotational constants (GHZ):           0.51469     0.19859     0.17799
 Zero-point vibrational energy     817187.7 (Joules/Mol)
                                  195.31255 (Kcal/Mol)
 Warning -- explicit consideration of  31 degrees of freedom as
           vibrations may cause significant error
 Vibrational temperatures:     39.36    69.33    77.07   105.73   111.66
          (Kelvin)            139.76   152.36   177.84   208.74   242.54
                              252.24   264.90   307.58   324.42   357.18
                              362.41   385.14   397.57   457.81   472.76
                              516.71   531.61   543.35   581.07   596.26
                              633.44   694.09   715.05   721.45   750.81
                              855.94   894.56   903.30   962.26   976.50
                             1052.03  1087.52  1147.91  1159.95  1193.46
                             1207.36  1248.65  1275.71  1298.82  1306.08
                             1369.58  1410.25  1420.55  1436.78  1504.81
                             1550.87  1635.68  1671.43  1679.98  1691.09
                             1707.17  1708.03  1735.49  1751.55  1757.65
                             1764.10  1770.68  1817.58  1849.15  1870.47
                             1898.41  1913.88  1962.26  1989.74  2011.27
                             2021.07  2056.27  2059.61  2086.89  2144.70
                             2155.48  2167.73  2175.56  2182.92  2186.35
                             2188.47  2191.71  2199.79  2205.22  2208.37
                             2226.49  2229.89  2395.54  2437.50  2632.67
                             4353.19  4373.97  4385.98  4422.57  4431.69
                             4437.72  4462.13  4471.24  4495.85  4515.51
                             4532.27  4545.44  4547.98  4587.04  4618.16
                             4652.10  4664.45  5281.90

 Zero-point correction=                           0.311250 (Hartree/Particle)
 Thermal correction to Energy=                    0.331318
 Thermal correction to Enthalpy=                  0.332262
 Thermal correction to Gibbs Free Energy=         0.262236
 Sum of electronic and zero-point Energies=          -1277.487435
 Sum of electronic and thermal Energies=             -1277.467368
 Sum of electronic and thermal Enthalpies=           -1277.466424
 Sum of electronic and thermal Free Energies=        -1277.536450

                     E (Thermal)             CV                S
                      KCal/Mol        Cal/Mol-Kelvin    Cal/Mol-Kelvin
 Total                  207.905             74.737            147.383
 Electronic               0.000              0.000              0.000
 Translational            0.889              2.981             42.934
 Rotational               0.889              2.981             34.135
 Vibrational            206.128             68.776             70.315
 Vibration     1          0.593              1.984              6.012
 Vibration     2          0.595              1.978              4.890
 Vibration     3          0.596              1.976              4.681
 Vibration     4          0.599              1.967              4.058
 Vibration     5          0.599              1.964              3.951
 Vibration     6          0.603              1.951              3.511
 Vibration     7          0.605              1.945              3.343
 Vibration     8          0.610              1.929              3.043
 Vibration     9          0.616              1.908              2.736
 Vibration    10          0.625              1.881              2.451
 Vibration    11          0.627              1.873              2.378
 Vibration    12          0.631              1.861              2.286
 Vibration    13          0.644              1.820              2.011
 Vibration    14          0.650              1.802              1.915
 Vibration    15          0.662              1.766              1.743
 Vibration    16          0.664              1.760              1.717
 Vibration    17          0.673              1.732              1.611
 Vibration    18          0.678              1.717              1.556
 Vibration    19          0.705              1.639              1.319
 Vibration    20          0.712              1.618              1.267
 Vibration    21          0.734              1.556              1.126
 Vibration    22          0.742              1.535              1.082
 Vibration    23          0.748              1.518              1.049
 Vibration    24          0.769              1.462              0.949
 Vibration    25          0.778              1.439              0.911
 Vibration    26          0.800              1.382              0.826
 Vibration    27          0.839              1.289              0.704
 Vibration    28          0.853              1.257              0.666
 Vibration    29          0.857              1.247              0.655
 Vibration    30          0.877              1.202              0.606
 Vibration    31          0.953              1.043              0.458

                           ! Non-Optimized Parameters !
 Normal termination of Gaussian 16 at Sat Dec 12 15:16:49 2020.

 ----------------------------------------------------------------------
 # B3LYP/6-311++G(d,p) empiricaldispersion=gd3bj scf=xqc pop=npa geom=c
 heck
 ----------------------------------------------------------------------

 ---------------------------------------
 CID_80457726_JID_10019_Energie_neutraal
 ---------------------------------------
 Structure from the checkpoint file:  "JID_10019.chk"
 Charge =  0 Multiplicity = 1

 SCF Done:  E(RB3LYP) =  -1278.06777594     A.U. after   17 cycles
 Normal termination of Gaussian 16 at Sat Dec 12 15:25:21 2020.

 ----------------------------------------------------------------------
 # B3LYP/6-311++G(d,p) empiricaldispersion=gd3bj scf=xqc pop=npa geom=c
 heck
 ----------------------------------------------------------------------

 -------------------------------------
 CID_80457726_JID_10019_Energie_kation
 -------------------------------------
 Structure from the checkpoint file:  "JID_10019.chk"
 Charge =  1 Multiplicity = 2

 SCF Done:  E(UB3LYP) =  -1277.80587212     A.U. after   26 cycles
 Normal termination of Gaussian 16 at Sat Dec 12 15:43:10 2020.
 Gaussian 16:  ES64L-G16RevA.03 25-Dec-2016

 ----------------------------------------------------------------------
 # B3LYP/6-311++G(d,p) empiricaldispersion=gd3bj scf=xqc pop=npa geom=c
 heck
 ----------------------------------------------------------------------

 ------------------------------------
 CID_80457726_JID_10019_Energie_anion
 ------------------------------------
 Structure from the checkpoint file:  "JID_10019.chk"
 Charge = -1 Multiplicity = 2

                         Standard orientation:
 ---------------------------------------------------------------------
 Center     Atomic      Atomic             Coordinates (Angstroms)
 Number     Number       Type             X           Y           Z
 ---------------------------------------------------------------------
      1          6           0       -2.287847   -2.680274    1.329887
      2          6           0       -1.823156   -1.219204    1.404616
      3          6           0       -0.832030   -1.030864    2.559320
      4          6           0       -1.191041   -0.801010    0.055590
      5          6           0       -2.157188   -0.514451   -1.110805
      6          8           0       -1.782334   -0.062540   -2.168020
      7          8           0       -3.420779   -0.877529   -0.845696
      8          6           0       -4.367730   -0.560244   -1.879556
      9          7           0       -0.283275    0.336361    0.151362
     10          6           0        1.101041    0.277017    0.008574
     11          6           0        1.579520    1.597056    0.132698
     12          6           0        2.933438    1.876549    0.044598
     13          6           0        3.815202    0.810054   -0.170294
     14          6           0        3.335297   -0.504353   -0.289632
     15          6           0        1.963461   -0.787639   -0.197837
     16          8           0        4.132219   -1.594401   -0.495854
     17          6           0        5.529913   -1.387757   -0.607797
     18          7           0        0.456114    2.389105    0.343156
     19          6           0       -0.693314    1.640592    0.353199
     20         16           0       -2.248239    2.204751    0.575653
     21          1           0       -1.431164   -3.354769    1.196374
     22          1           0       -2.987004   -2.841815    0.506191
     23          1           0       -2.789767   -2.965614    2.260493
     24          1           0       -2.688462   -0.575154    1.579820
     25          1           0        0.100916   -1.581140    2.382668
     26          1           0       -0.582208    0.022754    2.710521
     27          1           0       -1.270413   -1.407956    3.489400
     28          1           0       -0.567571   -1.630876   -0.295656
     29          1           0       -4.393782    0.521090   -2.033433
     30          1           0       -4.093708   -1.053542   -2.815256
     31          1           0       -5.328383   -0.923094   -1.514688
     32          1           0        3.309139    2.890376    0.137679
     33          1           0        4.875249    1.016641   -0.241928
     34          1           0        1.628375   -1.813417   -0.292960
     35          1           0        5.773941   -0.736600   -1.457467
     36          1           0        5.948153   -0.954220    0.310291
     37          1           0        5.965620   -2.374552   -0.772066
     38          1           0        0.426774    3.390530    0.459132
 ---------------------------------------------------------------------

 SCF Done:  E(UB3LYP) =  -1278.05980232     A.U. after   33 cycles
 SCF Done:  E(UB3LYP) =  -1278.05980232     a.u. after    1 cycles

 The electronic state is 2-A.
 Alpha  occ. eigenvalues --  -88.68695 -19.08728 -19.05189 -19.02317 -14.27450
 Alpha  occ. eigenvalues --  -14.26664 -10.21733 -10.16946 -10.14567 -10.14295
 Alpha  occ. eigenvalues --  -10.13072 -10.12299 -10.11755 -10.11285 -10.09301
 Alpha  occ. eigenvalues --  -10.07641 -10.07304 -10.07068 -10.06776 -10.06660
 Alpha  occ. eigenvalues --   -7.77461  -5.73885  -5.73248  -5.73033  -1.02774
 Alpha  occ. eigenvalues --   -0.96791  -0.94454  -0.93452  -0.83333  -0.75538
 Alpha  occ. eigenvalues --   -0.72788  -0.67377  -0.66673  -0.65743  -0.63325
 Alpha  occ. eigenvalues --   -0.60909  -0.60078  -0.58679  -0.53979  -0.51751
 Alpha  occ. eigenvalues --   -0.50133  -0.49991  -0.47689  -0.45495  -0.43633
 Alpha  occ. eigenvalues --   -0.43155  -0.40676  -0.39615  -0.39453  -0.38454
 Alpha  occ. eigenvalues --   -0.38011  -0.37265  -0.36846  -0.35226  -0.34848
 Alpha  occ. eigenvalues --   -0.34212  -0.32606  -0.32116  -0.31429  -0.30404
 Alpha  occ. eigenvalues --   -0.30194  -0.29879  -0.28429  -0.27680  -0.27401
 Alpha  occ. eigenvalues --   -0.27228  -0.26719  -0.25464  -0.24962  -0.23469
 Alpha  occ. eigenvalues --   -0.22871  -0.21950  -0.21924  -0.19325  -0.15942
 Alpha  occ. eigenvalues --   -0.13085  -0.11753  -0.09534   0.04134
 Alpha virt. eigenvalues --    0.05528   0.06004   0.06721   0.06998   0.07989
 Alpha virt. eigenvalues --    0.08415   0.08617   0.08889   0.09573   0.09974
 Alpha virt. eigenvalues --    0.10050   0.10421   0.10700   0.10937   0.11667

  Beta  occ. eigenvalues --  -88.68683 -19.08727 -19.05185 -19.02313 -14.27476
  Beta  occ. eigenvalues --  -14.26662 -10.21729 -10.16712 -10.14565 -10.14278
  Beta  occ. eigenvalues --  -10.13066 -10.12256 -10.11736 -10.11306 -10.09300
  Beta  occ. eigenvalues --  -10.07631 -10.07131 -10.07059 -10.06643 -10.06602
  Beta  occ. eigenvalues --   -7.77451  -5.73887  -5.73203  -5.73026  -1.02768
  Beta  occ. eigenvalues --   -0.96769  -0.94381  -0.93415  -0.83320  -0.75377
  Beta  occ. eigenvalues --   -0.72758  -0.67216  -0.66600  -0.65537  -0.63265
  Beta  occ. eigenvalues --   -0.60803  -0.60059  -0.58565  -0.53895  -0.51609
  Beta  occ. eigenvalues --   -0.50011  -0.49949  -0.47660  -0.45417  -0.43577
  Beta  occ. eigenvalues --   -0.43079  -0.40650  -0.39570  -0.39408  -0.38429
  Beta  occ. eigenvalues --   -0.37913  -0.37159  -0.36767  -0.35212  -0.34713
  Beta  occ. eigenvalues --   -0.34079  -0.32555  -0.32037  -0.31400  -0.30327
  Beta  occ. eigenvalues --   -0.30175  -0.29850  -0.28397  -0.27618  -0.27236
  Beta  occ. eigenvalues --   -0.26957  -0.26625  -0.25453  -0.24946  -0.23410
  Beta  occ. eigenvalues --   -0.22770  -0.21869  -0.21581  -0.19309  -0.15404
  Beta  occ. eigenvalues --   -0.12512  -0.11723  -0.09243
  Beta virt. eigenvalues --    0.05769   0.06554   0.06865   0.07349   0.07665
  Beta virt. eigenvalues --    0.08041   0.08495   0.08826   0.09168   0.09879
  Beta virt. eigenvalues --    0.10161   0.10277   0.10590   0.10943   0.11276

 Mulliken charges and spin densities:
               1          2
     1  C   -0.208154  -0.392777
     2  C    0.216190   0.525143
     3  C   -0.452397  -0.303545
     4  C   -1.552120  -0.375087
     5  C    0.332956   0.072918
     6  O   -0.175096   0.003230
     7  O    0.059064   0.018919
     8  C    0.126965  -0.331526
     9  N    0.891753  -0.005713
    10  C    0.014054   0.059867
    11  C    0.335660  -0.240525
    12  C    0.163114  -0.354567
    13  C    0.556910  -0.165220
    14  C   -0.438185   0.154678
    15  C   -0.656667   0.160528
    16  O   -0.202191   0.049051
    17  C    0.737386  -1.064334
    18  N   -0.130698  -0.006627
    19  C    0.165119   0.168752
    20  S   -0.860094   0.026742
    21  H   -0.002963   0.144168
    22  H    0.046957   0.095265
    23  H    0.054026   0.085862
    24  H    0.255558  -0.004592
    25  H    0.103643   0.051833
    26  H    0.153623   0.020849
    27  H    0.092448   0.045922
    28  H    0.127105   0.017087
    29  H    0.082365   0.094413
    30  H    0.052830   0.118140
    31  H   -0.056858   0.200085
    32  H   -0.258080   0.390019
    33  H   -0.211750   0.398408
    34  H    0.157981   0.029622
    35  H   -0.245834   0.399666
    36  H   -0.147424   0.289725
    37  H   -0.433271   0.597826
    38  H    0.306073   0.025793
 Sum of Mulliken charges =  -1.00000   1.00000

 Dipole moment (field-independent basis, Debye):
    X=             -6.2511    Y=             -0.6915    Z=              1.2849  Tot=              6.4191
 Quadrupole moment (field-independent basis, Debye-Ang):
   XX=           -228.5824   YY=           -161.7035   ZZ=           -156.7453
   XY=             14.6526   XZ=              6.4610   YZ=             -0.4307

 Summary of Natural Population Analysis:

                                       Natural Population
                Natural  -----------------------------------------------
    Atom  No    Charge         Core      Valence    Rydberg      Total
 -----------------------------------------------------------------------
      C    1   -0.28508      0.99965     2.28073    0.00470     3.28508
      C    2   -0.12486      0.99960     2.11461    0.01065     3.12486
      C    3   -0.28550      0.99965     2.28101    0.00483     3.28550
      C    4   -0.03807      0.99952     2.02427    0.01428     3.03807
      C    5    0.41582      0.99967     1.55866    0.02585     2.58418
      O    6   -0.29967      0.99987     3.29422    0.00558     4.29967
      O    7   -0.27676      0.99985     3.26851    0.00840     4.27676
      C    8   -0.10460      0.99960     2.09690    0.00810     3.10460
      N    9   -0.23104      0.99957     2.71875    0.01272     3.73104
      C   10    0.09094      0.99946     1.89968    0.00992     2.90906
      C   11    0.05459      0.99945     1.93550    0.01045     2.94541
      C   12   -0.07862      0.99954     2.06984    0.00923     3.07862
      C   13   -0.13926      0.99954     2.13072    0.00900     3.13926
      C   14    0.16270      0.99941     1.82474    0.01316     2.83730
      C   15   -0.11787      0.99949     2.10976    0.00862     3.11787
      O   16   -0.27630      0.99986     3.26643    0.01002     4.27630
      C   17   -0.09971      0.99960     2.09096    0.00915     3.09971
      N   18   -0.28254      0.99961     2.77425    0.00867     3.78254
      C   19    0.17514      0.99963     1.80560    0.01963     2.82486
      S   20   -0.14540      4.99958     3.13202    0.01381     8.14540
      H   21    0.09427      0.00000     0.40481    0.00092     0.40573
      H   22    0.10555      0.00000     0.39336    0.00109     0.39445
      H   23    0.09899      0.00000     0.40026    0.00075     0.40101
      H   24    0.11257      0.00000     0.38545    0.00197     0.38743
      H   25    0.09976      0.00000     0.39933    0.00091     0.40024
      H   26    0.10740      0.00000     0.39186    0.00074     0.39260
      H   27    0.09769      0.00000     0.40159    0.00071     0.40231
      H   28    0.11377      0.00000     0.38429    0.00194     0.38623
      H   29    0.09728      0.00000     0.40129    0.00143     0.40272
      H   30    0.09032      0.00000     0.40818    0.00150     0.40968
      H   31    0.09001      0.00000     0.40888    0.00111     0.40999
      H   32    0.10008      0.00000     0.39888    0.00104     0.39992
      H   33    0.10514      0.00000     0.39343    0.00143     0.39486
      H   34    0.10601      0.00000     0.39262    0.00137     0.39399
      H   35    0.08614      0.00000     0.41197    0.00189     0.41386
      H   36    0.08313      0.00000     0.41528    0.00160     0.41687
      H   37    0.09264      0.00000     0.40607    0.00129     0.40736
      H   38    0.20535      0.00000     0.29274    0.00191     0.29465
 =======================================================================
   * Total *    0.00000     23.99213    53.76748    0.24039    78.00000

 Normal termination of Gaussian 16 at Sat Dec 12 16:07:00 2020.
