 Gaussian 16, Revision A.03,

 -----------------------------------------------------------
 # opt freq B3LYP/6-31G(d) empiricaldispersion=gd3bj scf=xqc
 -----------------------------------------------------------

 -------------------------------
 CID_130588641_JID_7814_neutraal
 -------------------------------
 Symbolic Z-matrix:
 Charge =  0 Multiplicity = 1

 SCF Done:  E(RB3LYP) =  -715.437057115     A.U. after   13 cycles
 SCF Done:  E(RB3LYP) =  -715.439531031     A.U. after   12 cycles
 SCF Done:  E(RB3LYP) =  -715.435714126     A.U. after   13 cycles
 SCF Done:  E(RB3LYP) =  -715.441771502     A.U. after   12 cycles
 SCF Done:  E(RB3LYP) =  -715.441913383     A.U. after   13 cycles
 SCF Done:  E(RB3LYP) =  -715.444077158     A.U. after   12 cycles
 SCF Done:  E(RB3LYP) =  -715.444590280     A.U. after   12 cycles
 SCF Done:  E(RB3LYP) =  -715.445150166     A.U. after   11 cycles
 SCF Done:  E(RB3LYP) =  -715.445307397     A.U. after   11 cycles
 SCF Done:  E(RB3LYP) =  -715.445423048     A.U. after   11 cycles
 SCF Done:  E(RB3LYP) =  -715.445495379     A.U. after    9 cycles
 SCF Done:  E(RB3LYP) =  -715.445495833     A.U. after    7 cycles
 SCF Done:  E(RB3LYP) =  -715.445495992     A.U. after    7 cycles
 SCF Done:  E(RB3LYP) =  -715.445496029     A.U. after    6 cycles
 SCF Done:  E(RB3LYP) =  -715.445496036     A.U. after    6 cycles
 Optimization completed.
    -- Stationary point found.
 Normal termination of Gaussian 16 at Fri Dec 11 13:26:33 2020.

 --------------------------------------------------------------------
 #N Geom=AllCheck Guess=TCheck SCRF=Check GenChk RB3LYP/6-31G(d) Freq
 --------------------------------------------------------------------

 Structure from the checkpoint file:  "JID_7814.chk"
 -------------------------------
 CID_130588641_JID_7814_neutraal
 -------------------------------
 Charge =  0 Multiplicity = 1

 SCF Done:  E(RB3LYP) =  -715.445496036     A.U. after    1 cycles

  Exact polarizability: 155.761  -1.859 171.782  22.539  -3.014 146.134
 Approx polarizability: 212.897  -7.095 261.422  42.977  -4.910 237.714

                      1                      2                      3
                      A                      A                      A
 Frequencies --     28.6119                32.5198                47.2482
 Red. masses --      4.3702                 4.2930                 3.5291
 Frc consts  --      0.0021                 0.0027                 0.0046
 IR Inten    --      0.2041                 0.1681                 0.3475

                      4                      5                      6
                      A                      A                      A
 Frequencies --     79.4684                85.9205               103.5498
 Red. masses --      3.2236                 3.5690                 3.1085
 Frc consts  --      0.0120                 0.0155                 0.0196
 IR Inten    --      0.2880                 0.3898                 0.2824

                      7                      8                      9
                      A                      A                      A
 Frequencies --    132.0583               144.0459               178.0145
 Red. masses --      2.2114                 3.2341                 4.1300
 Frc consts  --      0.0227                 0.0395                 0.0771
 IR Inten    --      8.6587                 0.2305                 2.7894

                     10                     11                     12
                      A                      A                      A
 Frequencies --    198.1167               217.3277               242.8289
 Red. masses --      2.6977                 1.6329                 1.9159
 Frc consts  --      0.0624                 0.0454                 0.0666
 IR Inten    --      1.0538                11.9294                27.6753

                     13                     14                     15
                      A                      A                      A
 Frequencies --    247.7923               274.6661               286.0835
 Red. masses --      2.6886                 2.1743                 1.1127
 Frc consts  --      0.0973                 0.0966                 0.0537
 IR Inten    --      0.7024                 2.6298                 4.8658

                     16                     17                     18
                      A                      A                      A
 Frequencies --    311.8852               332.8389               357.1380
 Red. masses --      2.4506                 2.3012                 2.3690
 Frc consts  --      0.1404                 0.1502                 0.1780
 IR Inten    --      1.7137                 1.4495                 2.9248

                     19                     20                     21
                      A                      A                      A
 Frequencies --    392.0608               413.2906               420.0113
 Red. masses --      1.7825                 2.7205                 2.8503
 Frc consts  --      0.1614                 0.2738                 0.2963
 IR Inten    --      0.7505                 4.0403                 0.4039

                     22                     23                     24
                      A                      A                      A
 Frequencies --    424.9701               464.2121               483.1499
 Red. masses --      3.5114                 2.0331                 3.2730
 Frc consts  --      0.3736                 0.2581                 0.4502
 IR Inten    --      1.7993                 6.5641                 2.9086

                     25                     26                     27
                      A                      A                      A
 Frequencies --    518.7179               533.5497               622.7624
 Red. masses --      2.6713                 2.3935                 4.4117
 Frc consts  --      0.4235                 0.4015                 1.0081
 IR Inten    --      4.1191                 0.4581                 8.3825

                     28                     29                     30
                      A                      A                      A
 Frequencies --    636.1535               669.4122               717.1311
 Red. masses --      6.3663                 2.0664                 2.4382
 Frc consts  --      1.5180                 0.5456                 0.7388
 IR Inten    --      0.0849                 5.4367                14.4262

                     31                     32                     33
                      A                      A                      A
 Frequencies --    718.8350               753.0976               796.8966
 Red. masses --      2.6527                 1.5169                 2.4520
 Frc consts  --      0.8076                 0.5069                 0.9174
 IR Inten    --     10.6529                44.3126                 1.2798

                     34                     35                     36
                      A                      A                      A
 Frequencies --    825.5477               864.0642               869.3067
 Red. masses --      3.9149                 1.2577                 1.4546
 Frc consts  --      1.5720                 0.5532                 0.6477
 IR Inten    --      4.9744                89.3843                 3.4647

                     37                     38                     39
                      A                      A                      A
 Frequencies --    870.6603               875.9533               922.6879
 Red. masses --      1.8055                 1.7909                 1.5459
 Frc consts  --      0.8064                 0.8096                 0.7754
 IR Inten    --      5.4061                17.9211                14.9928

                     40                     41                     42
                      A                      A                      A
 Frequencies --    926.5231               926.9330               951.1745
 Red. masses --      1.6413                 1.3479                 1.9144
 Frc consts  --      0.8301                 0.6824                 1.0205
 IR Inten    --     22.0755                 3.6727                 9.2885

                     43                     44                     45
                      A                      A                      A
 Frequencies --    978.2669               980.4464               998.2572
 Red. masses --      1.5443                 1.8576                 1.2513
 Frc consts  --      0.8707                 1.0521                 0.7347
 IR Inten    --      0.9461                 1.6296                 0.5283

                     46                     47                     48
                      A                      A                      A
 Frequencies --   1014.6572              1021.6970              1032.7843
 Red. masses --      1.5256                 4.7098                 1.9878
 Frc consts  --      0.9254                 2.8967                 1.2492
 IR Inten    --     23.1988                 2.6776                 6.1270

                     49                     50                     51
                      A                      A                      A
 Frequencies --   1041.1822              1047.2633              1059.4153
 Red. masses --      1.1642                 1.6382                 2.1768
 Frc consts  --      0.7436                 1.0586                 1.4395
 IR Inten    --      8.2122                 9.2052                 1.5651

                     52                     53                     54
                      A                      A                      A
 Frequencies --   1074.0349              1095.5048              1100.6106
 Red. masses --      1.9783                 2.6993                 2.3193
 Frc consts  --      1.3446                 1.9086                 1.6553
 IR Inten    --      8.8760                 1.9298                 4.7064

                     55                     56                     57
                      A                      A                      A
 Frequencies --   1115.4626              1137.2995              1149.1533
 Red. masses --      1.6491                 2.7094                 1.8391
 Frc consts  --      1.2089                 2.0648                 1.4309
 IR Inten    --     12.2644                88.7808                24.0052

                     58                     59                     60
                      A                      A                      A
 Frequencies --   1193.5888              1197.9698              1207.8604
 Red. masses --      1.1031                 1.9941                 2.1102
 Frc consts  --      0.9259                 1.6861                 1.8139
 IR Inten    --      0.3104                 9.2068                 2.7084

                     61                     62                     63
                      A                      A                      A
 Frequencies --   1211.0655              1231.1977              1238.5052
 Red. masses --      1.1469                 2.7017                 1.3316
 Frc consts  --      0.9911                 2.4130                 1.2034
 IR Inten    --      0.3378                 9.6066                 5.7192

                     64                     65                     66
                      A                      A                      A
 Frequencies --   1286.1846              1299.2289              1322.9227
 Red. masses --      1.3501                 1.4837                 1.4272
 Frc consts  --      1.3159                 1.4756                 1.4717
 IR Inten    --      7.8740                 4.1710                 0.6126

                     67                     68                     69
                      A                      A                      A
 Frequencies --   1349.5474              1357.1889              1361.8147
 Red. masses --      1.5977                 1.4267                 1.2340
 Frc consts  --      1.7144                 1.5483                 1.3483
 IR Inten    --      3.2153                 4.8384                 5.0795

                     70                     71                     72
                      A                      A                      A
 Frequencies --   1367.5401              1375.8078              1391.9244
 Red. masses --      2.1494                 1.2448                 1.2966
 Frc consts  --      2.3684                 1.3883                 1.4801
 IR Inten    --      0.6172                 1.6125                 3.9898

                     73                     74                     75
                      A                      A                      A
 Frequencies --   1413.1070              1418.5715              1430.3055
 Red. masses --      1.3477                 1.3344                 1.3232
 Frc consts  --      1.5856                 1.5822                 1.5949
 IR Inten    --      7.0492                16.9993                 6.2341

                     76                     77                     78
                      A                      A                      A
 Frequencies --   1445.5134              1448.1980              1474.9033
 Red. masses --      1.2853                 1.3276                 1.1939
 Frc consts  --      1.5824                 1.6405                 1.5302
 IR Inten    --      2.6201                 6.5293                 4.7829

                     79                     80                     81
                      A                      A                      A
 Frequencies --   1501.9942              1503.9605              1513.1841
 Red. masses --      1.3614                 1.4994                 1.0904
 Frc consts  --      1.8095                 1.9982                 1.4711
 IR Inten    --      5.5262                10.1183                 7.3892

                     82                     83                     84
                      A                      A                      A
 Frequencies --   1527.9273              1530.6337              1532.2488
 Red. masses --      1.0769                 1.1327                 1.0764
 Frc consts  --      1.4813                 1.5635                 1.4890
 IR Inten    --      1.5967                 2.9869                 5.4742

                     85                     86                     87
                      A                      A                      A
 Frequencies --   1540.8473              1547.7641              1551.9921
 Red. masses --      1.0637                 1.9708                 1.0882
 Frc consts  --      1.4879                 2.7817                 1.5444
 IR Inten    --      6.0468                 5.1956                 1.2506

                     88                     89                     90
                      A                      A                      A
 Frequencies --   1647.6257              1667.6421              1695.9902
 Red. masses --      5.5531                 5.5480                 1.0887
 Frc consts  --      8.8818                 9.0907                 1.8451
 IR Inten    --      0.4691                 0.7457                33.0983

                     91                     92                     93
                      A                      A                      A
 Frequencies --   1730.8936              2965.4665              3021.5690
 Red. masses --      4.5289                 1.0720                 1.0659
 Frc consts  --      7.9944                 5.5542                 5.7338
 IR Inten    --     10.3879                83.0531                45.8232

                     94                     95                     96
                      A                      A                      A
 Frequencies --   3040.3793              3051.3482              3058.8492
 Red. masses --      1.0622                 1.0442                 1.0636
 Frc consts  --      5.7853                 5.7280                 5.8634
 IR Inten    --     11.0736                16.9494                36.3298

                     97                     98                     99
                      A                      A                      A
 Frequencies --   3070.5174              3072.3799              3083.4089
 Red. masses --      1.0775                 1.0959                 1.0827
 Frc consts  --      5.9854                 6.0949                 6.0646
 IR Inten    --      9.0710                44.3703                45.5147

                    100                    101                    102
                      A                      A                      A
 Frequencies --   3100.6536              3117.0671              3118.9753
 Red. masses --      1.0891                 1.1015                 1.1038
 Frc consts  --      6.1693                 6.3054                 6.3267
 IR Inten    --      8.8611                33.5532                34.1926

                    103                    104                    105
                      A                      A                      A
 Frequencies --   3121.2204              3136.6114              3147.8754
 Red. masses --      1.1016                 1.0889                 1.0814
 Frc consts  --      6.3231                 6.3121                 6.3135
 IR Inten    --     29.8398                17.9733                27.6561

                    106                    107                    108
                      A                      A                      A
 Frequencies --   3167.3306              3176.3229              3184.9011
 Red. masses --      1.0675                 1.0869                 1.0864
 Frc consts  --      6.3096                 6.4608                 6.4929
 IR Inten    --      9.8868                 7.9101                 0.2640

                    109                    110                    111
                      A                      A                      A
 Frequencies --   3195.7018              3204.5818              3212.4068
 Red. masses --      1.0904                 1.0933                 1.0978
 Frc consts  --      6.5612                 6.6153                 6.6749
 IR Inten    --     16.5169                23.1715                15.5733

                    112                    113                    114
                      A                      A                      A
 Frequencies --   3238.2742              3473.2690              3557.1891
 Red. masses --      1.1153                 1.0496                 1.0923
 Frc consts  --      6.8905                 7.4600                 8.1436
 IR Inten    --     20.0471                 2.2837                 0.3069

 - Thermochemistry -
 -------------------
 Temperature   298.150 Kelvin.  Pressure   1.00000 Atm.
 Atom     1 has atomic number  6 and mass  12.00000

 Molecular mass:   233.17796 amu.
 Principal axes and moments of inertia in atomic units:
                           1         2         3
     Eigenvalues --  3074.681824880.735196190.21630
           X            0.99996   0.00885   0.00186
           Y           -0.00885   0.99996  -0.00015
           Z           -0.00186   0.00013   1.00000
 This molecule is an asymmetric top.
 Rotational symmetry number  1.
 Warning -- assumption of classical behavior for rotation
           may cause significant error
 Rotational temperatures (Kelvin)      0.02817     0.01775     0.01399
 Rotational constants (GHZ):           0.58697     0.36977     0.29155
 Zero-point vibrational energy     937723.9 (Joules/Mol)
                                  224.12140 (Kcal/Mol)
 Warning -- explicit consideration of  26 degrees of freedom as
           vibrations may cause significant error
 Vibrational temperatures:     41.17    46.79    67.98   114.34   123.62
          (Kelvin)            148.99   190.00   207.25   256.12   285.05
                              312.69   349.38   356.52   395.18   411.61
                              448.73   478.88   513.84   564.09   594.63
                              604.30   611.44   667.90   695.14   746.32
                              767.66   896.02   915.28   963.13  1031.79
                             1034.24  1083.54  1146.56  1187.78  1243.20
                             1250.74  1252.69  1260.30  1327.54  1333.06
                             1333.65  1368.53  1407.51  1410.64  1436.27
                             1459.87  1469.99  1485.95  1498.03  1506.78
                             1524.26  1545.30  1576.19  1583.53  1604.90
                             1636.32  1653.38  1717.31  1723.61  1737.84
                             1742.45  1771.42  1781.93  1850.53  1869.30
                             1903.39  1941.70  1952.69  1959.35  1967.59
                             1979.48  2002.67  2033.15  2041.01  2057.89
                             2079.77  2083.63  2122.06  2161.03  2163.86
                             2177.13  2198.35  2202.24  2204.56  2216.94
                             2226.89  2232.97  2370.57  2399.37  2440.15
                             2490.37  4266.64  4347.36  4374.43  4390.21
                             4401.00  4417.79  4420.47  4436.34  4461.15
                             4484.76  4487.51  4490.74  4512.88  4529.09
                             4557.08  4570.02  4582.36  4597.90  4610.68
                             4621.94  4659.15  4997.26  5118.00

 Zero-point correction=                           0.357160 (Hartree/Particle)
 Thermal correction to Energy=                    0.375002
 Thermal correction to Enthalpy=                  0.375946
 Thermal correction to Gibbs Free Energy=         0.310961
 Sum of electronic and zero-point Energies=           -715.088336
 Sum of electronic and thermal Energies=              -715.070494
 Sum of electronic and thermal Enthalpies=            -715.069550
 Sum of electronic and thermal Free Energies=         -715.134535

                     E (Thermal)             CV                S
                      KCal/Mol        Cal/Mol-Kelvin    Cal/Mol-Kelvin
 Total                  235.317             68.604            136.772
 Electronic               0.000              0.000              0.000
 Translational            0.889              2.981             42.242
 Rotational               0.889              2.981             32.896
 Vibrational            233.540             62.642             61.634
 Vibration     1          0.593              1.984              5.923
 Vibration     2          0.594              1.983              5.669
 Vibration     3          0.595              1.979              4.929
 Vibration     4          0.600              1.963              3.904
 Vibration     5          0.601              1.959              3.751
 Vibration     6          0.605              1.946              3.386
 Vibration     7          0.612              1.921              2.916
 Vibration     8          0.616              1.909              2.749
 Vibration     9          0.628              1.869              2.349
 Vibration    10          0.637              1.843              2.151
 Vibration    11          0.646              1.815              1.981
 Vibration    12          0.659              1.775              1.782
 Vibration    13          0.661              1.766              1.746
 Vibration    14          0.677              1.720              1.567
 Vibration    15          0.684              1.700              1.497
 Vibration    16          0.700              1.651              1.352
 Vibration    17          0.715              1.610              1.246
 Vibration    18          0.732              1.561              1.135
 Vibration    19          0.760              1.487              0.992
 Vibration    20          0.777              1.441              0.915
 Vibration    21          0.783              1.427              0.892
 Vibration    22          0.787              1.416              0.875
 Vibration    23          0.822              1.329              0.754
 Vibration    24          0.839              1.287              0.702
 Vibration    25          0.874              1.209              0.613
 Vibration    26          0.889              1.176              0.579

 Optimization completed.
    -- Stationary point found.
 Normal termination of Gaussian 16 at Fri Dec 11 13:46:34 2020.

 ----------------------------------------------------------------------
 # B3LYP/6-311++G(d,p) empiricaldispersion=gd3bj scf=xqc pop=npa geom=c
 heck
 ----------------------------------------------------------------------

 ---------------------------------------
 CID_130588641_JID_7814_Energie_neutraal
 ---------------------------------------
 Structure from the checkpoint file:  "JID_7814.chk"
 Charge =  0 Multiplicity = 1

 SCF Done:  E(RB3LYP) =  -715.651192655     A.U. after   15 cycles
 Normal termination of Gaussian 16 at Fri Dec 11 13:56:47 2020.

 ----------------------------------------------------------------------
 # B3LYP/6-311++G(d,p) empiricaldispersion=gd3bj scf=xqc pop=npa geom=c
 heck
 ----------------------------------------------------------------------

 -------------------------------------
 CID_130588641_JID_7814_Energie_kation
 -------------------------------------
 Structure from the checkpoint file:  "JID_7814.chk"
 Charge =  1 Multiplicity = 2

 SCF Done:  E(UB3LYP) =  -715.347502404     A.U. after   29 cycles
 Normal termination of Gaussian 16 at Fri Dec 11 14:25:12 2020.
 Gaussian 16:  ES64L-G16RevA.03 25-Dec-2016

 ----------------------------------------------------------------------
 # B3LYP/6-311++G(d,p) empiricaldispersion=gd3bj scf=xqc pop=npa geom=c
 heck
 ----------------------------------------------------------------------

 ------------------------------------
 CID_130588641_JID_7814_Energie_anion
 ------------------------------------
 Structure from the checkpoint file:  "JID_7814.chk"
 Charge = -1 Multiplicity = 2

                         Standard orientation:
 ---------------------------------------------------------------------
 Center     Atomic      Atomic             Coordinates (Angstroms)
 Number     Number       Type             X           Y           Z
 ---------------------------------------------------------------------
      1          6           0        3.377654    0.621728   -0.635152
      2          6           0        2.067388    0.056581   -0.064509
      3          6           0        1.287515    1.171933    0.698681
      4          6           0        0.768783    2.390714   -0.094128
      5          6           0       -0.573241    2.259862   -0.832385
      6          8           0       -1.736745    2.540487   -0.051140
      7          6           0       -2.044584    1.642910    1.004630
      8          6           0       -2.187146    0.195482    0.578251
      9          6           0       -2.795559   -0.125633   -0.640602
     10          6           0       -2.900859   -1.453309   -1.051988
     11          6           0       -2.408693   -2.480667   -0.243206
     12          6           0       -1.816813   -2.171241    0.981492
     13          6           0       -1.704395   -0.839516    1.384769
     14          6           0        1.209031   -0.541603   -1.203384
     15          7           0        1.809221   -1.763026   -1.749153
     16          6           0        2.317609   -1.038732    0.955553
     17          6           0        3.453747   -1.294758    1.601953
     18          1           0        3.179696    1.344222   -1.434473
     19          1           0        4.008624   -0.173804   -1.045020
     20          1           0        3.959304    1.135135    0.137903
     21          1           0        0.460014    0.692953    1.226455
     22          1           0        1.966102    1.537072    1.479201
     23          1           0        0.670560    3.243014    0.590634
     24          1           0        1.525490    2.691672   -0.829798
     25          1           0       -0.616189    3.013818   -1.624728
     26          1           0       -0.671460    1.279073   -1.306836
     27          1           0       -1.310231    1.717816    1.819619
     28          1           0       -2.997716    2.012677    1.401244
     29          1           0       -3.166808    0.677940   -1.270101
     30          1           0       -3.366503   -1.687917   -2.005381
     31          1           0       -2.485232   -3.514892   -0.566305
     32          1           0       -1.430000   -2.963192    1.616510
     33          1           0       -1.225007   -0.601833    2.331549
     34          1           0        0.228136   -0.815774   -0.801292
     35          1           0        1.040214    0.239953   -1.964145
     36          1           0        1.175594   -2.171254   -2.433590
     37          1           0        2.663691   -1.536944   -2.254626
     38          1           0        1.434816   -1.635515    1.186349
     39          1           0        3.511843   -2.084381    2.346139
     40          1           0        4.371857   -0.745051    1.414040
 ---------------------------------------------------------------------

 SCF Done:  E(UB3LYP) =  -715.638434766     A.U. after   33 cycles
 SCF Done:  E(UB3LYP) =  -715.638434766     a.u. after    1 cycles

 The electronic state is 2-A.
 Alpha  occ. eigenvalues --  -19.03146 -14.18832 -10.13010 -10.11650 -10.08910
 Alpha  occ. eigenvalues --  -10.08874 -10.08783 -10.08524 -10.08392 -10.08292
 Alpha  occ. eigenvalues --  -10.08119 -10.07960 -10.07492 -10.07483 -10.07287
 Alpha  occ. eigenvalues --  -10.06293 -10.06255  -0.94056  -0.78534  -0.76749
 Alpha  occ. eigenvalues --   -0.72564  -0.68578  -0.66982  -0.65626  -0.63514
 Alpha  occ. eigenvalues --   -0.60812  -0.58071  -0.55849  -0.51879  -0.51541
 Alpha  occ. eigenvalues --   -0.49277  -0.47649  -0.43103  -0.42340  -0.40732
 Alpha  occ. eigenvalues --   -0.39742  -0.38780  -0.37636  -0.37433  -0.36282
 Alpha  occ. eigenvalues --   -0.35108  -0.34537  -0.33425  -0.33054  -0.32651
 Alpha  occ. eigenvalues --   -0.31394  -0.30961  -0.30827  -0.28977  -0.28572
 Alpha  occ. eigenvalues --   -0.27413  -0.26901  -0.26380  -0.25953  -0.25343
 Alpha  occ. eigenvalues --   -0.23081  -0.22853  -0.22335  -0.20928  -0.17117
 Alpha  occ. eigenvalues --   -0.16586  -0.16272  -0.15888  -0.13943   0.04218
 Alpha virt. eigenvalues --    0.06275   0.06517   0.06761   0.07283   0.07561
 Alpha virt. eigenvalues --    0.08095   0.08304   0.08489   0.08999   0.09442
 Alpha virt. eigenvalues --    0.09760   0.10509   0.10771   0.11429   0.11691

  Beta  occ. eigenvalues --  -19.03143 -14.18797 -10.13005 -10.11641 -10.08910
  Beta  occ. eigenvalues --  -10.08843 -10.08770 -10.08526 -10.08370 -10.08282
  Beta  occ. eigenvalues --  -10.08089 -10.07934 -10.07480 -10.07479 -10.07281
  Beta  occ. eigenvalues --  -10.06281 -10.06224  -0.94046  -0.78487  -0.76699
  Beta  occ. eigenvalues --   -0.72535  -0.68538  -0.66942  -0.65577  -0.63487
  Beta  occ. eigenvalues --   -0.60776  -0.58020  -0.55807  -0.51828  -0.51501
  Beta  occ. eigenvalues --   -0.49233  -0.47608  -0.43067  -0.42291  -0.40710
  Beta  occ. eigenvalues --   -0.39709  -0.38752  -0.37598  -0.37384  -0.36258
  Beta  occ. eigenvalues --   -0.35071  -0.34498  -0.33392  -0.33022  -0.32611
  Beta  occ. eigenvalues --   -0.31366  -0.30931  -0.30792  -0.28942  -0.28543
  Beta  occ. eigenvalues --   -0.27375  -0.26854  -0.26342  -0.25933  -0.25307
  Beta  occ. eigenvalues --   -0.23057  -0.22827  -0.22315  -0.20912  -0.17098
  Beta  occ. eigenvalues --   -0.16514  -0.16237  -0.15747  -0.13906
  Beta virt. eigenvalues --    0.06202   0.06889   0.07077   0.07255   0.07415
  Beta virt. eigenvalues --    0.07723   0.08645   0.08692   0.08783   0.09287
  Beta virt. eigenvalues --    0.09680   0.09916   0.10900   0.10987   0.11813

 Mulliken charges and spin densities:
               1          2
     1  C    0.821607  -1.450021
     2  C    0.537542   0.543831
     3  C   -0.621418   0.458991
     4  C    0.588617  -1.175072
     5  C   -0.660092   0.313029
     6  O   -0.073802   0.002278
     7  C    1.152284  -1.790847
     8  C    0.279501   0.172781
     9  C   -0.139939   0.285972
    10  C   -0.393276   0.090291
    11  C    1.297682  -1.660904
    12  C   -0.399027   0.200246
    13  C   -1.268020   0.820873
    14  C   -0.529450  -0.628645
    15  N   -0.195807  -0.008535
    16  C   -0.600716   0.616830
    17  C   -0.791971   0.109988
    18  H   -0.153525   0.288254
    19  H   -0.041991   0.166472
    20  H   -0.119196   0.257060
    21  H    0.269068  -0.119680
    22  H    0.014676   0.173545
    23  H    0.206663  -0.020925
    24  H    0.069917   0.071563
    25  H   -0.297479   0.490385
    26  H    0.335700  -0.266226
    27  H    0.080255   0.080616
    28  H    0.003359   0.192681
    29  H   -0.117651   0.315419
    30  H   -0.766673   0.956287
    31  H   -0.232735   0.394253
    32  H   -0.267886   0.441515
    33  H   -0.072091   0.237476
    34  H    1.215834  -0.747459
    35  H   -0.421822   0.577759
    36  H   -0.089516   0.329068
    37  H    0.016412   0.209363
    38  H    0.343807  -0.157128
    39  H   -0.017742   0.143145
    40  H    0.038902   0.085473
 Sum of Mulliken charges =  -1.00000   1.00000

 Dipole moment (field-independent basis, Debye):
    X=              0.5011    Y=              2.3867    Z=              4.5661  Tot=              5.1766
 Quadrupole moment (field-independent basis, Debye-Ang):
   XX=           -171.0399   YY=           -160.9477   ZZ=           -149.5832
   XY=             -2.8912   XZ=             -1.5398   YZ=             -3.1037

 Summary of Natural Population Analysis:

                                       Natural Population
                Natural  -----------------------------------------------
    Atom  No    Charge         Core      Valence    Rydberg      Total
 -----------------------------------------------------------------------
      C    1   -0.29286      0.99963     2.28460    0.00862     3.29286
      C    2   -0.06122      0.99953     2.04751    0.01418     3.06122
      C    3   -0.18705      0.99958     2.17760    0.00986     3.18705
      C    4   -0.21002      0.99961     2.20214    0.00827     3.21002
      C    5   -0.01464      0.99955     2.00225    0.01284     3.01464
      O    6   -0.30012      0.99989     3.29152    0.00871     4.30012
      C    7   -0.01488      0.99953     2.00262    0.01273     3.01488
      C    8   -0.03251      0.99949     2.02322    0.00980     3.03251
      C    9   -0.09791      0.99950     2.08806    0.01035     3.09791
      C   10   -0.09726      0.99956     2.08702    0.01068     3.09726
      C   11   -0.09826      0.99956     2.08838    0.01032     3.09826
      C   12   -0.09743      0.99956     2.08744    0.01043     3.09743
      C   13   -0.10785      0.99951     2.09855    0.00980     3.10785
      C   14   -0.09027      0.99958     2.07810    0.01260     3.09027
      N   15   -0.41837      0.99977     2.90825    0.01035     3.91837
      C   16   -0.06286      0.99953     2.05170    0.01163     3.06286
      C   17   -0.20358      0.99955     2.19778    0.00625     3.20358
      H   18    0.10255      0.00000     0.39620    0.00125     0.39745
      H   19    0.10265      0.00000     0.39636    0.00099     0.39735
      H   20    0.09978      0.00000     0.39917    0.00104     0.40022
      H   21    0.10031      0.00000     0.39719    0.00250     0.39969
      H   22    0.09955      0.00000     0.39947    0.00097     0.40045
      H   23    0.10118      0.00000     0.39777    0.00105     0.39882
      H   24    0.10314      0.00000     0.39559    0.00127     0.39686
      H   25    0.09045      0.00000     0.40818    0.00136     0.40955
      H   26    0.08681      0.00000     0.41076    0.00242     0.41319
      H   27    0.08096      0.00000     0.41770    0.00134     0.41904
      H   28    0.09622      0.00000     0.40254    0.00124     0.40378
      H   29    0.10641      0.00000     0.39188    0.00171     0.39359
      H   30    0.10374      0.00000     0.39471    0.00154     0.39626
      H   31    0.10336      0.00000     0.39542    0.00122     0.39664
      H   32    0.10155      0.00000     0.39739    0.00106     0.39845
      H   33    0.10058      0.00000     0.39830    0.00112     0.39942
      H   34    0.09789      0.00000     0.39827    0.00384     0.40211
      H   35    0.07997      0.00000     0.41742    0.00261     0.42003
      H   36    0.17854      0.00000     0.31955    0.00190     0.32146
      H   37    0.17222      0.00000     0.32577    0.00201     0.32778
      H   38    0.09709      0.00000     0.40089    0.00202     0.40291
      H   39    0.09191      0.00000     0.40702    0.00107     0.40809
      H   40    0.09020      0.00000     0.40859    0.00121     0.40980
 =======================================================================
   * Total *   -0.00000     16.99294    46.79291    0.21415    64.00000

 Normal termination of Gaussian 16 at Fri Dec 11 14:56:15 2020.
