 Gaussian 16, Revision A.03,

 -----------------------------------------------------------
 # opt freq B3LYP/6-31G(d) empiricaldispersion=gd3bj scf=xqc
 -----------------------------------------------------------

 -----------------------------
 CID_88038230_JID_996_neutraal
 -----------------------------
 Symbolic Z-matrix:
 Charge =  0 Multiplicity = 1

 SCF Done:  E(RB3LYP) =  -466.171350643     A.U. after   13 cycles
 SCF Done:  E(RB3LYP) =  -466.173643367     A.U. after   10 cycles
 SCF Done:  E(RB3LYP) =  -466.173879019     A.U. after   10 cycles
 SCF Done:  E(RB3LYP) =  -466.173856363     A.U. after   10 cycles
 SCF Done:  E(RB3LYP) =  -466.173919322     A.U. after   10 cycles
 SCF Done:  E(RB3LYP) =  -466.173952154     A.U. after    9 cycles
 SCF Done:  E(RB3LYP) =  -466.173954773     A.U. after    8 cycles
 SCF Done:  E(RB3LYP) =  -466.173955693     A.U. after    8 cycles
 SCF Done:  E(RB3LYP) =  -466.173956255     A.U. after    7 cycles
 SCF Done:  E(RB3LYP) =  -466.173956400     A.U. after    7 cycles
 Optimization completed.
    -- Stationary point found.

 1\1\GINC-NODE226\FOpt\RB3LYP\6-31G(d)\C8H18O2\VSC10255\08-Dec-2020\0\\
 # opt freq B3LYP/6-31G(d) empiricaldispersion=gd3bj scf=xqc\\CID_88038
 230_JID_996_neutraal\\0,1\C,1.0497258082,-0.0474513247,-0.1017064539\C
 ,0.4841822657,1.3765876998,-0.1445966641\C,0.8619013384,2.0724967641,-
 1.458489598\C,-1.0455976106,1.3978784949,0.0307892024\C,-1.6248430068,
 0.7598501742,1.3025845607\C,-1.2467209399,1.3905698537,2.6516697482\C,
 -1.4619131106,2.9019077225,2.6843715867\C,-2.0258177541,0.7068266064,3
 .792376988\O,-1.7074295783,-0.667260133,3.8810244573\O,0.1513670421,1.

 Normal termination of Gaussian 16 at Tue Dec  8 13:49:59 2020.

 --------------------------------------------------------------------
 #N Geom=AllCheck Guess=TCheck SCRF=Check GenChk RB3LYP/6-31G(d) Freq
 --------------------------------------------------------------------

 Structure from the checkpoint file:  "JID_996.chk"
 -----------------------------
 CID_88038230_JID_996_neutraal
 -----------------------------
 Charge =  0 Multiplicity = 1

 SCF Done:  E(RB3LYP) =  -466.173956400     A.U. after    1 cycles

  Exact polarizability: 102.212   2.475  88.720   0.095   0.593  84.611
 Approx polarizability: 122.872   2.587 125.340   0.520   0.872 126.770

                      1                      2                      3
                      A                      A                      A
 Frequencies --     40.6734                74.5982               117.9430
 Red. masses --      3.6684                 2.6405                 3.3547
 Frc consts  --      0.0036                 0.0087                 0.0275
 IR Inten    --      0.8404                 0.4449                 0.4837

                      4                      5                      6
                      A                      A                      A
 Frequencies --    149.6757               199.1695               215.6754
 Red. masses --      3.5277                 1.7418                 3.0365
 Frc consts  --      0.0466                 0.0407                 0.0832
 IR Inten    --      9.2562                 0.0607                 2.7888

                      7                      8                      9
                      A                      A                      A
 Frequencies --    235.0080               248.3329               258.5720
 Red. masses --      1.1040                 1.0972                 1.7561
 Frc consts  --      0.0359                 0.0399                 0.0692
 IR Inten    --      0.0537                 0.1500                 0.1989

                     10                     11                     12
                      A                      A                      A
 Frequencies --    305.0273               321.7925               350.0554
 Red. masses --      1.8359                 1.6251                 1.4136
 Frc consts  --      0.1006                 0.0991                 0.1021
 IR Inten    --      0.7648                 7.4072                34.5585

                     13                     14                     15
                      A                      A                      A
 Frequencies --    366.8270               385.4205               405.0682
 Red. masses --      2.2866                 2.6654                 2.2522
 Frc consts  --      0.1813                 0.2333                 0.2177
 IR Inten    --      2.0891                11.6232                 0.3599

                     16                     17                     18
                      A                      A                      A
 Frequencies --    423.0427               461.4886               515.4319
 Red. masses --      1.8544                 2.3803                 2.6142
 Frc consts  --      0.1955                 0.2987                 0.4092
 IR Inten    --      0.8006                 4.7344                 5.0586

                     19                     20                     21
                      A                      A                      A
 Frequencies --    556.2313               633.2520               732.4021
 Red. masses --      1.1602                 2.7797                 3.2727
 Frc consts  --      0.2115                 0.6567                 1.0343
 IR Inten    --    170.0337                34.7508                 9.6064

                     22                     23                     24
                      A                      A                      A
 Frequencies --    773.7288               872.0952               888.0068
 Red. masses --      2.4518                 2.0138                 1.9481
 Frc consts  --      0.8648                 0.9024                 0.9051
 IR Inten    --      5.0519                18.1731                 2.6346

                     25                     26                     27
                      A                      A                      A
 Frequencies --    927.9875               932.0610               943.6440
 Red. masses --      1.8019                 1.7629                 1.2313
 Frc consts  --      0.9142                 0.9023                 0.6460
 IR Inten    --      6.4214                16.3717                 3.2688

                     28                     29                     30
                      A                      A                      A
 Frequencies --    969.3422               980.0943              1017.5651
 Red. masses --      1.6722                 1.5168                 1.4238
 Frc consts  --      0.9257                 0.8584                 0.8686
 IR Inten    --      0.5364                 0.5998                 2.2173

                     31                     32                     33
                      A                      A                      A
 Frequencies --   1058.7755              1090.0221              1098.8424
 Red. masses --      1.8813                 2.1109                 2.8215
 Frc consts  --      1.2426                 1.4777                 2.0073
 IR Inten    --     10.3453                16.9547                66.9615

                     34                     35                     36
                      A                      A                      A
 Frequencies --   1134.7266              1157.8521              1178.8889
 Red. masses --      1.9337                 1.6677                 2.0068
 Frc consts  --      1.4670                 1.3173                 1.6432
 IR Inten    --     39.9748                14.6938                19.2661

                     37                     38                     39
                      A                      A                      A
 Frequencies --   1207.6118              1223.0470              1227.9642
 Red. masses --      1.6959                 1.9213                 1.4580
 Frc consts  --      1.4571                 1.6933                 1.2953
 IR Inten    --      9.3862                 8.2438                20.3267

                     40                     41                     42
                      A                      A                      A
 Frequencies --   1289.1543              1319.8393              1345.8720
 Red. masses --      1.4477                 1.4285                 1.3764
 Frc consts  --      1.4176                 1.4661                 1.4689
 IR Inten    --     13.2265                 8.7672                20.1209

                     43                     44                     45
                      A                      A                      A
 Frequencies --   1357.0265              1387.2141              1404.5811
 Red. masses --      1.2650                 1.3286                 1.3090
 Frc consts  --      1.3725                 1.5064                 1.5215
 IR Inten    --      7.5656                 4.1750                 5.4005

                     46                     47                     48
                      A                      A                      A
 Frequencies --   1415.8471              1427.9607              1432.3635
 Red. masses --      1.5153                 1.3151                 1.5338
 Frc consts  --      1.7897                 1.5800                 1.8541
 IR Inten    --      2.4828                 0.4082                16.3955

                     49                     50                     51
                      A                      A                      A
 Frequencies --   1438.1175              1447.8249              1459.1958
 Red. masses --      1.3384                 1.2431                 1.2719
 Frc consts  --      1.6309                 1.5352                 1.5956
 IR Inten    --     10.6868                 8.8125                70.9881

                     52                     53                     54
                      A                      A                      A
 Frequencies --   1504.7562              1512.8488              1521.8993
 Red. masses --      1.0726                 1.0687                 1.0610
 Frc consts  --      1.4309                 1.4411                 1.4479
 IR Inten    --      1.7151                 3.3957                 5.2727

                     55                     56                     57
                      A                      A                      A
 Frequencies --   1523.8635              1525.8463              1534.8370
 Red. masses --      1.0587                 1.0563                 1.0582
 Frc consts  --      1.4486                 1.4490                 1.4687
 IR Inten    --      1.5424                 6.6950                 1.0183

                     58                     59                     60
                      A                      A                      A
 Frequencies --   1536.1640              1538.9655              1547.6995
 Red. masses --      1.0740                 1.0850                 1.0482
 Frc consts  --      1.4933                 1.5140                 1.4793
 IR Inten    --      2.2799                 2.5713                 5.8751

                     61                     62                     63
                      A                      A                      A
 Frequencies --   2949.6890              3017.2690              3032.7064
 Red. masses --      1.0737                 1.0623                 1.0368
 Frc consts  --      5.5039                 5.6980                 5.6183
 IR Inten    --     90.2542                22.4314                33.4580

                     64                     65                     66
                      A                      A                      A
 Frequencies --   3038.6433              3042.9378              3048.7469
 Red. masses --      1.0444                 1.0449                 1.0879
 Frc consts  --      5.6814                 5.7005                 5.9575
 IR Inten    --     32.1390                23.1963                19.9240

                     67                     68                     69
                      A                      A                      A
 Frequencies --   3052.2895              3065.5286              3094.4049
 Red. masses --      1.0690                 1.0879                 1.1004
 Frc consts  --      5.8677                 6.0237                 6.2082
 IR Inten    --     21.3575                22.0328                13.6241

                     70                     71                     72
                      A                      A                      A
 Frequencies --   3095.6103              3101.2688              3107.2604
 Red. masses --      1.0897                 1.1007                 1.1007
 Frc consts  --      6.1527                 6.2376                 6.2616
 IR Inten    --     19.2370                51.8325                56.8714

                     73                     74                     75
                      A                      A                      A
 Frequencies --   3108.5949              3113.9645              3139.5314
 Red. masses --      1.0955                 1.0940                 1.0976
 Frc consts  --      6.2370                 6.2504                 6.3741
 IR Inten    --     44.5417                37.6631                27.8074

                     76                     77                     78
                      A                      A                      A
 Frequencies --   3142.4077              3678.0931              3719.0168
 Red. masses --      1.1006                 1.0646                 1.0659
 Frc consts  --      6.4036                 8.4854                 8.6863
 IR Inten    --     20.0288                30.6928                 8.4792

 - Thermochemistry -
 -------------------
 Temperature   298.150 Kelvin.  Pressure   1.00000 Atm.
 Atom     1 has atomic number  6 and mass  12.00000

 Molecular mass:   146.13068 amu.
 Principal axes and moments of inertia in atomic units:
                           1         2         3
     Eigenvalues --   829.692432470.044422738.63945
           X            0.99979   0.02013  -0.00311
           Y           -0.02012   0.99979   0.00334
           Z            0.00318  -0.00327   0.99999
 This molecule is an asymmetric top.
 Rotational symmetry number  1.
 Warning -- assumption of classical behavior for rotation
           may cause significant error
 Rotational temperatures (Kelvin)      0.10439     0.03507     0.03163
 Rotational constants (GHZ):           2.17519     0.73065     0.65899
 Zero-point vibrational energy     674082.4 (Joules/Mol)
                                  161.10957 (Kcal/Mol)
 Warning -- explicit consideration of  19 degrees of freedom as
           vibrations may cause significant error
 Vibrational temperatures:     58.52   107.33   169.69   215.35   286.56
          (Kelvin)            310.31   338.12   357.30   372.03   438.87
                              462.99   503.65   527.78   554.53   582.80
                              608.66   663.98   741.59   800.29   911.11
                             1053.76  1113.22  1254.75  1277.64  1335.17
                             1341.03  1357.69  1394.67  1410.14  1464.05
                             1523.34  1568.30  1580.99  1632.62  1665.89
                             1696.16  1737.48  1759.69  1766.77  1854.81
                             1898.95  1936.41  1952.46  1995.89  2020.88
                             2037.09  2054.52  2060.85  2069.13  2083.10
                             2099.46  2165.01  2176.65  2189.67  2192.50
                             2195.35  2208.29  2210.20  2214.23  2226.79
                             4243.94  4341.18  4363.39  4371.93  4378.11
                             4386.47  4391.56  4410.61  4452.16  4453.89
                             4462.03  4470.65  4472.57  4480.30  4517.09
                             4521.22  5291.96  5350.84

 Zero-point correction=                           0.256744 (Hartree/Particle)
 Thermal correction to Energy=                    0.269234
 Thermal correction to Enthalpy=                  0.270179
 Thermal correction to Gibbs Free Energy=         0.218978
 Sum of electronic and zero-point Energies=           -465.917212
 Sum of electronic and thermal Energies=              -465.904722
 Sum of electronic and thermal Enthalpies=            -465.903778
 Sum of electronic and thermal Free Energies=         -465.954978

                     E (Thermal)             CV                S
                      KCal/Mol        Cal/Mol-Kelvin    Cal/Mol-Kelvin
 Total                  168.947             47.291            107.760
 Electronic               0.000              0.000              0.000
 Translational            0.889              2.981             40.849
 Rotational               0.889              2.981             30.108
 Vibrational            167.170             41.329             36.804
 Vibration     1          0.594              1.981              5.226
 Vibration     2          0.599              1.966              4.028
 Vibration     3          0.608              1.934              3.134
 Vibration     4          0.618              1.903              2.676
 Vibration     5          0.637              1.841              2.141
 Vibration     6          0.645              1.817              1.995
 Vibration     7          0.655              1.787              1.840
 Vibration     8          0.662              1.766              1.742
 Vibration     9          0.667              1.748              1.671
 Vibration    10          0.696              1.664              1.389
 Vibration    11          0.707              1.632              1.301
 Vibration    12          0.727              1.575              1.166
 Vibration    13          0.740              1.540              1.093
 Vibration    14          0.754              1.501              1.018
 Vibration    15          0.770              1.459              0.944
 Vibration    16          0.785              1.420              0.882
 Vibration    17          0.819              1.335              0.762
 Vibration    18          0.870              1.216              0.621
 Vibration    19          0.912              1.126              0.531

 Optimization completed.
    -- Stationary point found.

 1\1\GINC-NODE226\Freq\RB3LYP\6-31G(d)\C8H18O2\VSC10255\08-Dec-2020\0\\
 #N Geom=AllCheck Guess=TCheck SCRF=Check GenChk RB3LYP/6-31G(d) Freq\\
 CID_88038230_JID_996_neutraal\\0,1\C,1.0497258082,-0.0474513247,-0.101
 7064539\C,0.4841822657,1.3765876998,-0.1445966641\C,0.8619013384,2.072
 4967641,-1.458489598\C,-1.0455976106,1.3978784949,0.0307892024\C,-1.62
 48430068,0.7598501742,1.3025845607\C,-1.2467209399,1.3905698537,2.6516
 697482\C,-1.4619131106,2.9019077225,2.6843715867\C,-2.0258177541,0.706
 8266064,3.792376988\O,-1.7074295783,-0.667260133,3.8810244573\O,0.1513

 Normal termination of Gaussian 16 at Tue Dec  8 13:56:15 2020.

 ----------------------------------------------------------------------
 # B3LYP/6-311++G(d,p) empiricaldispersion=gd3bj scf=xqc pop=npa geom=c
 heck
 ----------------------------------------------------------------------

 -------------------------------------
 CID_88038230_JID_996_Energie_neutraal
 -------------------------------------
 Structure from the checkpoint file:  "JID_996.chk"
 Charge =  0 Multiplicity = 1

 SCF Done:  E(RB3LYP) =  -466.327988844     A.U. after   13 cycles
 Normal termination of Gaussian 16 at Tue Dec  8 13:59:18 2020.

 ----------------------------------------------------------------------
 # B3LYP/6-311++G(d,p) empiricaldispersion=gd3bj scf=xqc pop=npa geom=c
 heck
 ----------------------------------------------------------------------

 -----------------------------------
 CID_88038230_JID_996_Energie_kation
 -----------------------------------
 Structure from the checkpoint file:  "JID_996.chk"
 Charge =  1 Multiplicity = 2

 SCF Done:  E(UB3LYP) =  -465.981730088     A.U. after   24 cycles
 Normal termination of Gaussian 16 at Tue Dec  8 14:06:46 2020.
 Gaussian 16:  ES64L-G16RevA.03 25-Dec-2016

 ----------------------------------
 CID_88038230_JID_996_Energie_anion
 ----------------------------------
 Structure from the checkpoint file:  "JID_996.chk"
 Charge = -1 Multiplicity = 2

                         Standard orientation:
 ---------------------------------------------------------------------
 Center     Atomic      Atomic             Coordinates (Angstroms)
 Number     Number       Type             X           Y           Z
 ---------------------------------------------------------------------
      1          6           0       -2.069628   -1.593914   -0.256227
      2          6           0       -2.036704   -0.062356   -0.203208
      3          6           0       -3.457000    0.509200   -0.106463
      4          6           0       -1.188414    0.458505    0.971760
      5          6           0        0.278990    0.009505    1.043823
      6          6           0        1.212005    0.438055   -0.099262
      7          6           0        1.140493    1.933726   -0.398218
      8          6           0        2.660985    0.016066    0.213935
      9          8           0        2.774351   -1.388003    0.328310
     10          8           0        0.815935   -0.325726   -1.266814
     11          1           0       -2.444708   -2.011041    0.688151
     12          1           0       -1.075406   -2.007143   -0.445093
     13          1           0       -2.732170   -1.940996   -1.057942
     14          1           0       -1.585035    0.290985   -1.137542
     15          1           0       -3.954656    0.168786    0.811210
     16          1           0       -3.448346    1.606055   -0.091573
     17          1           0       -4.072187    0.189200   -0.955558
     18          1           0       -1.235113    1.556043    0.980962
     19          1           0       -1.671293    0.137761    1.906796
     20          1           0        0.709833    0.410205    1.970702
     21          1           0        0.345212   -1.078867    1.131776
     22          1           0        1.388232    2.523118    0.491513
     23          1           0        1.853885    2.207757   -1.186614
     24          1           0        0.139065    2.219064   -0.730883
     25          1           0        3.319331    0.404267   -0.585852
     26          1           0        3.000239    0.451826    1.159615
     27          1           0        2.232233   -1.734661   -0.403352
     28          1           0        1.264220    0.064746   -2.035126
 ---------------------------------------------------------------------

 SCF Done:  E(UB3LYP) =  -466.315436094     A.U. after   27 cycles

 The electronic state is 2-A.
 Alpha  occ. eigenvalues --  -19.01512 -19.01033 -10.12039 -10.10232 -10.06097
 Alpha  occ. eigenvalues --  -10.05651 -10.05609 -10.05407 -10.05089 -10.04832
 Alpha  occ. eigenvalues --   -0.92993  -0.90127  -0.70868  -0.67578  -0.61474
 Alpha  occ. eigenvalues --   -0.57821  -0.57174  -0.53505  -0.47573  -0.44116
 Alpha  occ. eigenvalues --   -0.40884  -0.37825  -0.36279  -0.35010  -0.33782
 Alpha  occ. eigenvalues --   -0.33047  -0.31747  -0.30847  -0.29211  -0.28231
 Alpha  occ. eigenvalues --   -0.27712  -0.26963  -0.25333  -0.25227  -0.23269
 Alpha  occ. eigenvalues --   -0.22376  -0.21696  -0.21283  -0.20420  -0.18237
 Alpha  occ. eigenvalues --   -0.15783   0.04687
 Alpha virt. eigenvalues --    0.07193   0.07869   0.08421   0.09736   0.09938
 Alpha virt. eigenvalues --    0.10136   0.10734   0.11486   0.12132   0.12407
 Alpha virt. eigenvalues --    0.12934   0.13417   0.14000   0.15335   0.15686

  Beta  occ. eigenvalues --  -19.01456 -19.01023 -10.12035 -10.10203 -10.06088
  Beta  occ. eigenvalues --  -10.05635 -10.05593 -10.05389 -10.05030 -10.04818
  Beta  occ. eigenvalues --   -0.92924  -0.90053  -0.70837  -0.67531  -0.61427
  Beta  occ. eigenvalues --   -0.57784  -0.57087  -0.53440  -0.47496  -0.44059
  Beta  occ. eigenvalues --   -0.40831  -0.37762  -0.36231  -0.34960  -0.33734
  Beta  occ. eigenvalues --   -0.32996  -0.31715  -0.30808  -0.29166  -0.28209
  Beta  occ. eigenvalues --   -0.27672  -0.26932  -0.25278  -0.25198  -0.23232
  Beta  occ. eigenvalues --   -0.22342  -0.21650  -0.21256  -0.20382  -0.18194
  Beta  occ. eigenvalues --   -0.15746
  Beta virt. eigenvalues --    0.06999   0.08129   0.08723   0.08791   0.10242
  Beta virt. eigenvalues --    0.10386   0.10689   0.11205   0.11790   0.12607
  Beta virt. eigenvalues --    0.12754   0.13248   0.13763   0.14242   0.15544

 Mulliken charges and spin densities:
               1          2
     1  C    0.169446  -0.931516
     2  C   -1.135065   1.580643
     3  C    0.090903  -0.665670
     4  C    0.659063  -0.847170
     5  C    0.799935  -1.223922
     6  C   -2.457842   2.465539
     7  C    2.666171  -3.313734
     8  C    0.544019  -0.922693
     9  O   -0.242882   0.031947
    10  O   -0.241526   0.024760
    11  H   -0.048148   0.166593
    12  H    0.104975   0.073388
    13  H   -0.020320   0.144828
    14  H    0.001063   0.187912
    15  H    0.015086   0.102382
    16  H   -0.134035   0.266887
    17  H   -0.172736   0.302409
    18  H    0.170003  -0.035148
    19  H   -0.003192   0.158043
    20  H   -0.364482   0.541630
    21  H    0.398501  -0.255176
    22  H   -0.383780   0.546396
    23  H   -0.674575   0.827070
    24  H   -0.218926   0.385605
    25  H   -0.304185   0.450879
    26  H   -0.035843   0.209879
    27  H    0.093835   0.178952
    28  H   -0.275461   0.549288
 Sum of Mulliken charges =  -1.00000   1.00000

 Dipole moment (field-independent basis, Debye):
    X=             -2.9688    Y=             -3.0674    Z=              2.8805  Tot=              5.1497
 Quadrupole moment (field-independent basis, Debye-Ang):
   XX=           -120.0969   YY=           -104.1308   ZZ=           -103.0682
   XY=             -2.2679   XZ=              2.6936   YZ=              2.5786

 Summary of Natural Population Analysis:

                                       Natural Population
                Natural  -----------------------------------------------
    Atom  No    Charge         Core      Valence    Rydberg      Total
 -----------------------------------------------------------------------
      C    1   -0.28414      0.99965     2.27949    0.00500     3.28414
      C    2   -0.12115      0.99961     2.11136    0.01018     3.12115
      C    3   -0.28040      0.99965     2.27602    0.00473     3.28040
      C    4   -0.18683      0.99961     2.17740    0.00982     3.18683
      C    5   -0.19858      0.99957     2.18713    0.01188     3.19858
      C    6    0.11626      0.99953     1.86818    0.01603     2.88374
      C    7   -0.30244      0.99961     2.29528    0.00754     3.30244
      C    8   -0.01407      0.99953     2.00077    0.01377     3.01407
      O    9   -0.37354      0.99990     3.36692    0.00672     4.37354
      O   10   -0.39060      0.99989     3.38274    0.00797     4.39060
      H   11    0.09005      0.00000     0.40901    0.00094     0.40995
      H   12    0.10676      0.00000     0.39201    0.00123     0.39324
      H   13    0.09591      0.00000     0.40319    0.00089     0.40409
      H   14    0.10317      0.00000     0.39444    0.00239     0.39683
      H   15    0.09166      0.00000     0.40728    0.00106     0.40834
      H   16    0.09852      0.00000     0.40045    0.00104     0.40148
      H   17    0.09643      0.00000     0.40262    0.00095     0.40357
      H   18    0.09808      0.00000     0.40066    0.00126     0.40192
      H   19    0.09335      0.00000     0.40563    0.00101     0.40665
      H   20    0.10229      0.00000     0.39674    0.00097     0.39771
      H   21    0.10488      0.00000     0.39355    0.00157     0.39512
      H   22    0.10614      0.00000     0.39180    0.00206     0.39386
      H   23    0.10509      0.00000     0.39169    0.00322     0.39491
      H   24    0.10620      0.00000     0.39210    0.00170     0.39380
      H   25    0.07760      0.00000     0.42043    0.00196     0.42240
      H   26    0.08733      0.00000     0.41132    0.00135     0.41267
      H   27    0.23349      0.00000     0.26301    0.00350     0.26651
      H   28    0.23854      0.00000     0.25087    0.01059     0.26146
 =======================================================================
   * Total *    0.00000      9.99655    30.87210    0.13135    41.00000

 Normal termination of Gaussian 16 at Tue Dec  8 14:16:53 2020.
