 Gaussian 16, Revision A.03,

 -----------------------------------------------------------
 # opt freq B3LYP/6-31G(d) empiricaldispersion=gd3bj scf=xqc
 -----------------------------------------------------------

 ------------------------------
 CID_83171414_JID_8475_neutraal
 ------------------------------
 Symbolic Z-matrix:
 Charge =  0 Multiplicity = 1

 SCF Done:  E(RB3LYP) =  -790.674189353     A.U. after   15 cycles
 SCF Done:  E(RB3LYP) =  -790.679821015     A.U. after   12 cycles
 SCF Done:  E(RB3LYP) =  -790.680067260     A.U. after   13 cycles
 SCF Done:  E(RB3LYP) =  -790.680411877     A.U. after   13 cycles
 SCF Done:  E(RB3LYP) =  -790.681778598     A.U. after   12 cycles
 SCF Done:  E(RB3LYP) =  -790.682277664     A.U. after   13 cycles
 SCF Done:  E(RB3LYP) =  -790.681490593     A.U. after   13 cycles
 SCF Done:  E(RB3LYP) =  -790.682523874     A.U. after   13 cycles
 SCF Done:  E(RB3LYP) =  -790.682717625     A.U. after   12 cycles
 SCF Done:  E(RB3LYP) =  -790.682772288     A.U. after   12 cycles
 SCF Done:  E(RB3LYP) =  -790.682798971     A.U. after    9 cycles
 SCF Done:  E(RB3LYP) =  -790.682800212     A.U. after    9 cycles
 SCF Done:  E(RB3LYP) =  -790.682800534     A.U. after    7 cycles
 SCF Done:  E(RB3LYP) =  -790.682800670     A.U. after    8 cycles
 SCF Done:  E(RB3LYP) =  -790.682800698     A.U. after    7 cycles
 Optimization completed.
    -- Stationary point found.
 Normal termination of Gaussian 16 at Fri Dec 11 20:06:05 2020.

 --------------------------------------------------------------------
 #N Geom=AllCheck Guess=TCheck SCRF=Check GenChk RB3LYP/6-31G(d) Freq
 --------------------------------------------------------------------

 Structure from the checkpoint file:  "JID_8475.chk"
 ------------------------------
 CID_83171414_JID_8475_neutraal
 ------------------------------
 Charge =  0 Multiplicity = 1

 SCF Done:  E(RB3LYP) =  -790.682800698     A.U. after    1 cycles

  Exact polarizability: 175.308  -8.114 157.976  11.991   5.080 141.154
 Approx polarizability: 222.565 -18.163 231.900  27.537   9.271 241.601

                      1                      2                      3
                      A                      A                      A
 Frequencies --     17.3255                35.3591                51.9768
 Red. masses --      5.5027                 3.7184                 3.4173
 Frc consts  --      0.0010                 0.0027                 0.0054
 IR Inten    --      0.1404                 0.2730                 0.1037

                      4                      5                      6
                      A                      A                      A
 Frequencies --     70.3982                85.8093               120.5741
 Red. masses --      3.6998                 3.9794                 6.4070
 Frc consts  --      0.0108                 0.0173                 0.0549
 IR Inten    --      0.6440                 0.2011                 3.6777

                      7                      8                      9
                      A                      A                      A
 Frequencies --    164.4526               169.5456               204.8384
 Red. masses --      4.3907                 2.6342                 1.8851
 Frc consts  --      0.0700                 0.0446                 0.0466
 IR Inten    --      4.3175                 1.4747                 0.0761

                     10                     11                     12
                      A                      A                      A
 Frequencies --    218.0972               234.5521               258.9217
 Red. masses --      1.7282                 4.4600                 1.4781
 Frc consts  --      0.0484                 0.1446                 0.0584
 IR Inten    --      0.4916                 0.6900                 0.3894

                     13                     14                     15
                      A                      A                      A
 Frequencies --    277.5646               304.9866               311.3050
 Red. masses --      2.7003                 2.8027                 2.5110
 Frc consts  --      0.1226                 0.1536                 0.1434
 IR Inten    --      0.7330                 1.8663                 0.2831

                     16                     17                     18
                      A                      A                      A
 Frequencies --    323.2458               336.8471               368.5553
 Red. masses --      1.1720                 2.5064                 2.9727
 Frc consts  --      0.0722                 0.1676                 0.2379
 IR Inten    --      0.1041                 1.6737                 2.5119

                     19                     20                     21
                      A                      A                      A
 Frequencies --    384.1690               401.6829               426.2816
 Red. masses --      2.5144                 2.3521                 3.5723
 Frc consts  --      0.2186                 0.2236                 0.3825
 IR Inten    --      0.6550                 1.8642                 0.5668

                     22                     23                     24
                      A                      A                      A
 Frequencies --    433.2795               483.3435               520.9956
 Red. masses --      2.6098                 2.3831                 1.6174
 Frc consts  --      0.2887                 0.3280                 0.2587
 IR Inten    --      0.7171                 1.3620                 0.8079

                     25                     26                     27
                      A                      A                      A
 Frequencies --    554.1712               595.8945               620.1844
 Red. masses --      2.5484                 3.6789                 4.0779
 Frc consts  --      0.4611                 0.7697                 0.9241
 IR Inten    --      8.0259                 5.1101                 9.0882

                     28                     29                     30
                      A                      A                      A
 Frequencies --    621.8730               642.4694               690.9040
 Red. masses --      3.9877                 3.2102                 2.7268
 Frc consts  --      0.9086                 0.7807                 0.7669
 IR Inten    --      8.0942                 5.6282                19.7653

                     31                     32                     33
                      A                      A                      A
 Frequencies --    725.5788               746.5776               773.6273
 Red. masses --      1.3924                 2.4043                 1.4133
 Frc consts  --      0.4319                 0.7896                 0.4984
 IR Inten    --      3.2893                 0.9589                53.9714

                     34                     35                     36
                      A                      A                      A
 Frequencies --    788.2860               823.1310               836.5971
 Red. masses --      2.2177                 3.4989                 1.5434
 Frc consts  --      0.8119                 1.3968                 0.6364
 IR Inten    --      1.2256                 4.2273                 1.9018

                     37                     38                     39
                      A                      A                      A
 Frequencies --    860.9739               865.0585               896.2500
 Red. masses --      1.6099                 1.5361                 5.7079
 Frc consts  --      0.7031                 0.6773                 2.7014
 IR Inten    --      2.0833                 4.2792                28.3377

                     40                     41                     42
                      A                      A                      A
 Frequencies --    902.7226               908.4311               924.1791
 Red. masses --      2.5356                 1.8694                 1.9090
 Frc consts  --      1.2174                 0.9090                 0.9606
 IR Inten    --      5.4507                 1.1244                 6.1216

                     43                     44                     45
                      A                      A                      A
 Frequencies --    955.0874               960.1282               985.5064
 Red. masses --      1.8231                 1.7587                 1.9933
 Frc consts  --      0.9798                 0.9552                 1.1406
 IR Inten    --      3.9093                 2.4160                 5.2244

                     46                     47                     48
                      A                      A                      A
 Frequencies --   1000.3804              1001.8569              1029.4093
 Red. masses --      3.3757                 2.2379                 1.4442
 Frc consts  --      1.9904                 1.3234                 0.9017
 IR Inten    --     14.8272                 6.3767                 3.2484

                     49                     50                     51
                      A                      A                      A
 Frequencies --   1035.2039              1062.4950              1066.2228
 Red. masses --      1.5473                 1.9945                 1.9834
 Frc consts  --      0.9770                 1.3266                 1.3285
 IR Inten    --      7.6545                24.3414                 7.9005

                     52                     53                     54
                      A                      A                      A
 Frequencies --   1068.2322              1084.3445              1106.5070
 Red. masses --      2.0922                 1.8642                 1.9404
 Frc consts  --      1.4066                 1.2914                 1.3998
 IR Inten    --     33.8778                25.7458                23.0891

                     55                     56                     57
                      A                      A                      A
 Frequencies --   1130.3226              1136.0962              1162.7287
 Red. masses --      2.0195                 1.9751                 3.0609
 Frc consts  --      1.5202                 1.5020                 2.4381
 IR Inten    --      9.5925                 2.1856                 7.1090

                     58                     59                     60
                      A                      A                      A
 Frequencies --   1194.2906              1208.2428              1211.1608
 Red. masses --      1.8208                 2.5339                 1.3524
 Frc consts  --      1.5301                 2.1795                 1.1689
 IR Inten    --     37.7968                19.1283                 6.9125

                     61                     62                     63
                      A                      A                      A
 Frequencies --   1231.8250              1235.3515              1260.5660
 Red. masses --      1.8979                 2.0929                 1.8320
 Frc consts  --      1.6968                 1.8818                 1.7152
 IR Inten    --     21.6126                27.5703                 8.4283

                     64                     65                     66
                      A                      A                      A
 Frequencies --   1273.8713              1279.8920              1285.2615
 Red. masses --      1.3611                 1.7378                 1.4956
 Frc consts  --      1.3013                 1.6772                 1.4556
 IR Inten    --      6.8828                26.4942                 5.1807

                     67                     68                     69
                      A                      A                      A
 Frequencies --   1296.9537              1315.5900              1322.0329
 Red. masses --      1.9500                 1.4352                 1.6686
 Frc consts  --      1.9326                 1.4635                 1.7183
 IR Inten    --      3.2780                12.1615                14.4877

                     70                     71                     72
                      A                      A                      A
 Frequencies --   1329.8140              1364.1523              1380.3956
 Red. masses --      1.1921                 1.4730                 1.2771
 Frc consts  --      1.2421                 1.6150                 1.4338
 IR Inten    --      3.0583                15.8048                 0.0694

                     73                     74                     75
                      A                      A                      A
 Frequencies --   1401.2862              1409.6719              1413.4885
 Red. masses --      1.3482                 1.4289                 1.3447
 Frc consts  --      1.5597                 1.6730                 1.5829
 IR Inten    --      6.2245                 5.7187                 6.5735

                     76                     77                     78
                      A                      A                      A
 Frequencies --   1416.9905              1424.5489              1426.7198
 Red. masses --      1.3573                 1.3235                 2.9729
 Frc consts  --      1.6057                 1.5824                 3.5654
 IR Inten    --      3.2648                 0.5024                 4.3000

                     79                     80                     81
                      A                      A                      A
 Frequencies --   1444.3960              1445.8030              1500.7322
 Red. masses --      1.2985                 1.2598                 1.0841
 Frc consts  --      1.5961                 1.5516                 1.4386
 IR Inten    --     14.5647                 8.0829                 2.8737

                     82                     83                     84
                      A                      A                      A
 Frequencies --   1504.4057              1511.3054              1513.1474
 Red. masses --      1.0924                 1.0636                 1.0851
 Frc consts  --      1.4567                 1.4313                 1.4638
 IR Inten    --      1.2882                 3.5311                 5.3697

                     85                     86                     87
                      A                      A                      A
 Frequencies --   1521.6902              1522.7733              1525.3481
 Red. masses --      1.0566                 1.0906                 1.0681
 Frc consts  --      1.4415                 1.4899                 1.4642
 IR Inten    --      2.9385                 1.9531                 4.5155

                     88                     89                     90
                      A                      A                      A
 Frequencies --   1531.8505              1543.0046              1549.0877
 Red. masses --      1.0737                 1.0660                 3.9369
 Frc consts  --      1.4845                 1.4953                 5.5662
 IR Inten    --      4.8330                 9.2323                15.4611

                     91                     92                     93
                      A                      A                      A
 Frequencies --   1551.2564              1554.7497              1645.7296
 Red. masses --      1.0655                 1.0867                 5.8053
 Frc consts  --      1.5107                 1.5476                 9.2639
 IR Inten    --     15.4931                 6.9673                 1.6128

                     94                     95                     96
                      A                      A                      A
 Frequencies --   1793.0516              2999.1262              3016.0635
 Red. masses --     11.6798                 1.0703                 1.0649
 Frc consts  --     22.1244                 5.6721                 5.7075
 IR Inten    --    111.1505                41.7132                19.2320

                     97                     98                     99
                      A                      A                      A
 Frequencies --   3029.0621              3033.4368              3036.0804
 Red. masses --      1.0644                 1.0688                 1.0649
 Frc consts  --      5.7539                 5.7945                 5.7835
 IR Inten    --     36.6921                 8.0157                29.2184

                    100                    101                    102
                      A                      A                      A
 Frequencies --   3045.9589              3059.2794              3062.2984
 Red. masses --      1.0649                 1.0930                 1.0394
 Frc consts  --      5.8214                 6.0268                 5.7426
 IR Inten    --     39.7407                59.2775                 6.9075

                    103                    104                    105
                      A                      A                      A
 Frequencies --   3066.5585              3068.9322              3074.2939
 Red. masses --      1.0582                 1.0932                 1.0427
 Frc consts  --      5.8631                 6.0663                 5.8062
 IR Inten    --     18.1118                18.1834                14.1191

                    106                    107                    108
                      A                      A                      A
 Frequencies --   3076.6165              3083.3868              3095.5200
 Red. masses --      1.0980                 1.0996                 1.0935
 Frc consts  --      6.1235                 6.1593                 6.1738
 IR Inten    --     23.9766                77.0668                73.5463

                    109                    110                    111
                      A                      A                      A
 Frequencies --   3100.6016              3119.1693              3131.7641
 Red. masses --      1.0954                 1.1032                 1.1021
 Frc consts  --      6.2046                 6.3241                 6.3689
 IR Inten    --     39.2019                19.4070                 8.3906

                    112                    113                    114
                      A                      A                      A
 Frequencies --   3143.9284              3146.3457              3159.1656
 Red. masses --      1.1019                 1.1025                 1.1007
 Frc consts  --      6.4173                 6.4304                 6.4727
 IR Inten    --     47.0429                21.3923                21.7224

                    115                    116                    117
                      A                      A                      A
 Frequencies --   3277.4932              3292.7983              3305.2735
 Red. masses --      1.0912                 1.0977                 1.1060
 Frc consts  --      6.9060                 7.0121                 7.1188
 IR Inten    --      0.0550                 0.5409                 1.2234

 - Thermochemistry -
 -------------------
 Temperature   298.150 Kelvin.  Pressure   1.00000 Atm.
 Atom     1 has atomic number  6 and mass  12.00000

 Molecular mass:   249.17288 amu.
 Principal axes and moments of inertia in atomic units:
                           1         2         3
     Eigenvalues --  2365.287657156.172428048.31491
           X            0.99992   0.01225   0.00188
           Y           -0.01230   0.99932   0.03469
           Z           -0.00145  -0.03471   0.99940
 This molecule is an asymmetric top.
 Rotational symmetry number  1.
 Warning -- assumption of classical behavior for rotation
           may cause significant error
 Rotational temperatures (Kelvin)      0.03662     0.01210     0.01076
 Rotational constants (GHZ):           0.76301     0.25219     0.22424
 Zero-point vibrational energy     954196.1 (Joules/Mol)
                                  228.05834 (Kcal/Mol)
 Warning -- explicit consideration of  27 degrees of freedom as
           vibrations may cause significant error
 Vibrational temperatures:     24.93    50.87    74.78   101.29   123.46
          (Kelvin)            173.48   236.61   243.94   294.72   313.79
                              337.47   372.53   399.35   438.81   447.90
                              465.08   484.65   530.27   552.73   577.93
                              613.32   623.39   695.42   749.60   797.33
                              857.36   892.31   894.74   924.37   994.06
                             1043.95  1074.16  1113.08  1134.17  1184.30
                             1203.68  1238.75  1244.63  1289.50  1298.82
                             1307.03  1329.69  1374.16  1381.41  1417.92
                             1439.32  1441.45  1481.09  1489.43  1528.69
                             1534.06  1536.95  1560.13  1592.02  1626.28
                             1634.59  1672.91  1718.32  1738.39  1742.59
                             1772.32  1777.40  1813.67  1832.82  1841.48
                             1849.20  1866.03  1892.84  1902.11  1913.31
                             1962.71  1986.08  2016.14  2028.20  2033.69
                             2038.73  2049.61  2052.73  2078.16  2080.19
                             2159.22  2164.50  2174.43  2177.08  2189.37
                             2190.93  2194.64  2203.99  2220.04  2228.79
                             2231.91  2236.94  2367.84  2579.80  4315.07
                             4339.44  4358.14  4364.44  4368.24  4382.46
                             4401.62  4405.96  4412.09  4415.51  4423.22
                             4426.56  4436.31  4453.76  4461.07  4487.79
                             4505.91  4523.41  4526.89  4545.33  4715.58
                             4737.60  4755.55

 Zero-point correction=                           0.363434 (Hartree/Particle)
 Thermal correction to Energy=                    0.380940
 Thermal correction to Enthalpy=                  0.381885
 Thermal correction to Gibbs Free Energy=         0.317305
 Sum of electronic and zero-point Energies=           -790.319367
 Sum of electronic and thermal Energies=              -790.301860
 Sum of electronic and thermal Enthalpies=            -790.300916
 Sum of electronic and thermal Free Energies=         -790.365495

                     E (Thermal)             CV                S
                      KCal/Mol        Cal/Mol-Kelvin    Cal/Mol-Kelvin
 Total                  239.044             68.886            135.918
 Electronic               0.000              0.000              0.000
 Translational            0.889              2.981             42.439
 Rotational               0.889              2.981             33.276
 Vibrational            237.266             62.925             60.202
 Vibration     1          0.593              1.986              6.919
 Vibration     2          0.594              1.982              5.503
 Vibration     3          0.596              1.977              4.741
 Vibration     4          0.598              1.968              4.142
 Vibration     5          0.601              1.959              3.753
 Vibration     6          0.609              1.932              3.091
 Vibration     7          0.623              1.886              2.498
 Vibration     8          0.625              1.880              2.441
 Vibration     9          0.640              1.833              2.089
 Vibration    10          0.646              1.814              1.975
 Vibration    11          0.654              1.788              1.844
 Vibration    12          0.668              1.748              1.669
 Vibration    13          0.679              1.715              1.549
 Vibration    14          0.696              1.664              1.389
 Vibration    15          0.700              1.652              1.355
 Vibration    16          0.708              1.629              1.294
 Vibration    17          0.718              1.602              1.227
 Vibration    18          0.741              1.537              1.086
 Vibration    19          0.753              1.504              1.023
 Vibration    20          0.767              1.466              0.956
 Vibration    21          0.788              1.413              0.871
 Vibration    22          0.794              1.398              0.848
 Vibration    23          0.840              1.287              0.701
 Vibration    24          0.876              1.204              0.608
 Vibration    25          0.910              1.131              0.536
 Vibration    26          0.954              1.041              0.457
 Vibration    27          0.980              0.989              0.416

 Optimization completed.
    -- Stationary point found.
 Normal termination of Gaussian 16 at Fri Dec 11 20:26:44 2020.

 ----------------------------------------------------------------------
 # B3LYP/6-311++G(d,p) empiricaldispersion=gd3bj scf=xqc pop=npa geom=c
 heck
 ----------------------------------------------------------------------

 --------------------------------------
 CID_83171414_JID_8475_Energie_neutraal
 --------------------------------------
 Structure from the checkpoint file:  "JID_8475.chk"
 Charge =  0 Multiplicity = 1

 SCF Done:  E(RB3LYP) =  -790.899317998     A.U. after   15 cycles
 Normal termination of Gaussian 16 at Fri Dec 11 20:35:18 2020.

 ----------------------------------------------------------------------
 # B3LYP/6-311++G(d,p) empiricaldispersion=gd3bj scf=xqc pop=npa geom=c
 heck
 ----------------------------------------------------------------------

 ------------------------------------
 CID_83171414_JID_8475_Energie_kation
 ------------------------------------
 Structure from the checkpoint file:  "JID_8475.chk"
 Charge =  1 Multiplicity = 2

 SCF Done:  E(UB3LYP) =  -790.633586781     A.U. after   23 cycles
 Normal termination of Gaussian 16 at Fri Dec 11 20:53:20 2020.
 Gaussian 16:  ES64L-G16RevA.03 25-Dec-2016

 ----------------------------------------------------------------------
 # B3LYP/6-311++G(d,p) empiricaldispersion=gd3bj scf=xqc pop=npa geom=c
 heck
 ----------------------------------------------------------------------

 -----------------------------------
 CID_83171414_JID_8475_Energie_anion
 -----------------------------------
 Structure from the checkpoint file:  "JID_8475.chk"
 Charge = -1 Multiplicity = 2

                         Standard orientation:
 ---------------------------------------------------------------------
 Center     Atomic      Atomic             Coordinates (Angstroms)
 Number     Number       Type             X           Y           Z
 ---------------------------------------------------------------------
      1          6           0        0.617572   -2.562832   -0.948274
      2          6           0        0.272648   -1.111325   -0.545954
      3          6           0       -0.349314   -0.431098   -1.786673
      4          6           0       -0.741203   -1.225016    0.622527
      5          8           0       -0.397259   -1.042579    1.775784
      6          6           0       -2.212580   -1.545858    0.329351
      7          6           0       -2.974763   -0.255248    0.200348
      8          6           0       -3.788495    0.140468   -0.819067
      9          8           0       -4.282465    1.391391   -0.585426
     10          6           0       -3.763868    1.802643    0.608932
     11          6           0       -2.958180    0.841972    1.134772
     12          7           0        1.469503   -0.361399   -0.153755
     13          6           0        1.205139    1.006435    0.317474
     14          6           0        1.972600    2.039319   -0.517719
     15          6           0        3.488846    2.050568   -0.284312
     16          6           0        4.174588    0.675021   -0.311064
     17          6           0        3.751974   -0.227532    0.861820
     18          6           0        2.493529   -1.074691    0.611444
     19          1           0       -0.266240   -3.054982   -1.365165
     20          1           0        0.968117   -3.159753   -0.102753
     21          1           0        1.394454   -2.552018   -1.719615
     22          1           0       -1.214460   -0.983662   -2.162556
     23          1           0       -0.675055    0.590977   -1.584785
     24          1           0        0.411838   -0.401013   -2.571570
     25          1           0       -2.332346   -2.147798   -0.575831
     26          1           0       -2.583536   -2.125270    1.181892
     27          1           0       -4.105248   -0.327926   -1.738425
     28          1           0       -4.064302    2.786639    0.934147
     29          1           0       -2.405434    0.881151    2.062265
     30          1           0        1.444830    1.107031    1.384600
     31          1           0        0.134649    1.218847    0.247269
     32          1           0        1.575546    3.042742   -0.307565
     33          1           0        1.763603    1.828072   -1.573854
     34          1           0        3.955947    2.705543   -1.031659
     35          1           0        3.694847    2.509969    0.693814
     36          1           0        3.972226    0.169114   -1.263774
     37          1           0        5.259101    0.835882   -0.261905
     38          1           0        4.560667   -0.926419    1.110014
     39          1           0        3.617445    0.395961    1.754708
     40          1           0        2.797961   -1.946160    0.024720
     41          1           0        2.115703   -1.444596    1.577818
 ---------------------------------------------------------------------

 SCF Done:  E(UB3LYP) =  -790.888048068     A.U. after   33 cycles
 SCF Done:  E(UB3LYP) =  -790.888048068     a.u. after    1 cycles

 The electronic state is 2-A.
 Alpha  occ. eigenvalues --  -19.08898 -18.98548 -14.19257 -10.12537 -10.12406
 Alpha  occ. eigenvalues --  -10.11365 -10.10951 -10.08343 -10.08297 -10.07922
 Alpha  occ. eigenvalues --  -10.07257 -10.07197 -10.06744 -10.06688 -10.06599
 Alpha  occ. eigenvalues --  -10.06547 -10.06154 -10.05548  -1.01241  -0.92389
 Alpha  occ. eigenvalues --   -0.81749  -0.72002  -0.70954  -0.67507  -0.66736
 Alpha  occ. eigenvalues --   -0.65455  -0.61450  -0.59313  -0.57690  -0.55341
 Alpha  occ. eigenvalues --   -0.51320  -0.49167  -0.47359  -0.46881  -0.46070
 Alpha  occ. eigenvalues --   -0.43053  -0.41099  -0.38778  -0.37393  -0.36965
 Alpha  occ. eigenvalues --   -0.35636  -0.34870  -0.34523  -0.34237  -0.33169
 Alpha  occ. eigenvalues --   -0.32587  -0.31647  -0.31303  -0.31116  -0.30661
 Alpha  occ. eigenvalues --   -0.29136  -0.28687  -0.28394  -0.27725  -0.27544
 Alpha  occ. eigenvalues --   -0.26502  -0.26062  -0.24828  -0.24105  -0.23169
 Alpha  occ. eigenvalues --   -0.22705  -0.22337  -0.22039  -0.21188  -0.17862
 Alpha  occ. eigenvalues --   -0.14460  -0.13025  -0.09595   0.04494
 Alpha virt. eigenvalues --    0.06006   0.07108   0.07217   0.07643   0.08308
 Alpha virt. eigenvalues --    0.08513   0.08954   0.09693   0.09787   0.10228
 Alpha virt. eigenvalues --    0.10778   0.11131   0.11282   0.11739   0.12150

  Beta  occ. eigenvalues --  -19.08866 -18.98361 -14.19250 -10.12395 -10.12294
  Beta  occ. eigenvalues --  -10.11302 -10.10965 -10.08338 -10.08292 -10.07906
  Beta  occ. eigenvalues --  -10.07261 -10.07199 -10.06734 -10.06681 -10.06587
  Beta  occ. eigenvalues --  -10.06524 -10.06149 -10.05519  -1.01181  -0.92010
  Beta  occ. eigenvalues --   -0.81724  -0.71927  -0.70922  -0.67442  -0.66716
  Beta  occ. eigenvalues --   -0.65396  -0.61313  -0.59258  -0.57664  -0.55313
  Beta  occ. eigenvalues --   -0.51127  -0.49136  -0.47262  -0.46830  -0.45974
  Beta  occ. eigenvalues --   -0.42964  -0.41007  -0.38642  -0.37282  -0.36930
  Beta  occ. eigenvalues --   -0.35485  -0.34813  -0.34481  -0.34185  -0.33046
  Beta  occ. eigenvalues --   -0.32372  -0.31548  -0.31211  -0.31070  -0.30607
  Beta  occ. eigenvalues --   -0.29031  -0.28635  -0.28338  -0.27667  -0.27497
  Beta  occ. eigenvalues --   -0.26456  -0.25963  -0.24705  -0.23557  -0.23134
  Beta  occ. eigenvalues --   -0.22684  -0.22267  -0.21926  -0.21077  -0.17764
  Beta  occ. eigenvalues --   -0.14331  -0.12857  -0.09521
  Beta virt. eigenvalues --    0.06392   0.07149   0.07444   0.07875   0.08189
  Beta virt. eigenvalues --    0.08636   0.09042   0.09487   0.09836   0.10174
  Beta virt. eigenvalues --    0.10482   0.10881   0.11338   0.11563   0.11916

 Mulliken charges and spin densities:
               1          2
     1  C    0.096102  -0.693792
     2  C   -1.093357   0.640605
     3  C   -0.266403  -0.368964
     4  C    0.052104   0.449696
     5  O   -0.229719   0.076761
     6  C    1.812328  -2.928495
     7  C    0.115717   0.044530
     8  C   -0.749766   0.487609
     9  O    0.003327   0.007767
    10  C    0.019223  -0.491635
    11  C   -0.422557   0.924365
    12  N    0.591296   0.065003
    13  C   -0.109484  -0.109727
    14  C   -0.412593   0.061393
    15  C   -0.106386  -0.357917
    16  C    0.216442  -0.342755
    17  C   -0.268932  -0.074768
    18  C   -0.116774  -0.100050
    19  H   -0.246849   0.397942
    20  H    0.044599   0.125562
    21  H    0.192409  -0.035906
    22  H    0.033103   0.094723
    23  H    0.112869   0.054998
    24  H    0.019231   0.157768
    25  H   -0.109443   0.277284
    26  H   -0.009798   0.227054
    27  H   -0.911666   1.100270
    28  H    0.038626   0.109258
    29  H    0.110590   0.093462
    30  H    0.139471   0.037589
    31  H    0.322796  -0.205361
    32  H    0.036022   0.095686
    33  H    0.075796   0.036338
    34  H   -0.151315   0.310552
    35  H    0.111805   0.005684
    36  H    0.139174  -0.014937
    37  H   -0.317546   0.487224
    38  H   -0.077226   0.243980
    39  H    0.121895   0.014792
    40  H    0.060348   0.046677
    41  H    0.134541   0.049734
 Sum of Mulliken charges =  -1.00000   1.00000

 Dipole moment (field-independent basis, Debye):
    X=              1.9821    Y=              2.4473    Z=              1.7024  Tot=              3.5799
 Quadrupole moment (field-independent basis, Debye-Ang):
   XX=           -199.7575   YY=           -146.3972   ZZ=           -145.4312
   XY=            -15.6646   XZ=             -7.2719   YZ=              2.1385

 Summary of Natural Population Analysis:

                                       Natural Population
                Natural  -----------------------------------------------
    Atom  No    Charge         Core      Valence    Rydberg      Total
 -----------------------------------------------------------------------
      C    1   -0.28440      0.99962     2.27816    0.00662     3.28440
      C    2    0.03399      0.99952     1.95155    0.01495     2.96601
      C    3   -0.28719      0.99962     2.27975    0.00782     3.28719
      C    4    0.33006      0.99959     1.64705    0.02329     2.66994
      O    5   -0.28443      0.99987     3.27806    0.00649     4.28443
      C    6   -0.24543      0.99955     2.23436    0.01151     3.24543
      C    7   -0.05785      0.99951     2.04698    0.01136     3.05785
      C    8    0.07025      0.99941     1.91547    0.01486     2.92975
      O    9   -0.23295      0.99987     3.22520    0.00788     4.23295
      C   10    0.05710      0.99952     1.93018    0.01320     2.94290
      C   11   -0.14942      0.99951     2.14039    0.00952     3.14942
      N   12   -0.29559      0.99967     2.78217    0.01374     3.79559
      C   13   -0.08885      0.99961     2.07900    0.01024     3.08885
      C   14   -0.19194      0.99962     2.18363    0.00869     3.19194
      C   15   -0.18620      0.99963     2.17815    0.00843     3.18620
      C   16   -0.19391      0.99963     2.18531    0.00897     3.19391
      C   17   -0.19539      0.99963     2.18724    0.00852     3.19539
      C   18   -0.07916      0.99960     2.06947    0.01009     3.07916
      H   19    0.10477      0.00000     0.39416    0.00107     0.39523
      H   20    0.10285      0.00000     0.39617    0.00097     0.39715
      H   21    0.10160      0.00000     0.39747    0.00094     0.39840
      H   22    0.10165      0.00000     0.39695    0.00140     0.39835
      H   23    0.10342      0.00000     0.39540    0.00118     0.39658
      H   24    0.10185      0.00000     0.39677    0.00138     0.39815
      H   25    0.10981      0.00000     0.38730    0.00290     0.39019
      H   26    0.11488      0.00000     0.38356    0.00156     0.38512
      H   27    0.09819      0.00000     0.39961    0.00220     0.40181
      H   28    0.09171      0.00000     0.40744    0.00085     0.40829
      H   29    0.11629      0.00000     0.38285    0.00086     0.38371
      H   30    0.09133      0.00000     0.40751    0.00116     0.40867
      H   31    0.10073      0.00000     0.39746    0.00181     0.39927
      H   32    0.09258      0.00000     0.40651    0.00091     0.40742
      H   33    0.09662      0.00000     0.40193    0.00145     0.40338
      H   34    0.09626      0.00000     0.40277    0.00097     0.40374
      H   35    0.08858      0.00000     0.41026    0.00116     0.41142
      H   36    0.09800      0.00000     0.40071    0.00129     0.40200
      H   37    0.09617      0.00000     0.40271    0.00111     0.40383
      H   38    0.09912      0.00000     0.40004    0.00084     0.40088
      H   39    0.09163      0.00000     0.40700    0.00137     0.40837
      H   40    0.09003      0.00000     0.40848    0.00149     0.40997
      H   41    0.09323      0.00000     0.40564    0.00112     0.40677
 =======================================================================
   * Total *    0.00000     17.99298    49.78083    0.22618    68.00000

 Normal termination of Gaussian 16 at Fri Dec 11 21:19:15 2020.
