 Gaussian 16, Revision A.03,

 -----------------------------------------------------------
 # opt freq B3LYP/6-31G(d) empiricaldispersion=gd3bj scf=xqc
 -----------------------------------------------------------

 --------------------------------
 CID_115981128_JID_10283_neutraal
 --------------------------------
 Symbolic Z-matrix:
 Charge =  0 Multiplicity = 1

 SCF Done:  E(RB3LYP) =  -1311.16199323     A.U. after   16 cycles
 SCF Done:  E(RB3LYP) =  -1311.16832389     A.U. after   15 cycles
 SCF Done:  E(RB3LYP) =  -1311.16863098     A.U. after   14 cycles
 SCF Done:  E(RB3LYP) =  -1311.16734028     A.U. after   15 cycles
 SCF Done:  E(RB3LYP) =  -1311.16567668     A.U. after   15 cycles
 SCF Done:  E(RB3LYP) =  -1311.16375153     A.U. after   15 cycles
 SCF Done:  E(RB3LYP) =  -1311.16875702     A.U. after    9 cycles
 SCF Done:  E(RB3LYP) =  -1311.16974114     A.U. after   14 cycles
 SCF Done:  E(RB3LYP) =  -1311.16982299     A.U. after   13 cycles
 SCF Done:  E(RB3LYP) =  -1311.16985997     A.U. after   11 cycles
 SCF Done:  E(RB3LYP) =  -1311.16989435     A.U. after   12 cycles
 SCF Done:  E(RB3LYP) =  -1311.16990728     A.U. after   11 cycles
 SCF Done:  E(RB3LYP) =  -1311.16991539     A.U. after   11 cycles
 SCF Done:  E(RB3LYP) =  -1311.16991873     A.U. after   11 cycles
 SCF Done:  E(RB3LYP) =  -1311.16991910     A.U. after    9 cycles
 SCF Done:  E(RB3LYP) =  -1311.16991922     A.U. after    8 cycles
 Optimization completed.
    -- Stationary point found.
 Normal termination of Gaussian 16 at Mon Dec 14 17:36:44 2020.

 --------------------------------------------------------------------
 #N Geom=AllCheck Guess=TCheck SCRF=Check GenChk RB3LYP/6-31G(d) Freq
 --------------------------------------------------------------------

 Structure from the checkpoint file:  "JID_10283.chk"
 --------------------------------
 CID_115981128_JID_10283_neutraal
 --------------------------------
 Charge =  0 Multiplicity = 1

 SCF Done:  E(RB3LYP) =  -1311.16991922     A.U. after    1 cycles

  Exact polarizability: 207.556   7.275 179.460 -19.541 -17.362 135.225
 Approx polarizability: 307.422   7.673 315.334 -50.094 -45.108 238.811

                      1                      2                      3
                      A                      A                      A
 Frequencies --     19.5262                27.8474                30.5125
 Red. masses --      7.2100                 3.7871                 1.2615
 Frc consts  --      0.0016                 0.0017                 0.0007
 IR Inten    --      0.6677                 0.4951                 0.0796

                      4                      5                      6
                      A                      A                      A
 Frequencies --     34.4878                52.8929                54.5758
 Red. masses --      4.8143                11.6216                 9.5379
 Frc consts  --      0.0034                 0.0192                 0.0167
 IR Inten    --      0.0203                 1.4262                 1.4741

                      7                      8                      9
                      A                      A                      A
 Frequencies --     71.1760                94.1135               134.2350
 Red. masses --      6.7028                 6.6634                 6.9627
 Frc consts  --      0.0200                 0.0348                 0.0739
 IR Inten    --      0.8282                 0.7307                 0.2224

                     10                     11                     12
                      A                      A                      A
 Frequencies --    171.3120               190.8680               191.2917
 Red. masses --      6.0850                 5.8786                 5.4056
 Frc consts  --      0.1052                 0.1262                 0.1165
 IR Inten    --      2.5355                 0.1734                 1.6118

                     13                     14                     15
                      A                      A                      A
 Frequencies --    223.0408               242.4117               261.8359
 Red. masses --      3.2536                 4.8312                 4.5430
 Frc consts  --      0.0954                 0.1673                 0.1835
 IR Inten    --      2.4700                 0.5541                 0.6387

                     16                     17                     18
                      A                      A                      A
 Frequencies --    284.9777               371.1950               387.8083
 Red. masses --      5.9225                 6.9667                 5.4620
 Frc consts  --      0.2834                 0.5656                 0.4840
 IR Inten    --      1.1103                 1.0471                 7.6489

                     19                     20                     21
                      A                      A                      A
 Frequencies --    410.2243               428.0612               491.9253
 Red. masses --      6.0821                 1.6114                 4.5635
 Frc consts  --      0.6030                 0.1740                 0.6507
 IR Inten    --      4.1454               102.7767                 1.3243

                     22                     23                     24
                      A                      A                      A
 Frequencies --    498.7646               503.0941               538.6020
 Red. masses --      3.7832                 4.1459                 3.5033
 Frc consts  --      0.5545                 0.6183                 0.5988
 IR Inten    --      7.9979                 2.3525                 5.4007

                     25                     26                     27
                      A                      A                      A
 Frequencies --    559.3074               576.2322               582.0237
 Red. masses --      3.8777                 3.4108                 4.1917
 Frc consts  --      0.7147                 0.6673                 0.8366
 IR Inten    --     26.4986                 6.6499                 0.6728

                     28                     29                     30
                      A                      A                      A
 Frequencies --    603.6866               619.9061               664.9434
 Red. masses --      4.0768                 2.2954                 2.8543
 Frc consts  --      0.8754                 0.5197                 0.7436
 IR Inten    --     46.7365                70.7505                60.4758

                     31                     32                     33
                      A                      A                      A
 Frequencies --    675.2264               681.2627               689.4131
 Red. masses --      4.1770                 3.8620                 2.7420
 Frc consts  --      1.1221                 1.0561                 0.7678
 IR Inten    --      1.7732                25.4210                14.2326

                     34                     35                     36
                      A                      A                      A
 Frequencies --    711.9743               753.9639               758.4948
 Red. masses --      1.1875                 6.2908                 5.5207
 Frc consts  --      0.3546                 2.1070                 1.8713
 IR Inten    --     68.0909                 7.8386                25.4858

                     37                     38                     39
                      A                      A                      A
 Frequencies --    794.1691               802.9195               837.6524
 Red. masses --      7.1249                 5.5531                 1.4444
 Frc consts  --      2.6476                 2.1093                 0.5971
 IR Inten    --     15.7873                26.7432                 6.6760

                     40                     41                     42
                      A                      A                      A
 Frequencies --    861.8926               872.2607               875.5406
 Red. masses --      1.3500                 4.1462                 1.6540
 Frc consts  --      0.5909                 1.8586                 0.7470
 IR Inten    --      9.3098                 4.8718                19.5609

                     43                     44                     45
                      A                      A                      A
 Frequencies --    905.2209               909.4937               923.1161
 Red. masses --      1.4854                 1.4673                 3.0582
 Frc consts  --      0.7172                 0.7151                 1.5354
 IR Inten    --      9.4968                 1.8906                 6.4911

                     46                     47                     48
                      A                      A                      A
 Frequencies --    952.4347              1000.9317              1022.0976
 Red. masses --      6.5429                 2.5501                 4.7738
 Frc consts  --      3.4970                 1.5053                 2.9383
 IR Inten    --     18.4971                 5.8031                 8.8774

                     49                     50                     51
                      A                      A                      A
 Frequencies --   1063.4824              1070.2913              1076.7992
 Red. masses --      1.9306                 1.5786                 1.5132
 Frc consts  --      1.2865                 1.0654                 1.0337
 IR Inten    --      9.1573                 5.8723                 5.6924

                     52                     53                     54
                      A                      A                      A
 Frequencies --   1115.5508              1129.2239              1150.6430
 Red. masses --      1.2426                 1.5804                 2.8782
 Frc consts  --      0.9111                 1.1874                 2.2452
 IR Inten    --      0.5802                32.4770                16.3078

                     55                     56                     57
                      A                      A                      A
 Frequencies --   1183.9602              1190.2480              1217.9452
 Red. masses --      2.7644                 2.9420                 1.9624
 Frc consts  --      2.2831                 2.4557                 1.7151
 IR Inten    --    173.2054                49.3957                38.6534

                     58                     59                     60
                      A                      A                      A
 Frequencies --   1254.8897              1300.3983              1312.3894
 Red. masses --      1.4181                 1.5131                 1.3386
 Frc consts  --      1.3158                 1.5075                 1.3584
 IR Inten    --     14.9461                21.2170                 3.1529

                     61                     62                     63
                      A                      A                      A
 Frequencies --   1335.6575              1361.6639              1372.8436
 Red. masses --      1.4458                 2.0489                 2.7308
 Frc consts  --      1.5197                 2.2383                 3.0324
 IR Inten    --     38.2029                46.0344                17.2660

                     64                     65                     66
                      A                      A                      A
 Frequencies --   1394.2926              1399.8365              1410.4771
 Red. masses --      5.0486                14.1080                 2.0479
 Frc consts  --      5.7827                16.2881                 2.4005
 IR Inten    --     75.0225               345.8704                 4.7455

                     67                     68                     69
                      A                      A                      A
 Frequencies --   1443.1123              1475.2912              1491.6424
 Red. masses --      1.2412                 2.8275                 6.4671
 Frc consts  --      1.5230                 3.6258                 8.4779
 IR Inten    --      1.1692                70.4622                 6.9984

                     70                     71                     72
                      A                      A                      A
 Frequencies --   1503.3872              1516.4832              1533.5128
 Red. masses --      1.7455                 1.0518                 1.3856
 Frc consts  --      2.3244                 1.4251                 1.9198
 IR Inten    --      3.3866                 7.5030                30.8107

                     73                     74                     75
                      A                      A                      A
 Frequencies --   1563.4221              1595.9114              1633.3655
 Red. masses --      2.0725                 5.2552                10.0611
 Frc consts  --      2.9847                 7.8860                15.8147
 IR Inten    --    127.5817                 2.7877               334.7166

                     76                     77                     78
                      A                      A                      A
 Frequencies --   1646.8605              1687.9097              1867.0031
 Red. masses --      5.3171                 7.4492                10.2640
 Frc consts  --      8.4964                12.5043                21.0794
 IR Inten    --     63.2291                39.4918               299.4915

                     79                     80                     81
                      A                      A                      A
 Frequencies --   3049.1946              3075.2324              3104.1932
 Red. masses --      1.0385                 1.0848                 1.0997
 Frc consts  --      5.6888                 6.0442                 6.2436
 IR Inten    --     22.9767                10.3542                15.5502

                     82                     83                     84
                      A                      A                      A
 Frequencies --   3137.2278              3216.6089              3218.6948
 Red. masses --      1.1014                 1.0897                 1.0893
 Frc consts  --      6.3867                 6.6428                 6.6493
 IR Inten    --     14.4097                 4.4096                10.2945

                     85                     86                     87
                      A                      A                      A
 Frequencies --   3232.0343              3240.0063              3253.9117
 Red. masses --      1.0947                 1.0908                 1.0912
 Frc consts  --      6.7375                 6.7469                 6.8070
 IR Inten    --      5.5229                 3.6808                 2.0626

                     88                     89                     90
                      A                      A                      A
 Frequencies --   3273.2059              3616.0585              3689.0733
 Red. masses --      1.0972                 1.0762                 1.0643
 Frc consts  --      6.9257                 8.2912                 8.5341
 IR Inten    --      0.8004                50.7505                78.9525

 - Thermochemistry -
 -------------------
 Temperature   298.150 Kelvin.  Pressure   1.00000 Atm.
 Atom     1 has atomic number  6 and mass  12.00000

 Molecular mass:   292.05178 amu.
 Principal axes and moments of inertia in atomic units:
                           1         2         3
     Eigenvalues --  3724.774539765.53647**********
           X            0.99996  -0.00514   0.00770
           Y            0.00545   0.99915  -0.04080
           Z           -0.00748   0.04084   0.99914
 This molecule is an asymmetric top.
 Rotational symmetry number  1.
 Warning -- assumption of classical behavior for rotation
           may cause significant error
 Rotational temperatures (Kelvin)      0.02325     0.00887     0.00788
 Rotational constants (GHZ):           0.48452     0.18481     0.16425
 Zero-point vibrational energy     626561.4 (Joules/Mol)
                                  149.75176 (Kcal/Mol)
 Warning -- explicit consideration of  29 degrees of freedom as
           vibrations may cause significant error
 Vibrational temperatures:     28.09    40.07    43.90    49.62    76.10
          (Kelvin)             78.52   102.41   135.41   193.13   246.48
                              274.62   275.23   320.91   348.78   376.72
                              410.02   534.07   557.97   590.22   615.88
                              707.77   717.61   723.84   774.93   804.72
                              829.07   837.40   868.57   891.91   956.71
                              971.50   980.19   991.91  1024.37  1084.79
                             1091.30  1142.63  1155.22  1205.19  1240.07
                             1254.99  1259.71  1302.41  1308.56  1328.16
                             1370.34  1440.12  1470.57  1530.11  1539.91
                             1549.27  1605.03  1624.70  1655.52  1703.45
                             1712.50  1752.35  1805.51  1870.98  1888.24
                             1921.71  1959.13  1975.22  2006.08  2014.05
                             2029.36  2076.32  2122.61  2146.14  2163.04
                             2181.88  2206.38  2249.42  2296.16  2350.05
                             2369.46  2428.53  2686.20  4387.11  4424.57
                             4466.24  4513.77  4627.98  4630.98  4650.18
                             4661.65  4681.65  4709.41  5202.70  5307.75

 Zero-point correction=                           0.238645 (Hartree/Particle)
 Thermal correction to Energy=                    0.257295
 Thermal correction to Enthalpy=                  0.258239
 Thermal correction to Gibbs Free Energy=         0.187725
 Sum of electronic and zero-point Energies=          -1310.931275
 Sum of electronic and thermal Energies=             -1310.912625
 Sum of electronic and thermal Enthalpies=           -1310.911681
 Sum of electronic and thermal Free Energies=        -1310.982195

                     E (Thermal)             CV                S
                      KCal/Mol        Cal/Mol-Kelvin    Cal/Mol-Kelvin
 Total                  161.455             68.454            148.409
 Electronic               0.000              0.000              0.000
 Translational            0.889              2.981             42.913
 Rotational               0.889              2.981             34.346
 Vibrational            159.677             62.492             71.151
 Vibration     1          0.593              1.986              6.682
 Vibration     2          0.593              1.984              5.977
 Vibration     3          0.594              1.984              5.796
 Vibration     4          0.594              1.983              5.553
 Vibration     5          0.596              1.976              4.706
 Vibration     6          0.596              1.976              4.644
 Vibration     7          0.598              1.968              4.121
 Vibration     8          0.603              1.953              3.573
 Vibration     9          0.613              1.919              2.884
 Vibration    10          0.626              1.878              2.421
 Vibration    11          0.634              1.852              2.219
 Vibration    12          0.634              1.852              2.215
 Vibration    13          0.649              1.806              1.934
 Vibration    14          0.659              1.775              1.785
 Vibration    15          0.669              1.743              1.649
 Vibration    16          0.683              1.702              1.504
 Vibration    17          0.743              1.531              1.075
 Vibration    18          0.756              1.496              1.009
 Vibration    19          0.774              1.448              0.926
 Vibration    20          0.790              1.409              0.865
 Vibration    21          0.848              1.268              0.679
 Vibration    22          0.854              1.253              0.661
 Vibration    23          0.858              1.243              0.650
 Vibration    24          0.894              1.165              0.568
 Vibration    25          0.915              1.119              0.525
 Vibration    26          0.933              1.083              0.492
 Vibration    27          0.939              1.070              0.482
 Vibration    28          0.962              1.024              0.443
 Vibration    29          0.980              0.990              0.417

                           ! Non-Optimized Parameters !
 Normal termination of Gaussian 16 at Mon Dec 14 17:51:32 2020.

 ----------------------------------------------------------------------
 # B3LYP/6-311++G(d,p) empiricaldispersion=gd3bj scf=xqc pop=npa geom=c
 heck
 ----------------------------------------------------------------------

 ----------------------------------------
 CID_115981128_JID_10283_Energie_neutraal
 ----------------------------------------
 Structure from the checkpoint file:  "JID_10283.chk"
 Charge =  0 Multiplicity = 1

 SCF Done:  E(RB3LYP) =  -1311.46288093     A.U. after   17 cycles
 Normal termination of Gaussian 16 at Mon Dec 14 17:57:38 2020.

 ----------------------------------------------------------------------
 # B3LYP/6-311++G(d,p) empiricaldispersion=gd3bj scf=xqc pop=npa geom=c
 heck
 ----------------------------------------------------------------------

 --------------------------------------
 CID_115981128_JID_10283_Energie_kation
 --------------------------------------
 Structure from the checkpoint file:  "JID_10283.chk"
 Charge =  1 Multiplicity = 2

 SCF Done:  E(UB3LYP) =  -1311.16812158     A.U. after   30 cycles
 Normal termination of Gaussian 16 at Mon Dec 14 18:12:39 2020.
 Gaussian 16:  ES64L-G16RevA.03 25-Dec-2016

 ----------------------------------------------------------------------
 # B3LYP/6-311++G(d,p) empiricaldispersion=gd3bj scf=xqc pop=npa geom=c
 heck
 ----------------------------------------------------------------------

 -------------------------------------
 CID_115981128_JID_10283_Energie_anion
 -------------------------------------
 Structure from the checkpoint file:  "JID_10283.chk"
 Charge = -1 Multiplicity = 2

                         Standard orientation:
 ---------------------------------------------------------------------
 Center     Atomic      Atomic             Coordinates (Angstroms)
 Number     Number       Type             X           Y           Z
 ---------------------------------------------------------------------
      1          6           0       -1.949165    2.935365   -1.689940
      2          6           0       -1.928080    1.556575   -1.076426
      3          6           0       -0.742760    0.811705   -1.081955
      4          6           0       -0.683112   -0.478111   -0.529096
      5          6           0       -1.842451   -1.020743    0.047583
      6          6           0       -3.003912   -0.265128    0.044150
      7          6           0       -3.078581    1.013102   -0.504948
      8          7           0       -4.210325   -0.843758    0.657045
      9          8           0       -4.124191   -1.972333    1.142595
     10          8           0       -5.237914   -0.166445    0.649929
     11          7           0        0.472854   -1.246544   -0.559030
     12          6           0        1.767924   -0.686070   -0.883073
     13          6           0        2.240396    0.422790    0.036429
     14          6           0        3.043534    1.486611   -0.279521
     15          6           0        3.337017    2.315948    0.844936
     16          6           0        2.752230    1.865054    1.996301
     17         16           0        1.833242    0.417921    1.730748
     18          6           0        2.828615   -1.786547   -0.895291
     19          8           0        3.779145   -1.810278   -1.637061
     20          8           0        2.606773   -2.710063    0.071031
     21          1           0       -1.110813    3.541726   -1.329022
     22          1           0       -1.865562    2.881943   -2.782544
     23          1           0       -2.877570    3.461843   -1.452026
     24          1           0        0.149652    1.258766   -1.505111
     25          1           0       -1.846208   -2.009061    0.490610
     26          1           0       -4.012910    1.557807   -0.473870
     27          1           0        0.498371   -2.037228    0.070162
     28          1           0        1.756235   -0.290505   -1.904360
     29          1           0        3.416422    1.664125   -1.282739
     30          1           0        3.947732    3.210327    0.794452
     31          1           0        2.791189    2.303457    2.984108
     32          1           0        3.343455   -3.348180    0.025436
 ---------------------------------------------------------------------

 SCF Done:  E(UB3LYP) =  -1311.49865487     A.U. after   25 cycles

 The electronic state is 2-A.
 Alpha  occ. eigenvalues --  -88.78348 -19.10473 -19.04234 -18.95927 -18.95897
 Alpha  occ. eigenvalues --  -14.33779 -14.22519 -10.23121 -10.14917 -10.11401
 Alpha  occ. eigenvalues --  -10.10824 -10.09775 -10.09139 -10.08598 -10.07154
 Alpha  occ. eigenvalues --  -10.06419 -10.06225 -10.04149 -10.03808 -10.03728
 Alpha  occ. eigenvalues --   -7.86955  -5.83244  -5.82870  -5.82564  -1.04255
 Alpha  occ. eigenvalues --   -1.03846  -0.95337  -0.86676  -0.84831  -0.79108
 Alpha  occ. eigenvalues --   -0.73853  -0.68918  -0.66395  -0.64736  -0.63350
 Alpha  occ. eigenvalues --   -0.60531  -0.57499  -0.55570  -0.53923  -0.48867
 Alpha  occ. eigenvalues --   -0.47429  -0.46348  -0.44636  -0.43051  -0.42686
 Alpha  occ. eigenvalues --   -0.41369  -0.39896  -0.38101  -0.36678  -0.36107
 Alpha  occ. eigenvalues --   -0.35946  -0.35276  -0.33991  -0.33062  -0.32897
 Alpha  occ. eigenvalues --   -0.31788  -0.31606  -0.31105  -0.29528  -0.29398
 Alpha  occ. eigenvalues --   -0.28832  -0.27437  -0.26423  -0.25828  -0.25012
 Alpha  occ. eigenvalues --   -0.24412  -0.23477  -0.21587  -0.18869  -0.16634
 Alpha  occ. eigenvalues --   -0.14994  -0.14723  -0.13509  -0.12933  -0.11450
 Alpha  occ. eigenvalues --   -0.09567   0.02112
 Alpha virt. eigenvalues --    0.04419   0.05751   0.06603   0.07878   0.08218
 Alpha virt. eigenvalues --    0.08570   0.09245   0.10517   0.10930   0.11155
 Alpha virt. eigenvalues --    0.11584   0.12192   0.12216   0.12628   0.12867

  Beta  occ. eigenvalues --  -88.78332 -19.10461 -19.04194 -18.95543 -18.95466
  Beta  occ. eigenvalues --  -14.33237 -14.22510 -10.23046 -10.14925 -10.11353
  Beta  occ. eigenvalues --  -10.10734 -10.09825 -10.09160 -10.08550 -10.07075
  Beta  occ. eigenvalues --  -10.06419 -10.06246 -10.03986 -10.03667 -10.03654
  Beta  occ. eigenvalues --   -7.86941  -5.83237  -5.82864  -5.82510  -1.04193
  Beta  occ. eigenvalues --   -1.02944  -0.95275  -0.85904  -0.84805  -0.79025
  Beta  occ. eigenvalues --   -0.73665  -0.68825  -0.66085  -0.64645  -0.63167
  Beta  occ. eigenvalues --   -0.60347  -0.57329  -0.55286  -0.53366  -0.48800
  Beta  occ. eigenvalues --   -0.47360  -0.46213  -0.44387  -0.42984  -0.42607
  Beta  occ. eigenvalues --   -0.41191  -0.39557  -0.37924  -0.36572  -0.35933
  Beta  occ. eigenvalues --   -0.34983  -0.33807  -0.33408  -0.32948  -0.32671
  Beta  occ. eigenvalues --   -0.31531  -0.31451  -0.31044  -0.29457  -0.29331
  Beta  occ. eigenvalues --   -0.28643  -0.27378  -0.26217  -0.25668  -0.24790
  Beta  occ. eigenvalues --   -0.24286  -0.23391  -0.21479  -0.18555  -0.16372
  Beta  occ. eigenvalues --   -0.14537  -0.13108  -0.12181  -0.11734  -0.11044
  Beta  occ. eigenvalues --   -0.08952
  Beta virt. eigenvalues --    0.05056   0.05807   0.06590   0.07836   0.08264
  Beta virt. eigenvalues --    0.08540   0.08835   0.09260   0.10681   0.10902
  Beta virt. eigenvalues --    0.11219   0.11564   0.12211   0.12262   0.12619

 Mulliken charges and spin densities:
               1          2
     1  C   -0.522487   0.002965
     2  C    0.475889   0.018087
     3  C   -0.249730   0.150236
     4  C    0.286651  -0.083665
     5  C   -0.338906   0.175392
     6  C   -0.402882  -0.004687
     7  C   -0.553941   0.051311
     8  N   -0.242747   0.174200
     9  O   -0.161290   0.150634
    10  O   -0.166293   0.165282
    11  N    0.153185   0.014787
    12  C   -1.325428  -0.048456
    13  C    0.661028  -0.001774
    14  C    0.764201   0.069948
    15  C   -0.613328  -0.012131
    16  C   -0.034309   0.054775
    17  S   -0.327750   0.044607
    18  C   -0.194624   0.051285
    19  O   -0.248486   0.013945
    20  O   -0.150499   0.001278
    21  H    0.137012  -0.002827
    22  H    0.137478   0.008972
    23  H    0.141021   0.000869
    24  H    0.068948  -0.006610
    25  H    0.203262  -0.010528
    26  H    0.203732  -0.004957
    27  H    0.275347  -0.000391
    28  H    0.229698   0.019926
    29  H    0.164189  -0.003291
    30  H    0.134238   0.000973
    31  H    0.226979  -0.004183
    32  H    0.269839   0.014029
 Sum of Mulliken charges =  -1.00000   1.00000

 Dipole moment (field-independent basis, Debye):
    X=             12.3561    Y=              2.5920    Z=             -1.1158  Tot=             12.6743
 Quadrupole moment (field-independent basis, Debye-Ang):
   XX=           -220.3245   YY=           -131.3816   ZZ=           -136.4776
   XY=            -14.2721   XZ=             18.5710   YZ=              0.8675

 Summary of Natural Population Analysis:

                                       Natural Population
                Natural  -----------------------------------------------
    Atom  No    Charge         Core      Valence    Rydberg      Total
 -----------------------------------------------------------------------
      C    1   -0.28890      0.99964     2.28462    0.00464     3.28890
      C    2   -0.01966      0.99953     2.01211    0.00802     3.01966
      C    3   -0.10230      0.99948     2.09577    0.00706     3.10230
      C    4    0.07982      0.99951     1.91044    0.01023     2.92018
      C    5   -0.09095      0.99949     2.08208    0.00938     3.09095
      C    6    0.06792      0.99940     1.92086    0.01182     2.93208
      C    7   -0.10684      0.99948     2.09755    0.00982     3.10684
      N    8    0.29671      0.99973     2.17638    0.02718     3.20329
      O    9   -0.20041      0.99990     3.19266    0.00785     4.20041
      O   10   -0.19240      0.99990     3.18458    0.00792     4.19240
      N   11   -0.32106      0.99967     2.81038    0.01101     3.82106
      C   12   -0.06342      0.99948     2.04779    0.01614     3.06342
      C   13   -0.10253      0.99947     2.08855    0.01451     3.10253
      C   14   -0.11820      0.99946     2.10998    0.00876     3.11820
      C   15   -0.13544      0.99954     2.12633    0.00957     3.13544
      C   16   -0.18187      0.99955     2.17157    0.01075     3.18187
      S   17    0.22826      4.99939     2.75109    0.02127     7.77174
      C   18    0.42528      0.99970     1.54986    0.02516     2.57472
      O   19   -0.30065      0.99986     3.29429    0.00649     4.30065
      O   20   -0.34957      0.99987     3.34308    0.00662     4.34957
      H   21    0.09836      0.00000     0.40062    0.00102     0.40164
      H   22    0.09770      0.00000     0.40126    0.00104     0.40230
      H   23    0.09902      0.00000     0.40009    0.00089     0.40098
      H   24    0.09404      0.00000     0.40449    0.00147     0.40596
      H   25    0.11228      0.00000     0.38641    0.00131     0.38772
      H   26    0.11213      0.00000     0.38656    0.00131     0.38787
      H   27    0.19516      0.00000     0.30269    0.00214     0.30484
      H   28    0.11441      0.00000     0.38408    0.00151     0.38559
      H   29    0.10595      0.00000     0.39307    0.00098     0.39405
      H   30    0.10216      0.00000     0.39682    0.00101     0.39784
      H   31    0.10562      0.00000     0.39348    0.00090     0.39438
      H   32    0.23939      0.00000     0.25643    0.00418     0.26061
 =======================================================================
   * Total *    0.00000     23.99204    51.75598    0.25198    76.00000

 Normal termination of Gaussian 16 at Mon Dec 14 18:24:24 2020.
