 Gaussian 16, Revision A.03,

 -----------------------------------------------------------
 # opt freq B3LYP/6-31G(d) empiricaldispersion=gd3bj scf=xqc
 -----------------------------------------------------------

 -------------------------------
 CID_154216155_JID_1384_neutraal
 -------------------------------
 Symbolic Z-matrix:
 Charge =  0 Multiplicity = 1

 SCF Done:  E(RB3LYP) =  -510.457623290     A.U. after   15 cycles
 SCF Done:  E(RB3LYP) =  -510.471950039     A.U. after   15 cycles
 SCF Done:  E(RB3LYP) =  -510.473080968     A.U. after   13 cycles
 SCF Done:  E(RB3LYP) =  -510.474847285     A.U. after   13 cycles
 SCF Done:  E(RB3LYP) =  -510.475187364     A.U. after   12 cycles
 SCF Done:  E(RB3LYP) =  -510.475324992     A.U. after   12 cycles
 SCF Done:  E(RB3LYP) =  -510.475356848     A.U. after   11 cycles
 SCF Done:  E(RB3LYP) =  -510.475366509     A.U. after   10 cycles
 SCF Done:  E(RB3LYP) =  -510.475368425     A.U. after    8 cycles
 SCF Done:  E(RB3LYP) =  -510.475368806     A.U. after    8 cycles
 SCF Done:  E(RB3LYP) =  -510.475369024     A.U. after    8 cycles
 SCF Done:  E(RB3LYP) =  -510.475369137     A.U. after    8 cycles
 Optimization completed.
    -- Stationary point found.
 Normal termination of Gaussian 16 at Tue Dec  8 19:49:00 2020.

 --------------------------------------------------------------------
 #N Geom=AllCheck Guess=TCheck SCRF=Check GenChk RB3LYP/6-31G(d) Freq
 --------------------------------------------------------------------

 Structure from the checkpoint file:  "JID_1384.chk"
 -------------------------------
 CID_154216155_JID_1384_neutraal
 -------------------------------
 Charge =  0 Multiplicity = 1

 SCF Done:  E(RB3LYP) =  -510.475369137     A.U. after    1 cycles

  Exact polarizability: 147.680   2.947 104.298  -0.287   0.082  35.813
 Approx polarizability: 243.019  12.779 175.786  -2.407   0.774  53.987

                      1                      2                      3
                      A                      A                      A
 Frequencies --     57.5886                83.6893               168.6636
 Red. masses --      7.4291                 8.3900                 5.1788
 Frc consts  --      0.0145                 0.0346                 0.0868
 IR Inten    --      0.0569                 1.2879                 0.3122

                      4                      5                      6
                      A                      A                      A
 Frequencies --    225.5054               249.9273               296.4792
 Red. masses --      1.1008                 3.8377                 6.6717
 Frc consts  --      0.0330                 0.1412                 0.3455
 IR Inten    --     34.1941                 1.4156                 4.8715

                      7                      8                      9
                      A                      A                      A
 Frequencies --    306.2881               322.0442               451.3051
 Red. masses --      3.6967                 3.6588                 8.2376
 Frc consts  --      0.2043                 0.2236                 0.9885
 IR Inten    --      5.3473                 0.4109                 1.7462

                     10                     11                     12
                      A                      A                      A
 Frequencies --    482.7241               507.6746               536.1926
 Red. masses --      1.0752                 4.7687                 7.7476
 Frc consts  --      0.1476                 0.7241                 1.3124
 IR Inten    --      8.0799                 1.5714                20.4727

                     13                     14                     15
                      A                      A                      A
 Frequencies --    538.6618               563.1627               579.3841
 Red. masses --      4.6435                 4.4353                 4.2750
 Frc consts  --      0.7938                 0.8288                 0.8455
 IR Inten    --      7.7112                 4.7983                14.5696

                     16                     17                     18
                      A                      A                      A
 Frequencies --    627.6681               709.2429               712.4239
 Red. masses --      9.0677                 7.8749                 2.6679
 Frc consts  --      2.1048                 2.3339                 0.7978
 IR Inten    --     14.2596                50.3777                16.9321

                     19                     20                     21
                      A                      A                      A
 Frequencies --    748.4827               773.1585               829.9606
 Red. masses --      1.5153                 1.5935                 1.6531
 Frc consts  --      0.5001                 0.5612                 0.6709
 IR Inten    --     91.7046               187.3712               296.9629

                     22                     23                     24
                      A                      A                      A
 Frequencies --    859.3343               863.1009               926.5262
 Red. masses --      1.4527                 2.5898                 1.2268
 Frc consts  --      0.6320                 1.1367                 0.6205
 IR Inten    --     58.6665                44.8975                 0.8966

                     25                     26                     27
                      A                      A                      A
 Frequencies --    945.4806              1096.2346              1149.7528
 Red. masses --      3.2227                 1.9579                 1.4289
 Frc consts  --      1.6974                 1.3862                 1.1129
 IR Inten    --     25.9911                 6.3945                 5.3541

                     28                     29                     30
                      A                      A                      A
 Frequencies --   1169.2184              1193.2702              1286.5744
 Red. masses --      1.7943                 1.1600                 2.5706
 Frc consts  --      1.4452                 0.9732                 2.5070
 IR Inten    --     51.1597                 0.1470                25.5554

                     31                     32                     33
                      A                      A                      A
 Frequencies --   1293.2160              1344.7775              1406.2126
 Red. masses --      3.1526                 1.8484                 4.3788
 Frc consts  --      3.1064                 1.9694                 5.1016
 IR Inten    --     23.2247                33.0388                 2.3357

                     34                     35                     36
                      A                      A                      A
 Frequencies --   1484.8033              1531.1452              1563.6572
 Red. masses --      3.9386                 3.4759                 5.1341
 Frc consts  --      5.1160                 4.8013                 7.3960
 IR Inten    --      1.9424                46.5741                71.0876

                     37                     38                     39
                      A                      A                      A
 Frequencies --   1634.4468              1658.3010              1686.7281
 Red. masses --      2.0482                 6.0675                 1.2084
 Frc consts  --      3.2237                 9.8308                 2.0256
 IR Inten    --     29.7775                49.2548                40.9154

                     40                     41                     42
                      A                      A                      A
 Frequencies --   1692.5146              2376.7597              3180.2980
 Red. masses --      1.6620                12.6839                 1.0879
 Frc consts  --      2.8050                42.2155                 6.4832
 IR Inten    --    110.8447              1451.9321                12.2450

                     43                     44                     45
                      A                      A                      A
 Frequencies --   3198.5620              3214.4440              3496.7483
 Red. masses --      1.0891                 1.0966                 1.0504
 Frc consts  --      6.5648                 6.6758                 7.5673
 IR Inten    --     11.4279                13.9068                 6.8883

                     46                     47                     48
                      A                      A                      A
 Frequencies --   3500.9139              3605.4054              3611.9586
 Red. masses --      1.0502                 1.0940                 1.0940
 Frc consts  --      7.5841                 8.3786                 8.4095
 IR Inten    --      7.6573                24.3868                 5.7297

 - Thermochemistry -
 -------------------
 Temperature   298.150 Kelvin.  Pressure   1.00000 Atm.
 Atom     1 has atomic number  6 and mass  12.00000

 Molecular mass:   149.05891 amu.
 Principal axes and moments of inertia in atomic units:
                           1         2         3
     Eigenvalues --   786.077002479.635143259.37399
           X            0.99998   0.00644   0.00243
           Y           -0.00644   0.99998  -0.00283
           Z           -0.00245   0.00282   0.99999
 This molecule is an asymmetric top.
 Rotational symmetry number  1.
 Warning -- assumption of classical behavior for rotation
           may cause significant error
 Rotational temperatures (Kelvin)      0.11019     0.03493     0.02657
 Rotational constants (GHZ):           2.29588     0.72783     0.55371
 Zero-point vibrational energy     363309.5 (Joules/Mol)
                                   86.83306 (Kcal/Mol)
 Warning -- explicit consideration of  15 degrees of freedom as
           vibrations may cause significant error
 Vibrational temperatures:     82.86   120.41   242.67   324.45   359.59
          (Kelvin)            426.57   440.68   463.35   649.33   694.53
                              730.43   771.46   775.01   810.27   833.60
                              903.07  1020.44  1025.02  1076.90  1112.40
                             1194.13  1236.39  1241.81  1333.06  1360.34
                             1577.24  1654.24  1682.24  1716.85  1851.09
                             1860.65  1934.83  2023.23  2136.30  2202.98
                             2249.75  2351.60  2385.93  2426.83  2435.15
                             3419.63  4575.74  4602.02  4624.87  5031.04
                             5037.03  5187.37  5196.80

 Zero-point correction=                           0.138377 (Hartree/Particle)
 Thermal correction to Energy=                    0.148090
 Thermal correction to Enthalpy=                  0.149034
 Thermal correction to Gibbs Free Energy=         0.103157
 Sum of electronic and zero-point Energies=           -510.336992
 Sum of electronic and thermal Energies=              -510.327279
 Sum of electronic and thermal Enthalpies=            -510.326335
 Sum of electronic and thermal Free Energies=         -510.372212

                     E (Thermal)             CV                S
                      KCal/Mol        Cal/Mol-Kelvin    Cal/Mol-Kelvin
 Total                   92.928             37.231             96.557
 Electronic               0.000              0.000              0.000
 Translational            0.889              2.981             40.908
 Rotational               0.889              2.981             30.231
 Vibrational             91.151             31.270             25.418
 Vibration     1          0.596              1.974              4.538
 Vibration     2          0.601              1.960              3.802
 Vibration     3          0.625              1.881              2.450
 Vibration     4          0.650              1.802              1.914
 Vibration     5          0.663              1.763              1.731
 Vibration     6          0.690              1.680              1.437
 Vibration     7          0.697              1.662              1.382
 Vibration     8          0.707              1.631              1.300
 Vibration     9          0.810              1.358              0.792
 Vibration    10          0.839              1.288              0.703
 Vibration    11          0.863              1.233              0.639
 Vibration    12          0.891              1.170              0.574
 Vibration    13          0.894              1.165              0.568
 Vibration    14          0.919              1.111              0.518
 Vibration    15          0.936              1.076              0.487

                           ! Non-Optimized Parameters !
 Normal termination of Gaussian 16 at Tue Dec  8 19:51:56 2020.

 ----------------------------------------------------------------------
 # B3LYP/6-311++G(d,p) empiricaldispersion=gd3bj scf=xqc pop=npa geom=c
 heck
 ----------------------------------------------------------------------

 ---------------------------------------
 CID_154216155_JID_1384_Energie_neutraal
 ---------------------------------------
 Structure from the checkpoint file:  "JID_1384.chk"
 Charge =  0 Multiplicity = 1

 SCF Done:  E(RB3LYP) =  -510.631995529     A.U. after   15 cycles
 Normal termination of Gaussian 16 at Tue Dec  8 19:52:50 2020.

 ----------------------------------------------------------------------
 # B3LYP/6-311++G(d,p) empiricaldispersion=gd3bj scf=xqc pop=npa geom=c
 heck
 ----------------------------------------------------------------------

 -------------------------------------
 CID_154216155_JID_1384_Energie_kation
 -------------------------------------
 Structure from the checkpoint file:  "JID_1384.chk"
 Charge =  1 Multiplicity = 2

 SCF Done:  E(UB3LYP) =  -510.350777935     A.U. after   21 cycles
 Normal termination of Gaussian 16 at Tue Dec  8 19:54:45 2020.
 Gaussian 16:  ES64L-G16RevA.03 25-Dec-2016

 ----------------------------------------------------------------------
 # B3LYP/6-311++G(d,p) empiricaldispersion=gd3bj scf=xqc pop=npa geom=c
 heck
 ----------------------------------------------------------------------

 ------------------------------------
 CID_154216155_JID_1384_Energie_anion
 ------------------------------------
 Structure from the checkpoint file:  "JID_1384.chk"
 Charge = -1 Multiplicity = 2

                         Standard orientation:
 ---------------------------------------------------------------------
 Center     Atomic      Atomic             Coordinates (Angstroms)
 Number     Number       Type             X           Y           Z
 ---------------------------------------------------------------------
      1          6           0       -0.884292    2.117792    0.023020
      2          6           0       -2.024562    1.310664    0.013143
      3          6           0       -1.908908   -0.079925   -0.004230
      4          6           0       -0.629447   -0.676536    0.008717
      5          6           0        0.503127    0.148395    0.004704
      6          6           0        0.381317    1.544887    0.004255
      7          7           0        1.751451   -0.494182    0.017040
      8          6           0        2.924621   -0.199643   -0.013458
      9          8           0        4.093443   -0.049025   -0.035763
     10          7           0       -0.540860   -2.076708   -0.025220
     11          7           0       -3.018200   -0.943017    0.017155
     12          1           0       -0.988260    3.198296    0.029858
     13          1           0       -3.014067    1.761061    0.007752
     14          1           0        1.276965    2.158146    0.003072
     15          1           0       -1.163413   -2.514535    0.649687
     16          1           0        0.412349   -2.399515    0.105932
     17          1           0       -2.895505   -1.736217   -0.607967
     18          1           0       -3.893484   -0.471486   -0.181954
 ---------------------------------------------------------------------

 SCF Done:  E(UB3LYP) =  -510.619889713     A.U. after   33 cycles
 SCF Done:  E(UB3LYP) =  -510.619889713     a.u. after    1 cycles

 The electronic state is 2-A.
 Alpha  occ. eigenvalues --  -19.07505 -14.24847 -14.20910 -14.20433 -10.21061
 Alpha  occ. eigenvalues --  -10.12199 -10.10477 -10.10387 -10.06851 -10.06774
 Alpha  occ. eigenvalues --  -10.06247  -1.01025  -0.87162  -0.82848  -0.78388
 Alpha  occ. eigenvalues --   -0.73171  -0.64908  -0.61887  -0.55178  -0.50019
 Alpha  occ. eigenvalues --   -0.46156  -0.42431  -0.41624  -0.40230  -0.37379
 Alpha  occ. eigenvalues --   -0.36954  -0.36417  -0.36042  -0.34371  -0.32249
 Alpha  occ. eigenvalues --   -0.30075  -0.27316  -0.26554  -0.24067  -0.21446
 Alpha  occ. eigenvalues --   -0.20919  -0.19301  -0.11802  -0.09573   0.04686
 Alpha virt. eigenvalues --    0.07085   0.07284   0.08243   0.09350   0.09786
 Alpha virt. eigenvalues --    0.10613   0.10726   0.11647   0.12894   0.13214
 Alpha virt. eigenvalues --    0.13814   0.14068   0.16668   0.16723   0.17207

  Beta  occ. eigenvalues --  -19.07463 -14.24846 -14.20849 -14.20353 -10.21018
  Beta  occ. eigenvalues --  -10.12194 -10.10472 -10.10382 -10.06840 -10.06768
  Beta  occ. eigenvalues --  -10.06225  -1.00931  -0.87111  -0.82779  -0.78287
  Beta  occ. eigenvalues --   -0.73123  -0.64857  -0.61815  -0.55123  -0.49966
  Beta  occ. eigenvalues --   -0.46089  -0.42360  -0.41549  -0.40153  -0.37314
  Beta  occ. eigenvalues --   -0.36872  -0.36267  -0.35959  -0.34298  -0.32178
  Beta  occ. eigenvalues --   -0.30045  -0.27276  -0.26506  -0.24034  -0.21384
  Beta  occ. eigenvalues --   -0.20882  -0.19258  -0.11775  -0.09518
  Beta virt. eigenvalues --    0.07077   0.08109   0.08230   0.08534   0.10185
  Beta virt. eigenvalues --    0.10589   0.10663   0.10995   0.12234   0.13411
  Beta virt. eigenvalues --    0.13750   0.13967   0.14351   0.16555   0.16748

 Mulliken charges and spin densities:
               1          2
     1  C   -0.406621  -0.054098
     2  C    2.259420  -2.056864
     3  C   -0.321557   0.283395
     4  C   -2.207374   1.729101
     5  C    0.596050  -0.575785
     6  C    1.097312  -1.084513
     7  N    0.000638  -0.117272
     8  C    0.947988  -0.548422
     9  O   -0.284948   0.006131
    10  N   -0.308889  -0.075553
    11  N   -0.307112  -0.052169
    12  H   -0.167317   0.317362
    13  H   -0.685191   0.831826
    14  H   -0.215827   0.364422
    15  H   -0.223710   0.478388
    16  H   -0.105169   0.373103
    17  H   -0.309058   0.560441
    18  H   -0.358637   0.620506
 Sum of Mulliken charges =  -1.00000   1.00000

 Dipole moment (field-independent basis, Debye):
    X=              5.4953    Y=              2.3937    Z=              0.3876  Tot=              6.0065
 Quadrupole moment (field-independent basis, Debye-Ang):
   XX=           -137.7095   YY=           -100.6613   ZZ=            -84.6427
   XY=             -3.1870   XZ=             -2.2831   YZ=             -0.0560

 Summary of Natural Population Analysis:

                                       Natural Population
                Natural  -----------------------------------------------
    Atom  No    Charge         Core      Valence    Rydberg      Total
 -----------------------------------------------------------------------
      C    1   -0.10570      0.99957     2.09604    0.01008     3.10570
      C    2   -0.12110      0.99953     2.11126    0.01031     3.12110
      C    3    0.07599      0.99946     1.91200    0.01255     2.92401
      C    4    0.06743      0.99942     1.91990    0.01325     2.93257
      C    5    0.04695      0.99938     1.94189    0.01177     2.95305
      C    6   -0.12134      0.99953     2.11229    0.00953     3.12134
      N    7   -0.27773      0.99949     2.76762    0.01062     3.77773
      C    8    0.43632      0.99957     1.54688    0.01722     2.56368
      O    9   -0.26308      0.99987     3.25565    0.00756     4.26308
      N   10   -0.40208      0.99972     2.89157    0.01079     3.90208
      N   11   -0.40111      0.99972     2.89004    0.01135     3.90111
      H   12    0.09934      0.00000     0.39973    0.00093     0.40066
      H   13    0.10284      0.00000     0.39549    0.00167     0.39716
      H   14    0.10032      0.00000     0.39850    0.00118     0.39968
      H   15    0.19058      0.00000     0.30562    0.00380     0.30942
      H   16    0.19139      0.00000     0.30546    0.00314     0.30861
      H   17    0.19109      0.00000     0.30330    0.00560     0.30891
      H   18    0.18988      0.00000     0.30021    0.00991     0.31012
 =======================================================================
   * Total *   -0.00000     10.99526    27.85344    0.15130    39.00000

 Normal termination of Gaussian 16 at Tue Dec  8 19:57:52 2020.
