 Gaussian 16, Revision A.03,

 -----------------------------------------------------------
 # opt freq B3LYP/6-31G(d) empiricaldispersion=gd3bj scf=xqc
 -----------------------------------------------------------

 -------------------------------
 CID_143231079_JID_1273_neutraal
 -------------------------------
 Symbolic Z-matrix:
 Charge =  0 Multiplicity = 1

 SCF Done:  E(RB3LYP) =  -464.516859045     A.U. after   13 cycles
 SCF Done:  E(RB3LYP) =  -464.518698868     A.U. after   11 cycles
 SCF Done:  E(RB3LYP) =  -464.518355425     A.U. after   11 cycles
 SCF Done:  E(RB3LYP) =  -464.519794079     A.U. after   11 cycles
 SCF Done:  E(RB3LYP) =  -464.520584460     A.U. after   11 cycles
 SCF Done:  E(RB3LYP) =  -464.521474143     A.U. after   11 cycles
 SCF Done:  E(RB3LYP) =  -464.521930301     A.U. after   12 cycles
 SCF Done:  E(RB3LYP) =  -464.522057245     A.U. after   10 cycles
 SCF Done:  E(RB3LYP) =  -464.522094252     A.U. after    9 cycles
 SCF Done:  E(RB3LYP) =  -464.522099411     A.U. after    8 cycles
 SCF Done:  E(RB3LYP) =  -464.522123011     A.U. after   10 cycles
 SCF Done:  E(RB3LYP) =  -464.522129022     A.U. after    9 cycles
 SCF Done:  E(RB3LYP) =  -464.522130419     A.U. after    9 cycles
 SCF Done:  E(RB3LYP) =  -464.522130642     A.U. after    8 cycles
 SCF Done:  E(RB3LYP) =  -464.522130690     A.U. after    7 cycles
 SCF Done:  E(RB3LYP) =  -464.522130693     A.U. after    7 cycles
 Optimization completed.
    -- Stationary point found.

 1\1\GINC-NODE109\FOpt\RB3LYP\6-31G(d)\C9H20N2\VSC10255\08-Dec-2020\0\\
 # opt freq B3LYP/6-31G(d) empiricaldispersion=gd3bj scf=xqc\\CID_14323
 1079_JID_1273_neutraal\\0,1\C,0.958879856,-0.1171910139,-0.0965894485\
 C,0.4991496088,-1.0411917361,1.0359750166\C,0.363526614,-0.3306128892,
 2.3909773324\C,-0.8390162512,0.6310754384,2.5315771438\C,-2.1676318332
 ,-0.0766899882,2.693299736\C,-2.729271703,-0.2278162915,3.9050074071\N
 ,-2.7239935959,-0.667172943,1.5441214223\C,-2.8678922493,0.1199073018,
 0.3169179177\C,-3.5879948483,-0.6800365877,-0.7706692068\C,-5.03585921

 Normal termination of Gaussian 16 at Tue Dec  8 19:42:26 2020.

 --------------------------------------------------------------------
 #N Geom=AllCheck Guess=TCheck SCRF=Check GenChk RB3LYP/6-31G(d) Freq
 --------------------------------------------------------------------

 Structure from the checkpoint file:  "JID_1273.chk"
 -------------------------------
 CID_143231079_JID_1273_neutraal
 -------------------------------
 Charge =  0 Multiplicity = 1

 SCF Done:  E(RB3LYP) =  -464.522130693     A.U. after    1 cycles

  Exact polarizability: 120.109  -0.566 124.463  -4.023  -2.395  86.506
 Approx polarizability: 145.531  -1.604 173.181  -6.448  -5.579 130.696

                      1                      2                      3
                      A                      A                      A
 Frequencies --     18.0227                40.4884                49.6997
 Red. masses --      3.3339                 3.4091                 2.9442
 Frc consts  --      0.0006                 0.0033                 0.0043
 IR Inten    --      0.2230                 0.5286                 0.2706

                      4                      5                      6
                      A                      A                      A
 Frequencies --     82.6940               123.2245               152.2410
 Red. masses --      3.4654                 2.8956                 2.3117
 Frc consts  --      0.0140                 0.0259                 0.0316
 IR Inten    --      1.0500                 2.1138                 2.0496

                      7                      8                      9
                      A                      A                      A
 Frequencies --    165.3565               198.7643               224.8938
 Red. masses --      2.1482                 1.5250                 1.6340
 Frc consts  --      0.0346                 0.0355                 0.0487
 IR Inten    --      1.5337                 8.0296                19.6518

                     10                     11                     12
                      A                      A                      A
 Frequencies --    235.6088               275.7731               285.6593
 Red. masses --      2.2998                 2.0748                 1.3775
 Frc consts  --      0.0752                 0.0930                 0.0662
 IR Inten    --      4.9564                 3.2366                35.1964

                     13                     14                     15
                      A                      A                      A
 Frequencies --    336.3059               388.8880               428.9597
 Red. masses --      1.9943                 2.0394                 2.0801
 Frc consts  --      0.1329                 0.1817                 0.2255
 IR Inten    --      4.4202                 8.8874                 3.1614

                     16                     17                     18
                      A                      A                      A
 Frequencies --    460.0117               489.1759               525.2538
 Red. masses --      1.9162                 2.2222                 2.3865
 Frc consts  --      0.2389                 0.3133                 0.3879
 IR Inten    --      0.9674                16.7768                 5.0451

                     19                     20                     21
                      A                      A                      A
 Frequencies --    651.9694               669.5006               750.2167
 Red. masses --      2.3639                 1.2347                 1.4474
 Frc consts  --      0.5920                 0.3261                 0.4800
 IR Inten    --      6.0949                42.7099                 7.4423

                     22                     23                     24
                      A                      A                      A
 Frequencies --    775.5969               786.7632               811.9004
 Red. masses --      1.4802                 1.2547                 1.4864
 Frc consts  --      0.5246                 0.4576                 0.5773
 IR Inten    --     11.2707                 7.7495                63.3984

                     25                     26                     27
                      A                      A                      A
 Frequencies --    825.0052               828.7309               861.5001
 Red. masses --      1.7802                 2.1988                 2.3309
 Frc consts  --      0.7139                 0.8897                 1.0193
 IR Inten    --      3.6478                 1.4816                15.2266

                     28                     29                     30
                      A                      A                      A
 Frequencies --    872.6392               922.1352               947.7687
 Red. masses --      1.3479                 1.6081                 1.7426
 Frc consts  --      0.6048                 0.8057                 0.9222
 IR Inten    --    110.3077                 4.5611                 1.2065

                     31                     32                     33
                      A                      A                      A
 Frequencies --    978.0224               990.1682              1011.9002
 Red. masses --      1.7014                 1.7460                 1.6440
 Frc consts  --      0.9589                 1.0086                 0.9918
 IR Inten    --      4.3389                 2.6995                 3.3377

                     34                     35                     36
                      A                      A                      A
 Frequencies --   1035.6539              1083.5567              1092.0947
 Red. masses --      1.6460                 2.1553                 1.8702
 Frc consts  --      1.0402                 1.4909                 1.3142
 IR Inten    --      4.7258                 0.6986                10.7233

                     37                     38                     39
                      A                      A                      A
 Frequencies --   1117.9576              1135.6748              1139.3222
 Red. masses --      1.7021                 2.2950                 1.8860
 Frc consts  --      1.2534                 1.7440                 1.4424
 IR Inten    --      3.6393                11.7396                 1.5357

                     40                     41                     42
                      A                      A                      A
 Frequencies --   1148.2651              1203.1245              1222.8955
 Red. masses --      1.9546                 1.6369                 1.2638
 Frc consts  --      1.5184                 1.3961                 1.1135
 IR Inten    --     17.5922                30.8489                 5.8351

                     43                     44                     45
                      A                      A                      A
 Frequencies --   1244.0482              1275.7048              1301.3649
 Red. masses --      1.1485                 1.3492                 1.2975
 Frc consts  --      1.0473                 1.2937                 1.2946
 IR Inten    --     18.9756                 5.8943                15.8578

                     46                     47                     48
                      A                      A                      A
 Frequencies --   1337.0657              1351.8048              1357.9486
 Red. masses --      1.2212                 1.4736                 1.1978
 Frc consts  --      1.2863                 1.5866                 1.3013
 IR Inten    --     13.3736                12.3096                 3.6473

                     49                     50                     51
                      A                      A                      A
 Frequencies --   1388.9102              1392.9629              1395.4089
 Red. masses --      1.2582                 1.7912                 1.3605
 Frc consts  --      1.4300                 2.0477                 1.5608
 IR Inten    --     17.0495                32.2449                 8.0082

                     52                     53                     54
                      A                      A                      A
 Frequencies --   1411.1089              1411.5347              1442.7951
 Red. masses --      1.4417                 1.6258                 1.2658
 Frc consts  --      1.6914                 1.9086                 1.5524
 IR Inten    --      0.1843                13.3273                10.5659

                     55                     56                     57
                      A                      A                      A
 Frequencies --   1445.1455              1452.4939              1496.8243
 Red. masses --      1.3754                 1.2891                 1.0963
 Frc consts  --      1.6924                 1.6024                 1.4472
 IR Inten    --     11.7509                 1.6930                 2.9177

                     58                     59                     60
                      A                      A                      A
 Frequencies --   1513.7793              1521.4810              1525.8079
 Red. masses --      1.0809                 1.1260                 1.0810
 Frc consts  --      1.4594                 1.5357                 1.4828
 IR Inten    --      0.4173                30.1328                 5.9425

                     61                     62                     63
                      A                      A                      A
 Frequencies --   1530.4508              1535.9446              1539.2444
 Red. masses --      1.0983                 1.0863                 1.0790
 Frc consts  --      1.5157                 1.5099                 1.5063
 IR Inten    --      0.9433                 7.5625                 6.2530

                     64                     65                     66
                      A                      A                      A
 Frequencies --   1553.9036              1557.4554              1702.8327
 Red. masses --      1.1102                 1.0797                 1.0946
 Frc consts  --      1.5794                 1.5431                 1.8700
 IR Inten    --      0.5952                11.6785                21.6143

                     67                     68                     69
                      A                      A                      A
 Frequencies --   1718.3467              2930.2147              2977.2425
 Red. masses --      4.3897                 1.0750                 1.0748
 Frc consts  --      7.6367                 5.4383                 5.6133
 IR Inten    --    132.1161                93.1044                59.6783

                     70                     71                     72
                      A                      A                      A
 Frequencies --   3025.1511              3041.1960              3042.3324
 Red. masses --      1.0652                 1.0680                 1.0377
 Frc consts  --      5.7435                 5.8197                 5.6590
 IR Inten    --     33.5213                33.5417                23.1718

                     73                     74                     75
                      A                      A                      A
 Frequencies --   3053.4049              3059.3519              3077.9868
 Red. masses --      1.0621                 1.0662                 1.0937
 Frc consts  --      5.8343                 5.8798                 6.1050
 IR Inten    --     16.8471                 7.0285                39.4684

                     76                     77                     78
                      A                      A                      A
 Frequencies --   3079.5107              3088.5674              3101.4387
 Red. masses --      1.0857                 1.0958                 1.0993
 Frc consts  --      6.0661                 6.1589                 6.2303
 IR Inten    --     49.9074                 7.8603                30.4649

                     79                     80                     81
                      A                      A                      A
 Frequencies --   3103.8833              3109.4051              3111.9861
 Red. masses --      1.1034                 1.1009                 1.1004
 Frc consts  --      6.2632                 6.2712                 6.2790
 IR Inten    --     35.8469                91.4996                43.0244

                     82                     83                     84
                      A                      A                      A
 Frequencies --   3123.0320              3159.7400              3247.8957
 Red. masses --      1.0870                 1.0627                 1.1126
 Frc consts  --      6.2466                 6.2514                 6.9152
 IR Inten    --     20.8296                 9.9812                17.7201

                     85                     86                     87
                      A                      A                      A
 Frequencies --   3472.9624              3535.1279              3555.1327
 Red. masses --      1.0500                 1.0736                 1.0922
 Frc consts  --      7.4614                 7.9053                 8.1335
 IR Inten    --      1.1901                 1.4202                 0.3909

 - Thermochemistry -
 -------------------
 Temperature   298.150 Kelvin.  Pressure   1.00000 Atm.
 Atom     1 has atomic number  6 and mass  12.00000

 Molecular mass:   156.16265 amu.
 Principal axes and moments of inertia in atomic units:
                           1         2         3
     Eigenvalues --  1242.610773113.257683994.36611
           X            0.99990   0.01255  -0.00672
           Y           -0.01256   0.99992  -0.00220
           Z            0.00669   0.00228   0.99998
 This molecule is an asymmetric top.
 Rotational symmetry number  1.
 Warning -- assumption of classical behavior for rotation
           may cause significant error
 Rotational temperatures (Kelvin)      0.06970     0.02782     0.02168
 Rotational constants (GHZ):           1.45238     0.57970     0.45182
 Zero-point vibrational energy     757495.2 (Joules/Mol)
                                  181.04571 (Kcal/Mol)
 Warning -- explicit consideration of  18 degrees of freedom as
           vibrations may cause significant error
 Vibrational temperatures:     25.93    58.25    71.51   118.98   177.29
          (Kelvin)            219.04   237.91   285.98   323.57   338.99
                              396.78   411.00   483.87   559.52   617.18
                              661.85   703.82   755.72   938.04   963.26
                             1079.39  1115.91  1131.98  1168.14  1187.00
                             1192.36  1239.51  1255.53  1326.75  1363.63
                             1407.16  1424.63  1455.90  1490.07  1559.00
                             1571.28  1608.49  1633.98  1639.23  1652.10
                             1731.03  1759.47  1789.91  1835.45  1872.37
                             1923.74  1944.95  1953.79  1998.33  2004.16
                             2007.68  2030.27  2030.88  2075.86  2079.24
                             2089.81  2153.60  2177.99  2189.07  2195.30
                             2201.98  2209.88  2214.63  2235.72  2240.83
                             2450.00  2472.32  4215.93  4283.59  4352.52
                             4375.60  4377.24  4393.17  4401.72  4428.54
                             4430.73  4443.76  4462.28  4465.80  4473.74
                             4477.45  4493.35  4546.16  4673.00  4996.82
                             5086.26  5115.04

 Zero-point correction=                           0.288515 (Hartree/Particle)
 Thermal correction to Energy=                    0.302248
 Thermal correction to Enthalpy=                  0.303192
 Thermal correction to Gibbs Free Energy=         0.246693
 Sum of electronic and zero-point Energies=           -464.233616
 Sum of electronic and thermal Energies=              -464.219883
 Sum of electronic and thermal Enthalpies=            -464.218939
 Sum of electronic and thermal Free Energies=         -464.275437

                     E (Thermal)             CV                S
                      KCal/Mol        Cal/Mol-Kelvin    Cal/Mol-Kelvin
 Total                  189.663             50.320            118.912
 Electronic               0.000              0.000              0.000
 Translational            0.889              2.981             41.047
 Rotational               0.889              2.981             31.114
 Vibrational            187.886             44.359             46.751
 Vibration     1          0.593              1.986              6.841
 Vibration     2          0.594              1.981              5.235
 Vibration     3          0.595              1.978              4.829
 Vibration     4          0.600              1.961              3.826
 Vibration     5          0.610              1.930              3.049
 Vibration     6          0.619              1.900              2.644
 Vibration     7          0.624              1.885              2.488
 Vibration     8          0.637              1.842              2.145
 Vibration     9          0.650              1.803              1.919
 Vibration    10          0.655              1.786              1.836
 Vibration    11          0.677              1.718              1.560
 Vibration    12          0.683              1.700              1.500
 Vibration    13          0.717              1.603              1.230
 Vibration    14          0.757              1.494              1.004
 Vibration    15          0.790              1.407              0.862
 Vibration    16          0.818              1.339              0.766
 Vibration    17          0.845              1.274              0.686
 Vibration    18          0.880              1.194              0.598

 Optimization completed.
    -- Stationary point found.

 1\1\GINC-NODE109\Freq\RB3LYP\6-31G(d)\C9H20N2\VSC10255\08-Dec-2020\0\\
 #N Geom=AllCheck Guess=TCheck SCRF=Check GenChk RB3LYP/6-31G(d) Freq\\
 CID_143231079_JID_1273_neutraal\\0,1\C,0.958879856,-0.1171910139,-0.09
 65894485\C,0.4991496088,-1.0411917361,1.0359750166\C,0.363526614,-0.33
 06128892,2.3909773324\C,-0.8390162512,0.6310754384,2.5315771438\C,-2.1
 676318332,-0.0766899882,2.693299736\C,-2.729271703,-0.2278162915,3.905
 0074071\N,-2.7239935959,-0.667172943,1.5441214223\C,-2.8678922493,0.11
 99073018,0.3169179177\C,-3.5879948483,-0.6800365877,-0.7706692068\C,-5

 Normal termination of Gaussian 16 at Tue Dec  8 19:49:54 2020.

 ----------------------------------------------------------------------
 # B3LYP/6-311++G(d,p) empiricaldispersion=gd3bj scf=xqc pop=npa geom=c
 heck
 ----------------------------------------------------------------------

 ---------------------------------------
 CID_143231079_JID_1273_Energie_neutraal
 ---------------------------------------
 Structure from the checkpoint file:  "JID_1273.chk"
 Charge =  0 Multiplicity = 1

 SCF Done:  E(RB3LYP) =  -464.667519538     A.U. after   13 cycles
 Normal termination of Gaussian 16 at Tue Dec  8 19:53:32 2020.

 ----------------------------------------------------------------------
 # B3LYP/6-311++G(d,p) empiricaldispersion=gd3bj scf=xqc pop=npa geom=c
 heck
 ----------------------------------------------------------------------

 -------------------------------------
 CID_143231079_JID_1273_Energie_kation
 -------------------------------------
 Structure from the checkpoint file:  "JID_1273.chk"
 Charge =  1 Multiplicity = 2

 SCF Done:  E(UB3LYP) =  -464.387252832     A.U. after   20 cycles
 Normal termination of Gaussian 16 at Tue Dec  8 20:00:55 2020.
 Gaussian 16:  ES64L-G16RevA.03 25-Dec-2016

 ------------------------------------
 CID_143231079_JID_1273_Energie_anion
 ------------------------------------
 Structure from the checkpoint file:  "JID_1273.chk"
 Charge = -1 Multiplicity = 2

                         Standard orientation:
 ---------------------------------------------------------------------
 Center     Atomic      Atomic             Coordinates (Angstroms)
 Number     Number       Type             X           Y           Z
 ---------------------------------------------------------------------
      1          6           0       -2.575749   -2.163315    0.341856
      2          6           0       -2.482246   -1.056468   -0.713596
      3          6           0       -2.827487    0.338805   -0.171960
      4          6           0       -1.774669    0.980248    0.761232
      5          6           0       -0.549023    1.491528    0.034121
      6          6           0       -0.413702    2.795107   -0.264012
      7          7           0        0.376615    0.532535   -0.415708
      8          6           0        0.888716   -0.478203    0.512942
      9          6           0        1.956112   -1.349225   -0.152859
     10          6           0        3.225253   -0.598895   -0.573543
     11          7           0        3.873284    0.031747    0.580761
     12          1           0       -1.912797   -1.977201    1.194941
     13          1           0       -2.302329   -3.137918   -0.078011
     14          1           0       -3.596293   -2.243372    0.736561
     15          1           0       -1.480058   -1.033029   -1.155864
     16          1           0       -3.176640   -1.293984   -1.530423
     17          1           0       -2.991739    1.026326   -1.010580
     18          1           0       -3.779434    0.279695    0.375000
     19          1           0       -2.235015    1.833765    1.268462
     20          1           0       -1.495318    0.274220    1.552662
     21          1           0        0.447378    3.172813   -0.811012
     22          1           0       -1.187253    3.510887   -0.009811
     23          1           0        1.134505    0.982158   -0.920074
     24          1           0        1.298472   -0.028771    1.433768
     25          1           0        0.061697   -1.121949    0.821399
     26          1           0        2.243226   -2.133538    0.556317
     27          1           0        1.518685   -1.834368   -1.034543
     28          1           0        3.930100   -1.324948   -0.994487
     29          1           0        2.991927    0.103011   -1.397322
     30          1           0        4.776291    0.411741    0.303586
     31          1           0        3.322074    0.826990    0.898978
 ---------------------------------------------------------------------

 SCF Done:  E(UB3LYP) =  -464.653504473     A.U. after   30 cycles

 The electronic state is 2-A.
 Alpha  occ. eigenvalues --  -14.21328 -14.18710 -10.10608 -10.09804 -10.08931
 Alpha  occ. eigenvalues --  -10.07371 -10.06969 -10.06737 -10.06468 -10.06289
 Alpha  occ. eigenvalues --  -10.04390  -0.82777  -0.77828  -0.70689  -0.67740
 Alpha  occ. eigenvalues --   -0.64158  -0.60876  -0.56472  -0.54815  -0.48871
 Alpha  occ. eigenvalues --   -0.47767  -0.44840  -0.40247  -0.38993  -0.37684
 Alpha  occ. eigenvalues --   -0.36325  -0.36145  -0.34210  -0.32760  -0.32004
 Alpha  occ. eigenvalues --   -0.31068  -0.30085  -0.29139  -0.28246  -0.26095
 Alpha  occ. eigenvalues --   -0.25896  -0.25714  -0.23919  -0.23381  -0.22845
 Alpha  occ. eigenvalues --   -0.22731  -0.19374  -0.14109  -0.10780   0.04441
 Alpha virt. eigenvalues --    0.06069   0.07276   0.07843   0.08613   0.08707
 Alpha virt. eigenvalues --    0.09299   0.10209   0.10304   0.10837   0.11129
 Alpha virt. eigenvalues --    0.11865   0.12417   0.12549   0.12920   0.13144

  Beta  occ. eigenvalues --  -14.21310 -14.18659 -10.10606 -10.09793 -10.08896
  Beta  occ. eigenvalues --  -10.07358 -10.06954 -10.06730 -10.06457 -10.06261
  Beta  occ. eigenvalues --  -10.04370  -0.82752  -0.77744  -0.70662  -0.67708
  Beta  occ. eigenvalues --   -0.64113  -0.60837  -0.56401  -0.54760  -0.48818
  Beta  occ. eigenvalues --   -0.47701  -0.44793  -0.40191  -0.38960  -0.37635
  Beta  occ. eigenvalues --   -0.36293  -0.36084  -0.34165  -0.32717  -0.31970
  Beta  occ. eigenvalues --   -0.31023  -0.30053  -0.29106  -0.28219  -0.26058
  Beta  occ. eigenvalues --   -0.25856  -0.25682  -0.23885  -0.23353  -0.22815
  Beta  occ. eigenvalues --   -0.22701  -0.19351  -0.14054  -0.10753
  Beta virt. eigenvalues --    0.06472   0.07430   0.07692   0.08068   0.09165
  Beta virt. eigenvalues --    0.09205   0.09793   0.10278   0.10460   0.11178
  Beta virt. eigenvalues --    0.11467   0.12150   0.12642   0.12940   0.13223

 Mulliken charges and spin densities:
               1          2
     1  C    0.647842  -1.184953
     2  C   -0.724149   0.497742
     3  C    0.388386  -0.697354
     4  C   -0.081397  -0.194444
     5  C   -0.448498   0.681192
     6  C   -0.027085  -0.525834
     7  N   -0.055223   0.143150
     8  C   -0.009594  -0.490665
     9  C   -0.188423  -0.079371
    10  C    1.285999  -1.659355
    11  N   -0.458073   0.095940
    12  H   -0.167624   0.301661
    13  H   -0.103546   0.232094
    14  H   -0.225299   0.361567
    15  H   -0.073157   0.263049
    16  H   -0.173038   0.336093
    17  H    0.084610   0.056273
    18  H   -0.148421   0.278447
    19  H   -0.136959   0.333615
    20  H    0.047834   0.088220
    21  H   -0.444887   0.527533
    22  H    0.054189   0.061733
    23  H    0.764278  -0.517368
    24  H   -0.071575   0.238613
    25  H    0.579310  -0.521322
    26  H   -0.064241   0.220066
    27  H    0.215793  -0.089123
    28  H   -0.458149   0.634632
    29  H   -0.713664   0.833520
    30  H   -0.330691   0.580977
    31  H    0.035453   0.193671
 Sum of Mulliken charges =  -1.00000   1.00000

 Dipole moment (field-independent basis, Debye):
    X=             -4.6082    Y=             -0.7628    Z=              0.4862  Tot=              4.6961
 Quadrupole moment (field-independent basis, Debye-Ang):
   XX=           -163.8402   YY=           -114.6742   ZZ=           -102.0125
   XY=             -8.4841   XZ=              2.8535   YZ=              0.8388

 Summary of Natural Population Analysis:

                                       Natural Population
                Natural  -----------------------------------------------
    Atom  No    Charge         Core      Valence    Rydberg      Total
 -----------------------------------------------------------------------
      C    1   -0.28666      0.99967     2.28165    0.00535     3.28666
      C    2   -0.19849      0.99963     2.19040    0.00846     3.19849
      C    3   -0.18408      0.99962     2.17581    0.00865     3.18408
      C    4   -0.20858      0.99958     2.20000    0.00901     3.20858
      C    5    0.10073      0.99950     1.88515    0.01461     2.89927
      C    6   -0.24425      0.99951     2.23820    0.00653     3.24425
      N    7   -0.33148      0.99968     2.82032    0.01149     3.83148
      C    8   -0.08809      0.99960     2.07945    0.00904     3.08809
      C    9   -0.19411      0.99962     2.18655    0.00794     3.19411
      C   10   -0.09083      0.99964     2.07887    0.01231     3.09083
      N   11   -0.42584      0.99977     2.91440    0.01167     3.92584
      H   12    0.09302      0.00000     0.40572    0.00126     0.40698
      H   13    0.09879      0.00000     0.40032    0.00089     0.40121
      H   14    0.09541      0.00000     0.40336    0.00123     0.40459
      H   15    0.10428      0.00000     0.39389    0.00183     0.39572
      H   16    0.09383      0.00000     0.40514    0.00103     0.40617
      H   17    0.09811      0.00000     0.40073    0.00117     0.40189
      H   18    0.09400      0.00000     0.40484    0.00116     0.40600
      H   19    0.10425      0.00000     0.39467    0.00108     0.39575
      H   20    0.10042      0.00000     0.39809    0.00149     0.39958
      H   21    0.09374      0.00000     0.40499    0.00126     0.40626
      H   22    0.09427      0.00000     0.40476    0.00097     0.40573
      H   23    0.18101      0.00000     0.31524    0.00375     0.31899
      H   24    0.08351      0.00000     0.41495    0.00155     0.41649
      H   25    0.09532      0.00000     0.40274    0.00194     0.40468
      H   26    0.10080      0.00000     0.39801    0.00120     0.39920
      H   27    0.09852      0.00000     0.40003    0.00145     0.40148
      H   28    0.09362      0.00000     0.40477    0.00161     0.40638
      H   29    0.07556      0.00000     0.42170    0.00274     0.42444
      H   30    0.18034      0.00000     0.31486    0.00481     0.31966
      H   31    0.17289      0.00000     0.32443    0.00267     0.32711
 =======================================================================
   * Total *    0.00000     10.99581    32.86403    0.14016    44.00000

 Normal termination of Gaussian 16 at Tue Dec  8 20:11:56 2020.
