 Gaussian 16, Revision A.03,

 -----------------------------------------------------------
 # opt freq B3LYP/6-31G(d) empiricaldispersion=gd3bj scf=xqc
 -----------------------------------------------------------

 -------------------------------
 CID_129361847_JID_6352_neutraal
 -------------------------------
 Symbolic Z-matrix:
 Charge =  0 Multiplicity = 1

 SCF Done:  E(RB3LYP) =  -1010.35241882     A.U. after   14 cycles
 SCF Done:  E(RB3LYP) =  -1010.35782815     A.U. after   13 cycles
 SCF Done:  E(RB3LYP) =  -1010.36117593     A.U. after   14 cycles
 SCF Done:  E(RB3LYP) =  -1010.36014087     A.U. after   15 cycles
 SCF Done:  E(RB3LYP) =  -1010.36326792     A.U. after   13 cycles
 SCF Done:  E(RB3LYP) =  -1010.36372973     A.U. after   12 cycles
 SCF Done:  E(RB3LYP) =  -1010.36406942     A.U. after   12 cycles
 SCF Done:  E(RB3LYP) =  -1010.36411395     A.U. after   10 cycles
 SCF Done:  E(RB3LYP) =  -1010.36412573     A.U. after   10 cycles
 SCF Done:  E(RB3LYP) =  -1010.36412714     A.U. after    8 cycles
 SCF Done:  E(RB3LYP) =  -1010.36412728     A.U. after    7 cycles
 Optimization completed.
    -- Stationary point found.
 Normal termination of Gaussian 16 at Thu Dec 10 22:17:10 2020.

 --------------------------------------------------------------------
 #N Geom=AllCheck Guess=TCheck SCRF=Check GenChk RB3LYP/6-31G(d) Freq
 --------------------------------------------------------------------

 Structure from the checkpoint file:  "JID_6352.chk"
 -------------------------------
 CID_129361847_JID_6352_neutraal
 -------------------------------
 Charge =  0 Multiplicity = 1

 SCF Done:  E(RB3LYP) =  -1010.36412728     A.U. after    1 cycles

  Exact polarizability: 238.344  -4.268 158.892  -3.161   2.320  80.834
 Approx polarizability: 331.642  -8.638 304.981  -6.714   6.343 125.545

                      1                      2                      3
                      A                      A                      A
 Frequencies --     43.9711                55.1282                99.0750
 Red. masses --      4.7011                 5.0415                 5.2286
 Frc consts  --      0.0054                 0.0090                 0.0302
 IR Inten    --      0.5732                 0.9670                 1.3383

                      4                      5                      6
                      A                      A                      A
 Frequencies --    132.0325               154.7989               256.9426
 Red. masses --      4.1725                 4.0239                 5.9179
 Frc consts  --      0.0429                 0.0568                 0.2302
 IR Inten    --      0.9652                 0.8371                 1.9647

                      7                      8                      9
                      A                      A                      A
 Frequencies --    263.9779               281.8485               289.2462
 Red. masses --      4.3187                 1.9276                 1.9832
 Frc consts  --      0.1773                 0.0902                 0.0978
 IR Inten    --      0.9015                 2.0884                 0.5040

                     10                     11                     12
                      A                      A                      A
 Frequencies --    308.5405               337.4697               408.8066
 Red. masses --      2.3030                 4.2199                 5.5003
 Frc consts  --      0.1292                 0.2832                 0.5416
 IR Inten    --      1.0700                 3.1624                 4.2812

                     13                     14                     15
                      A                      A                      A
 Frequencies --    414.3221               435.6185               438.5049
 Red. masses --      3.8027                 3.4930                 3.2165
 Frc consts  --      0.3846                 0.3905                 0.3644
 IR Inten    --      1.4150                 4.9940                 3.9308

                     16                     17                     18
                      A                      A                      A
 Frequencies --    499.8640               534.3927               563.0627
 Red. masses --      7.1495                 3.5278                 3.2572
 Frc consts  --      1.0525                 0.5936                 0.6084
 IR Inten    --      1.2831                 6.3819                 9.8230

                     19                     20                     21
                      A                      A                      A
 Frequencies --    588.3700               609.5977               640.1842
 Red. masses --      5.8733                 5.2016                 7.1087
 Frc consts  --      1.1979                 1.1389                 1.7165
 IR Inten    --      0.9479                 2.7438                 5.6394

                     22                     23                     24
                      A                      A                      A
 Frequencies --    695.9476               709.6823               714.6384
 Red. masses --      5.4780                 5.5953                 4.1132
 Frc consts  --      1.5632                 1.6603                 1.2377
 IR Inten    --      5.1135                24.8080                10.2468

                     25                     26                     27
                      A                      A                      A
 Frequencies --    756.5802               770.0270               803.0775
 Red. masses --      1.2310                 1.7160                 2.4505
 Frc consts  --      0.4152                 0.5995                 0.9312
 IR Inten    --     44.5921                23.7872                17.2576

                     28                     29                     30
                      A                      A                      A
 Frequencies --    815.9547               836.8852               868.2391
 Red. masses --      2.6548                 3.8784                 1.3488
 Frc consts  --      1.0414                 1.6004                 0.5991
 IR Inten    --     88.2857                 6.0628                 0.0347

                     31                     32                     33
                      A                      A                      A
 Frequencies --    906.7980               920.9155               936.7210
 Red. masses --      2.2319                 1.3278                 1.4845
 Frc consts  --      1.0813                 0.6635                 0.7674
 IR Inten    --      0.6131                 1.2573                 1.7992

                     34                     35                     36
                      A                      A                      A
 Frequencies --    957.3901               972.8720               980.8344
 Red. masses --      2.4001                 1.2438                 1.4456
 Frc consts  --      1.2961                 0.6936                 0.8194
 IR Inten    --      8.8076                 0.0149                 0.8407

                     37                     38                     39
                      A                      A                      A
 Frequencies --   1011.2535              1016.1560              1055.4195
 Red. masses --      1.2886                 7.0076                 2.3851
 Frc consts  --      0.7764                 4.2633                 1.5653
 IR Inten    --      0.2352                 6.2392                 8.3954

                     40                     41                     42
                      A                      A                      A
 Frequencies --   1076.5148              1080.0153              1101.0305
 Red. masses --      2.5934                 2.5701                 2.0637
 Frc consts  --      1.7707                 1.7663                 1.4740
 IR Inten    --     19.7162                 4.9323                28.6484

                     43                     44                     45
                      A                      A                      A
 Frequencies --   1123.5424              1130.4246              1152.5751
 Red. masses --      1.7274                 2.0129                 1.5491
 Frc consts  --      1.2848                 1.5155                 1.2125
 IR Inten    --      9.4304                 3.2475                 2.9156

                     46                     47                     48
                      A                      A                      A
 Frequencies --   1186.6261              1189.4686              1192.4612
 Red. masses --      1.4002                 2.2298                 1.1219
 Frc consts  --      1.1617                 1.8588                 0.9399
 IR Inten    --     10.9394                43.8302                 0.2821

                     49                     50                     51
                      A                      A                      A
 Frequencies --   1260.8077              1303.0798              1304.1652
 Red. masses --      3.2396                 2.2973                 2.0276
 Frc consts  --      3.0342                 2.2983                 2.0319
 IR Inten    --     37.6354                 5.8100                 0.3508

                     52                     53                     54
                      A                      A                      A
 Frequencies --   1322.7526              1334.1540              1361.4004
 Red. masses --      4.5685                 1.5670                 5.3151
 Frc consts  --      4.7095                 1.6433                 5.8041
 IR Inten    --      0.9557                 0.9763                 4.7033

                     55                     56                     57
                      A                      A                      A
 Frequencies --   1427.0220              1453.3544              1478.8220
 Red. masses --      1.2208                 1.3426                 2.0757
 Frc consts  --      1.4647                 1.6709                 2.6745
 IR Inten    --     13.9439                62.6366                12.0394

                     58                     59                     60
                      A                      A                      A
 Frequencies --   1498.2827              1508.3006              1512.9653
 Red. masses --      2.2452                 1.8508                 1.4650
 Frc consts  --      2.9695                 2.4808                 1.9758
 IR Inten    --      3.7696                29.2200                34.1656

                     61                     62                     63
                      A                      A                      A
 Frequencies --   1515.6951              1528.8322              1632.2700
 Red. masses --      1.0805                 1.8686                 5.7792
 Frc consts  --      1.4625                 2.5733                 9.0719
 IR Inten    --      3.0988                13.9946                11.6333

                     64                     65                     66
                      A                      A                      A
 Frequencies --   1633.2568              1648.9273              1651.0097
 Red. masses --      5.8737                 5.5762                 6.2694
 Frc consts  --      9.2314                 8.9329                10.0688
 IR Inten    --     10.3670                51.1839                 0.9343

                     67                     68                     69
                      A                      A                      A
 Frequencies --   3060.5777              3135.0380              3159.6775
 Red. masses --      1.0358                 1.1008                 1.1039
 Frc consts  --      5.7167                 6.3743                 6.4932
 IR Inten    --     16.9070                19.0455                 9.7607

                     70                     71                     72
                      A                      A                      A
 Frequencies --   3179.1416              3187.4575              3197.1253
 Red. masses --      1.0892                 1.0853                 1.0886
 Frc consts  --      6.4859                 6.4965                 6.5558
 IR Inten    --     21.9187                 0.8586                 9.9340

                     73                     74                     75
                      A                      A                      A
 Frequencies --   3198.6628              3207.5905              3215.3311
 Red. masses --      1.0891                 1.0933                 1.0973
 Frc consts  --      6.5656                 6.6272                 6.6837
 IR Inten    --      8.2500                23.4526                27.5074

                     76                     77                     78
                      A                      A                      A
 Frequencies --   3216.8203              3223.2310              3445.6342
 Red. masses --      1.0934                 1.0964                 1.0735
 Frc consts  --      6.6664                 6.7111                 7.5090
 IR Inten    --     19.2358                 7.5775                 0.9093

 - Thermochemistry -
 -------------------
 Temperature   298.150 Kelvin.  Pressure   1.00000 Atm.
 Atom     1 has atomic number  6 and mass  12.00000

 Molecular mass:   228.07212 amu.
 Principal axes and moments of inertia in atomic units:
                           1         2         3
     Eigenvalues --  1308.326016308.382686971.48176
           X            1.00000   0.00124  -0.00076
           Y           -0.00124   0.99998  -0.00653
           Z            0.00075   0.00653   0.99998
 This molecule is an asymmetric top.
 Rotational symmetry number  1.
 Warning -- assumption of classical behavior for rotation
           may cause significant error
 Rotational temperatures (Kelvin)      0.06620     0.01373     0.01242
 Rotational constants (GHZ):           1.37943     0.28609     0.25887
 Zero-point vibrational energy     586883.1 (Joules/Mol)
                                  140.26842 (Kcal/Mol)
 Warning -- explicit consideration of  20 degrees of freedom as
           vibrations may cause significant error
 Vibrational temperatures:     63.26    79.32   142.55   189.97   222.72
          (Kelvin)            369.68   379.81   405.52   416.16   443.92
                              485.54   588.18   596.12   626.76   630.91
                              719.19   768.87   810.12   846.53   877.08
                              921.08  1001.31  1021.07  1028.21  1088.55
                             1107.90  1155.45  1173.98  1204.09  1249.20
                             1304.68  1324.99  1347.73  1377.47  1399.75
                             1411.20  1454.97  1462.02  1518.51  1548.86
                             1553.90  1584.14  1616.53  1626.43  1658.30
                             1707.29  1711.38  1715.69  1814.02  1874.84
                             1876.40  1903.15  1919.55  1958.75  2053.17
                             2091.05  2127.70  2155.69  2170.11  2176.82
                             2180.75  2199.65  2348.47  2349.89  2372.44
                             2375.43  4403.49  4510.62  4546.07  4574.08
                             4586.04  4599.95  4602.16  4615.01  4626.14
                             4628.29  4637.51  4957.50

 Zero-point correction=                           0.223532 (Hartree/Particle)
 Thermal correction to Energy=                    0.236377
 Thermal correction to Enthalpy=                  0.237321
 Thermal correction to Gibbs Free Energy=         0.183823
 Sum of electronic and zero-point Energies=          -1010.140595
 Sum of electronic and thermal Energies=             -1010.127750
 Sum of electronic and thermal Enthalpies=           -1010.126806
 Sum of electronic and thermal Free Energies=        -1010.180304

                     E (Thermal)             CV                S
                      KCal/Mol        Cal/Mol-Kelvin    Cal/Mol-Kelvin
 Total                  148.329             51.954            112.597
 Electronic               0.000              0.000              0.000
 Translational            0.889              2.981             42.176
 Rotational               0.889              2.981             32.420
 Vibrational            146.551             45.992             38.001
 Vibration     1          0.595              1.980              5.072
 Vibration     2          0.596              1.976              4.624
 Vibration     3          0.604              1.950              3.472
 Vibration     4          0.612              1.921              2.916
 Vibration     5          0.620              1.897              2.612
 Vibration     6          0.667              1.751              1.682
 Vibration     7          0.671              1.739              1.635
 Vibration     8          0.681              1.707              1.522
 Vibration     9          0.686              1.694              1.478
 Vibration    10          0.698              1.657              1.370
 Vibration    11          0.718              1.601              1.224
 Vibration    12          0.773              1.451              0.931
 Vibration    13          0.778              1.439              0.911
 Vibration    14          0.796              1.393              0.840
 Vibration    15          0.799              1.386              0.831
 Vibration    16          0.855              1.250              0.658
 Vibration    17          0.889              1.174              0.577
 Vibration    18          0.919              1.111              0.518
 Vibration    19          0.946              1.057              0.470
 Vibration    20          0.969              1.011              0.433

 Optimization completed.
    -- Stationary point found.
 Normal termination of Gaussian 16 at Thu Dec 10 22:26:15 2020.

 ----------------------------------------------------------------------
 # B3LYP/6-311++G(d,p) empiricaldispersion=gd3bj scf=xqc pop=npa geom=c
 heck
 ----------------------------------------------------------------------

 ---------------------------------------
 CID_129361847_JID_6352_Energie_neutraal
 ---------------------------------------
 Structure from the checkpoint file:  "JID_6352.chk"
 Charge =  0 Multiplicity = 1

 SCF Done:  E(RB3LYP) =  -1010.54797593     A.U. after   16 cycles
 Normal termination of Gaussian 16 at Thu Dec 10 22:30:39 2020.

 ----------------------------------------------------------------------
 # B3LYP/6-311++G(d,p) empiricaldispersion=gd3bj scf=xqc pop=npa geom=c
 heck
 ----------------------------------------------------------------------

 -------------------------------------
 CID_129361847_JID_6352_Energie_kation
 -------------------------------------
 Structure from the checkpoint file:  "JID_6352.chk"
 Charge =  1 Multiplicity = 2

 SCF Done:  E(UB3LYP) =  -1010.27549022     A.U. after   24 cycles
 Normal termination of Gaussian 16 at Thu Dec 10 22:40:03 2020.
 Gaussian 16:  ES64L-G16RevA.03 25-Dec-2016

 ----------------------------------------------------------------------
 # B3LYP/6-311++G(d,p) empiricaldispersion=gd3bj scf=xqc pop=npa geom=c
 heck
 ----------------------------------------------------------------------

 ------------------------------------
 CID_129361847_JID_6352_Energie_anion
 ------------------------------------
 Structure from the checkpoint file:  "JID_6352.chk"
 Charge = -1 Multiplicity = 2

                         Standard orientation:
 ---------------------------------------------------------------------
 Center     Atomic      Atomic             Coordinates (Angstroms)
 Number     Number       Type             X           Y           Z
 ---------------------------------------------------------------------
      1          6           0        0.288331   -0.016246    2.076214
      2          6           0        0.380468    0.026697    0.545762
      3          7           0       -0.409245    1.147021    0.038057
      4          6           0       -1.773804    0.729518   -0.082101
      5          6           0       -2.858777    1.594556   -0.127780
      6          6           0       -4.143651    1.067205   -0.298577
      7          6           0       -4.328815   -0.312000   -0.405347
      8          6           0       -3.238902   -1.186907   -0.346717
      9          6           0       -1.958012   -0.662319   -0.189451
     10         16           0       -0.425980   -1.554770   -0.138240
     11          6           0        1.825940    0.105087    0.109293
     12          6           0        2.451411    1.339279   -0.098534
     13          6           0        3.797362    1.352112   -0.461064
     14          6           0        4.472253    0.140617   -0.592043
     15          6           0        3.764155   -1.036251   -0.344441
     16          7           0        2.473578   -1.062129   -0.000850
     17          1           0        0.835142   -0.880511    2.460118
     18          1           0       -0.756983   -0.086496    2.389573
     19          1           0        0.718855    0.902268    2.490347
     20          1           0       -0.062023    1.420605   -0.882816
     21          1           0       -2.697620    2.663730   -0.027806
     22          1           0       -4.999009    1.735159   -0.335044
     23          1           0       -5.329933   -0.715729   -0.527043
     24          1           0       -3.388748   -2.259175   -0.426873
     25          1           0        1.895886    2.261163    0.035905
     26          1           0        4.309109    2.294563   -0.634382
     27          1           0        5.519527    0.103138   -0.874450
     28          1           0        4.253388   -2.004714   -0.427420
 ---------------------------------------------------------------------

 SCF Done:  E(UB3LYP) =  -1010.54256075     A.U. after   33 cycles
 SCF Done:  E(UB3LYP) =  -1010.54256075     a.u. after    1 cycles

 The electronic state is 2-A.
 Alpha  occ. eigenvalues --  -88.72486 -14.20873 -14.16396 -10.12538 -10.09602
 Alpha  occ. eigenvalues --  -10.08994 -10.08234 -10.07494 -10.07026 -10.06866
 Alpha  occ. eigenvalues --  -10.06826 -10.06785 -10.05339 -10.05202 -10.05037
 Alpha  occ. eigenvalues --  -10.04631  -7.81076  -5.77414  -5.77116  -5.76500
 Alpha  occ. eigenvalues --   -0.84262  -0.81111  -0.74298  -0.68240  -0.67162
 Alpha  occ. eigenvalues --   -0.66127  -0.62761  -0.61897  -0.57932  -0.52364
 Alpha  occ. eigenvalues --   -0.50735  -0.49333  -0.47715  -0.45662  -0.41923
 Alpha  occ. eigenvalues --   -0.39416  -0.37132  -0.36387  -0.36021  -0.34354
 Alpha  occ. eigenvalues --   -0.32952  -0.32603  -0.31519  -0.29839  -0.28662
 Alpha  occ. eigenvalues --   -0.28262  -0.27418  -0.26748  -0.26197  -0.25788
 Alpha  occ. eigenvalues --   -0.24360  -0.22959  -0.21660  -0.18277  -0.16838
 Alpha  occ. eigenvalues --   -0.16494  -0.13730  -0.12993  -0.12714  -0.09445
 Alpha  occ. eigenvalues --    0.04856
 Alpha virt. eigenvalues --    0.06559   0.07606   0.08055   0.08578   0.08812
 Alpha virt. eigenvalues --    0.09341   0.09494   0.09920   0.10193   0.10711
 Alpha virt. eigenvalues --    0.11196   0.11721   0.12561   0.13367   0.13560

  Beta  occ. eigenvalues --  -88.72464 -14.20858 -14.16011 -10.12501 -10.09556
  Beta  occ. eigenvalues --  -10.08986 -10.08152 -10.07445 -10.07017 -10.06848
  Beta  occ. eigenvalues --  -10.06795 -10.06768 -10.05341 -10.05234 -10.05020
  Beta  occ. eigenvalues --  -10.04295  -7.81055  -5.77362  -5.77094  -5.76484
  Beta  occ. eigenvalues --   -0.84141  -0.80632  -0.74236  -0.68095  -0.66698
  Beta  occ. eigenvalues --   -0.66000  -0.62680  -0.61743  -0.57862  -0.52141
  Beta  occ. eigenvalues --   -0.50503  -0.49156  -0.47594  -0.45453  -0.41818
  Beta  occ. eigenvalues --   -0.39312  -0.36999  -0.36286  -0.35940  -0.34221
  Beta  occ. eigenvalues --   -0.32848  -0.32504  -0.31339  -0.29658  -0.28575
  Beta  occ. eigenvalues --   -0.28116  -0.27335  -0.26628  -0.25786  -0.25348
  Beta  occ. eigenvalues --   -0.24180  -0.22829  -0.21544  -0.18164  -0.16616
  Beta  occ. eigenvalues --   -0.14874  -0.13126  -0.12625  -0.12478  -0.09349
  Beta virt. eigenvalues --    0.06898   0.07578   0.08369   0.08602   0.08843
  Beta virt. eigenvalues --    0.09303   0.09448   0.10042   0.10307   0.10602
  Beta virt. eigenvalues --    0.10854   0.11262   0.11833   0.12689   0.13266

 Mulliken charges and spin densities:
               1          2
     1  C   -0.420971  -0.090493
     2  C    2.050875  -1.201358
     3  N    0.211206   0.016502
     4  C   -0.684530  -0.482665
     5  C   -1.157572   0.634402
     6  C    0.412376  -0.764247
     7  C    0.317324  -0.531981
     8  C   -1.046653   0.939751
     9  C    1.841878  -0.427016
    10  S   -0.237257  -0.205106
    11  C   -1.840078   0.798712
    12  C    0.403214  -0.062540
    13  C   -0.758225   0.206516
    14  C    0.266340  -0.218553
    15  C   -0.385922   0.265425
    16  N    0.056652   0.194944
    17  H    0.143552   0.019216
    18  H    0.178210  -0.035681
    19  H    0.093015   0.038423
    20  H    0.120080   0.146755
    21  H   -0.249462   0.410550
    22  H   -0.258032   0.414125
    23  H   -0.090176   0.231878
    24  H   -0.082876   0.247435
    25  H    0.004542   0.185451
    26  H   -0.096259   0.207748
    27  H    0.088654   0.040633
    28  H    0.120095   0.021175
 Sum of Mulliken charges =  -1.00000   1.00000

 Dipole moment (field-independent basis, Debye):
    X=              0.2928    Y=             -0.4920    Z=              1.1411  Tot=              1.2766
 Quadrupole moment (field-independent basis, Debye-Ang):
   XX=           -165.5434   YY=           -128.8954   ZZ=           -118.2169
   XY=              3.0884   XZ=             -1.6091   YZ=             -0.2573

 Summary of Natural Population Analysis:

                                       Natural Population
                Natural  -----------------------------------------------
    Atom  No    Charge         Core      Valence    Rydberg      Total
 -----------------------------------------------------------------------
      C    1   -0.28919      0.99959     2.28298    0.00663     3.28919
      C    2    0.02293      0.99953     1.95714    0.02040     2.97707
      N    3   -0.33451      0.99968     2.82214    0.01270     3.83451
      C    4    0.07037      0.99940     1.91794    0.01229     2.92963
      C    5   -0.10485      0.99950     2.09548    0.00986     3.10485
      C    6   -0.11321      0.99957     2.10326    0.01038     3.11321
      C    7   -0.09897      0.99957     2.09010    0.00931     3.09897
      C    8   -0.11366      0.99950     2.10404    0.01012     3.11366
      C    9   -0.09750      0.99937     2.08544    0.01270     3.09750
      S   10    0.13700      4.99954     2.84660    0.01685     7.86300
      C   11    0.10439      0.99945     1.87911    0.01706     2.89561
      C   12   -0.13593      0.99951     2.12681    0.00961     3.13593
      C   13   -0.02807      0.99957     2.01885    0.00965     3.02807
      C   14   -0.13105      0.99956     2.12206    0.00942     3.13105
      C   15    0.03428      0.99960     1.95156    0.01456     2.96572
      N   16   -0.19350      0.99967     2.68378    0.01005     3.69350
      H   17    0.10597      0.00000     0.39319    0.00084     0.39403
      H   18    0.10177      0.00000     0.39746    0.00077     0.39823
      H   19    0.10136      0.00000     0.39761    0.00103     0.39864
      H   20    0.18984      0.00000     0.30769    0.00247     0.31016
      H   21    0.10357      0.00000     0.39482    0.00161     0.39643
      H   22    0.09870      0.00000     0.40032    0.00098     0.40130
      H   23    0.09723      0.00000     0.40191    0.00086     0.40277
      H   24    0.10052      0.00000     0.39805    0.00144     0.39948
      H   25    0.10394      0.00000     0.39443    0.00163     0.39606
      H   26    0.09145      0.00000     0.40769    0.00086     0.40855
      H   27    0.09499      0.00000     0.40414    0.00086     0.40501
      H   28    0.08215      0.00000     0.41679    0.00107     0.41785
 =======================================================================
   * Total *    0.00000     19.99261    39.80138    0.20601    60.00000

 Normal termination of Gaussian 16 at Thu Dec 10 22:53:36 2020.
