 Gaussian 16, Revision A.03,

 -----------------------------------------------------------
 # opt freq B3LYP/6-31G(d) empiricaldispersion=gd3bj scf=xqc
 -----------------------------------------------------------

 ------------------------------
 CID_62712024_JID_7878_neutraal
 ------------------------------
 Symbolic Z-matrix:
 Charge =  0 Multiplicity = 1

 SCF Done:  E(RB3LYP) =  -748.728727530     A.U. after   14 cycles
 SCF Done:  E(RB3LYP) =  -748.733881668     A.U. after   13 cycles
 SCF Done:  E(RB3LYP) =  -748.730890099     A.U. after   13 cycles
 SCF Done:  E(RB3LYP) =  -748.735144724     A.U. after   12 cycles
 SCF Done:  E(RB3LYP) =  -748.734723907     A.U. after   12 cycles
 SCF Done:  E(RB3LYP) =  -748.735916023     A.U. after   12 cycles
 SCF Done:  E(RB3LYP) =  -748.736802065     A.U. after   11 cycles
 SCF Done:  E(RB3LYP) =  -748.737505244     A.U. after   12 cycles
 SCF Done:  E(RB3LYP) =  -748.737919017     A.U. after   11 cycles
 SCF Done:  E(RB3LYP) =  -748.738439368     A.U. after   12 cycles
 SCF Done:  E(RB3LYP) =  -748.739881417     A.U. after    8 cycles
 SCF Done:  E(RB3LYP) =  -748.739882902     A.U. after    8 cycles
 SCF Done:  E(RB3LYP) =  -748.739883669     A.U. after    8 cycles
 SCF Done:  E(RB3LYP) =  -748.739883822     A.U. after    7 cycles
 SCF Done:  E(RB3LYP) =  -748.739883845     A.U. after    7 cycles
 Optimization completed.
    -- Stationary point found.
 Normal termination of Gaussian 16 at Fri Dec 11 13:51:53 2020.

 --------------------------------------------------------------------
 #N Geom=AllCheck Guess=TCheck SCRF=Check GenChk RB3LYP/6-31G(d) Freq
 --------------------------------------------------------------------

 Structure from the checkpoint file:  "JID_7878.chk"
 ------------------------------
 CID_62712024_JID_7878_neutraal
 ------------------------------
 Charge =  0 Multiplicity = 1

 SCF Done:  E(RB3LYP) =  -748.739883845     A.U. after    1 cycles

  Exact polarizability: 175.545   7.580 140.770  -1.833   2.434 130.831
 Approx polarizability: 221.428  11.612 217.007   1.033   5.079 198.080

                      1                      2                      3
                      A                      A                      A
 Frequencies --     38.4137                56.2948                69.6197
 Red. masses --      3.8662                 3.9407                 3.1532
 Frc consts  --      0.0034                 0.0074                 0.0090
 IR Inten    --      0.7852                 1.4260                 2.1930

                      4                      5                      6
                      A                      A                      A
 Frequencies --     89.9401               106.2694               150.2614
 Red. masses --      3.5576                 4.9973                 3.5263
 Frc consts  --      0.0170                 0.0333                 0.0469
 IR Inten    --      0.0687                 0.4310                 1.3032

                      7                      8                      9
                      A                      A                      A
 Frequencies --    161.3688               173.3212               184.2236
 Red. masses --      3.2715                 2.4825                 3.9381
 Frc consts  --      0.0502                 0.0439                 0.0787
 IR Inten    --     11.8047                 3.6911                 1.4683

                     10                     11                     12
                      A                      A                      A
 Frequencies --    235.4119               276.3414               296.2384
 Red. masses --      2.6705                 2.3328                 1.9125
 Frc consts  --      0.0872                 0.1050                 0.0989
 IR Inten    --      8.8213                 0.3897                14.6491

                     13                     14                     15
                      A                      A                      A
 Frequencies --    331.7479               339.1761               373.5623
 Red. masses --      2.7306                 1.6988                 3.1012
 Frc consts  --      0.1771                 0.1151                 0.2550
 IR Inten    --      3.2023                19.5803                17.9082

                     16                     17                     18
                      A                      A                      A
 Frequencies --    383.2125               394.3548               430.7962
 Red. masses --      2.7519                 2.2879                 2.1065
 Frc consts  --      0.2381                 0.2096                 0.2303
 IR Inten    --      3.8464                 2.0285                 9.7039

                     19                     20                     21
                      A                      A                      A
 Frequencies --    449.3543               467.7869               491.0014
 Red. masses --      3.4481                 4.0272                 2.3278
 Frc consts  --      0.4102                 0.5192                 0.3306
 IR Inten    --      2.9418                 0.7280                 1.9884

                     22                     23                     24
                      A                      A                      A
 Frequencies --    507.1929               566.4756               614.7903
 Red. masses --      2.6422                 3.1146                 2.0545
 Frc consts  --      0.4005                 0.5889                 0.4575
 IR Inten    --      8.2235                 7.0414                35.2084

                     25                     26                     27
                      A                      A                      A
 Frequencies --    630.7228               639.6395               687.9073
 Red. masses --      3.1833                 1.4551                 3.5098
 Frc consts  --      0.7461                 0.3508                 0.9786
 IR Inten    --      3.9288                64.8184                 9.6728

                     28                     29                     30
                      A                      A                      A
 Frequencies --    728.7959               781.6158               788.8283
 Red. masses --      3.8662                 1.7372                 1.5930
 Frc consts  --      1.2099                 0.6253                 0.5840
 IR Inten    --      0.5468                 1.4969                 1.0374

                     31                     32                     33
                      A                      A                      A
 Frequencies --    798.0878               803.4381               831.6926
 Red. masses --      2.1921                 2.4131                 2.2588
 Frc consts  --      0.8226                 0.9178                 0.9206
 IR Inten    --      8.9512                 4.9175                 8.7431

                     34                     35                     36
                      A                      A                      A
 Frequencies --    848.0086               852.4333               865.7808
 Red. masses --      1.6962                 2.6608                 1.5416
 Frc consts  --      0.7187                 1.1392                 0.6808
 IR Inten    --     13.6934                 4.6960                 0.3104

                     37                     38                     39
                      A                      A                      A
 Frequencies --    891.4700               906.5313               933.0054
 Red. masses --      3.1370                 1.6874                 2.2941
 Frc consts  --      1.4689                 0.8170                 1.1766
 IR Inten    --      4.0348               116.4282                 0.0393

                     40                     41                     42
                      A                      A                      A
 Frequencies --    941.8314               949.6039               961.3747
 Red. masses --      2.3041                 2.5793                 2.1001
 Frc consts  --      1.2042                 1.3704                 1.1436
 IR Inten    --      1.0926                13.2689                 6.4905

                     43                     44                     45
                      A                      A                      A
 Frequencies --    976.8971              1016.9320              1031.6204
 Red. masses --      2.0318                 2.0197                 1.8785
 Frc consts  --      1.1424                 1.2306                 1.1778
 IR Inten    --      7.1331                20.6548                 1.4443

                     46                     47                     48
                      A                      A                      A
 Frequencies --   1044.6682              1049.0627              1071.2764
 Red. masses --      2.6727                 1.7777                 1.4423
 Frc consts  --      1.7185                 1.1527                 0.9753
 IR Inten    --     15.0679                 5.7024                12.2899

                     49                     50                     51
                      A                      A                      A
 Frequencies --   1089.5051              1089.8521              1103.9736
 Red. masses --      1.7738                 1.5593                 1.8871
 Frc consts  --      1.2406                 1.0912                 1.3550
 IR Inten    --      0.7738                 7.7402                13.1270

                     52                     53                     54
                      A                      A                      A
 Frequencies --   1119.8812              1127.6080              1143.7729
 Red. masses --      1.9076                 1.7677                 1.1609
 Frc consts  --      1.4096                 1.3243                 0.8948
 IR Inten    --     25.7774                31.8051                 0.6410

                     55                     56                     57
                      A                      A                      A
 Frequencies --   1158.1966              1176.1132              1203.6155
 Red. masses --      1.5737                 1.2513                 2.2920
 Frc consts  --      1.2438                 1.0198                 1.9563
 IR Inten    --      3.9851                17.5733                16.6410

                     58                     59                     60
                      A                      A                      A
 Frequencies --   1210.4557              1215.4538              1221.7376
 Red. masses --      1.3788                 2.1913                 1.5236
 Frc consts  --      1.1903                 1.9074                 1.3399
 IR Inten    --      3.4935                 3.0771                19.8201

                     61                     62                     63
                      A                      A                      A
 Frequencies --   1227.8349              1240.7216              1262.3777
 Red. masses --      1.4411                 1.4046                 1.6787
 Frc consts  --      1.2800                 1.2739                 1.5762
 IR Inten    --     11.9120                39.1284                 8.7622

                     64                     65                     66
                      A                      A                      A
 Frequencies --   1285.7432              1297.8651              1327.1813
 Red. masses --      1.3423                 1.3339                 1.4754
 Frc consts  --      1.3074                 1.3238                 1.5312
 IR Inten    --      1.8909                 3.1589                 8.7018

                     67                     68                     69
                      A                      A                      A
 Frequencies --   1329.9109              1351.9275              1358.8889
 Red. masses --      1.6739                 1.4211                 1.4111
 Frc consts  --      1.7444                 1.5303                 1.5352
 IR Inten    --     45.9321                 6.5648                54.6751

                     70                     71                     72
                      A                      A                      A
 Frequencies --   1366.6756              1377.3502              1383.7645
 Red. masses --      1.3301                 1.4758                 1.3783
 Frc consts  --      1.4638                 1.6495                 1.5550
 IR Inten    --      8.5535                 2.0636                 2.9582

                     73                     74                     75
                      A                      A                      A
 Frequencies --   1385.8041              1392.3698              1406.2285
 Red. masses --      1.3009                 1.3842                 1.4513
 Frc consts  --      1.4719                 1.5811                 1.6910
 IR Inten    --     11.4109                 5.0664                 7.1223

                     76                     77                     78
                      A                      A                      A
 Frequencies --   1408.8804              1413.5733              1437.5486
 Red. masses --      1.4047                 1.4061                 1.6382
 Frc consts  --      1.6428                 1.6555                 1.9947
 IR Inten    --     16.5908                13.9244                41.3637

                     79                     80                     81
                      A                      A                      A
 Frequencies --   1445.2269              1458.1964              1467.1166
 Red. masses --      1.3843                 1.4179                 1.9183
 Frc consts  --      1.7035                 1.7764                 2.4327
 IR Inten    --     26.9526                 3.8530                53.5267

                     82                     83                     84
                      A                      A                      A
 Frequencies --   1487.0161              1493.0694              1497.7295
 Red. masses --      1.0984                 1.1177                 1.0962
 Frc consts  --      1.4310                 1.4680                 1.4487
 IR Inten    --      0.5138                11.7966                 2.4310

                     85                     86                     87
                      A                      A                      A
 Frequencies --   1508.9367              1528.2098              1528.4511
 Red. masses --      1.0989                 1.3159                 1.1159
 Frc consts  --      1.4742                 1.8107                 1.5359
 IR Inten    --      3.4516                 9.8224                 2.5712

                     88                     89                     90
                      A                      A                      A
 Frequencies --   1537.2529              1551.6470              1706.8237
 Red. masses --      1.0826                 1.0923                 1.0868
 Frc consts  --      1.5074                 1.5495                 1.8655
 IR Inten    --      3.9067                 7.0306                18.8707

                     91                     92                     93
                      A                      A                      A
 Frequencies --   1776.7227              3021.3271              3026.5751
 Red. masses --      8.0158                 1.0700                 1.0652
 Frc consts  --     14.9087                 5.7547                 5.7490
 IR Inten    --    272.9405                39.4951                19.7247

                     94                     95                     96
                      A                      A                      A
 Frequencies --   3039.3529              3042.9595              3052.3022
 Red. masses --      1.0753                 1.0708                 1.0726
 Frc consts  --      5.8524                 5.8417                 5.8874
 IR Inten    --     42.4642                10.1427                 5.5472

                     97                     98                     99
                      A                      A                      A
 Frequencies --   3054.9400              3063.1644              3071.3148
 Red. masses --      1.0695                 1.0729                 1.0796
 Frc consts  --      5.8806                 5.9314                 5.9999
 IR Inten    --    104.4507                54.4169                26.8991

                    100                    101                    102
                      A                      A                      A
 Frequencies --   3072.0564              3088.6265              3097.8211
 Red. masses --      1.0988                 1.0945                 1.0888
 Frc consts  --      6.1099                 6.1519                 6.1562
 IR Inten    --     77.3622                15.7795                10.2258

                    103                    104                    105
                      A                      A                      A
 Frequencies --   3101.1955              3114.7704              3122.7276
 Red. masses --      1.1031                 1.0930                 1.0908
 Frc consts  --      6.2508                 6.2480                 6.2668
 IR Inten    --     36.8365                10.5933                10.1047

                    106                    107                    108
                      A                      A                      A
 Frequencies --   3125.3177              3129.1828              3156.3173
 Red. masses --      1.0894                 1.0940                 1.0535
 Frc consts  --      6.2693                 6.3116                 6.1837
 IR Inten    --     51.9554                48.0696                12.4390

                    109                    110                    111
                      A                      A                      A
 Frequencies --   3165.6251              3237.5423              3257.2959
 Red. masses --      1.0583                 1.1192                 1.1155
 Frc consts  --      6.2487                 6.9119                 6.9733
 IR Inten    --      5.7632                 5.5620                 8.7677

                    112                    113                    114
                      A                      A                      A
 Frequencies --   3473.0755              3557.5401              3579.7331
 Red. masses --      1.0546                 1.0754                 1.0856
 Frc consts  --      7.4948                 8.0193                 8.1967
 IR Inten    --      3.6594                13.8189                 0.2048

 - Thermochemistry -
 -------------------
 Temperature   298.150 Kelvin.  Pressure   1.00000 Atm.
 Atom     1 has atomic number  6 and mass  12.00000

 Molecular mass:   237.18411 amu.
 Principal axes and moments of inertia in atomic units:
                           1         2         3
     Eigenvalues --  2025.267555654.709016264.86573
           X            0.99986   0.01667   0.00027
           Y           -0.01668   0.99982   0.00882
           Z           -0.00013  -0.00882   0.99996
 This molecule is an asymmetric top.
 Rotational symmetry number  1.
 Warning -- assumption of classical behavior for rotation
           may cause significant error
 Rotational temperatures (Kelvin)      0.04277     0.01532     0.01383
 Rotational constants (GHZ):           0.89111     0.31916     0.28807
 Zero-point vibrational energy     950853.9 (Joules/Mol)
                                  227.25953 (Kcal/Mol)
 Warning -- explicit consideration of  24 degrees of freedom as
           vibrations may cause significant error
 Vibrational temperatures:     55.27    81.00   100.17   129.40   152.90
          (Kelvin)            216.19   232.17   249.37   265.06   338.71
                              397.59   426.22   477.31   488.00   537.47
                              551.36   567.39   619.82   646.52   673.04
                              706.44   729.74   815.03   884.55   907.47
                              920.30   989.75  1048.57  1124.57  1134.95
                             1148.27  1155.97  1196.62  1220.10  1226.46
                             1245.67  1282.63  1304.30  1342.39  1355.09
                             1366.27  1383.20  1405.54  1463.14  1484.27
                             1503.04  1509.37  1541.33  1567.55  1568.05
                             1588.37  1611.26  1622.38  1645.63  1666.39
                             1692.16  1731.73  1741.58  1748.77  1757.81
                             1766.58  1785.12  1816.28  1849.90  1867.34
                             1909.52  1913.45  1945.12  1955.14  1966.34
                             1981.70  1990.93  1993.86  2003.31  2023.25
                             2027.06  2033.82  2068.31  2079.36  2098.02
                             2110.85  2139.48  2148.19  2154.90  2171.02
                             2198.75  2199.10  2211.76  2232.47  2455.74
                             2556.31  4347.02  4354.57  4372.95  4378.14
                             4391.58  4395.38  4407.21  4418.94  4420.00
                             4443.84  4457.07  4461.93  4481.46  4492.91
                             4496.64  4502.20  4541.24  4554.63  4658.10
                             4686.52  4996.98  5118.51  5150.44

 Zero-point correction=                           0.362161 (Hartree/Particle)
 Thermal correction to Energy=                    0.378139
 Thermal correction to Enthalpy=                  0.379083
 Thermal correction to Gibbs Free Energy=         0.319095
 Sum of electronic and zero-point Energies=           -748.377723
 Sum of electronic and thermal Energies=              -748.361745
 Sum of electronic and thermal Enthalpies=            -748.360801
 Sum of electronic and thermal Free Energies=         -748.420789

                     E (Thermal)             CV                S
                      KCal/Mol        Cal/Mol-Kelvin    Cal/Mol-Kelvin
 Total                  237.286             64.311            126.254
 Electronic               0.000              0.000              0.000
 Translational            0.889              2.981             42.292
 Rotational               0.889              2.981             32.639
 Vibrational            235.508             58.349             51.322
 Vibration     1          0.594              1.982              5.339
 Vibration     2          0.596              1.975              4.583
 Vibration     3          0.598              1.969              4.164
 Vibration     4          0.602              1.956              3.661
 Vibration     5          0.605              1.944              3.336
 Vibration     6          0.618              1.902              2.669
 Vibration     7          0.622              1.890              2.534
 Vibration     8          0.627              1.875              2.399
 Vibration     9          0.631              1.861              2.285
 Vibration    10          0.655              1.787              1.837
 Vibration    11          0.678              1.717              1.556
 Vibration    12          0.690              1.681              1.438
 Vibration    13          0.714              1.612              1.252
 Vibration    14          0.719              1.597              1.216
 Vibration    15          0.745              1.526              1.065
 Vibration    16          0.752              1.506              1.026
 Vibration    17          0.761              1.482              0.984
 Vibration    18          0.792              1.403              0.856
 Vibration    19          0.808              1.362              0.798
 Vibration    20          0.825              1.322              0.744
 Vibration    21          0.847              1.270              0.681
 Vibration    22          0.862              1.234              0.640
 Vibration    23          0.922              1.104              0.511
 Vibration    24          0.974              1.001              0.425

 Optimization completed.
    -- Stationary point found.
 Normal termination of Gaussian 16 at Fri Dec 11 14:12:59 2020.

 ----------------------------------------------------------------------
 # B3LYP/6-311++G(d,p) empiricaldispersion=gd3bj scf=xqc pop=npa geom=c
 heck
 ----------------------------------------------------------------------

 --------------------------------------
 CID_62712024_JID_7878_Energie_neutraal
 --------------------------------------
 Structure from the checkpoint file:  "JID_7878.chk"
 Charge =  0 Multiplicity = 1

 SCF Done:  E(RB3LYP) =  -748.954807581     A.U. after   14 cycles
 Normal termination of Gaussian 16 at Fri Dec 11 14:23:00 2020.

 ----------------------------------------------------------------------
 # B3LYP/6-311++G(d,p) empiricaldispersion=gd3bj scf=xqc pop=npa geom=c
 heck
 ----------------------------------------------------------------------

 ------------------------------------
 CID_62712024_JID_7878_Energie_kation
 ------------------------------------
 Structure from the checkpoint file:  "JID_7878.chk"
 Charge =  1 Multiplicity = 2

 SCF Done:  E(UB3LYP) =  -748.692082906     A.U. after   22 cycles
 Normal termination of Gaussian 16 at Fri Dec 11 14:45:29 2020.
 Gaussian 16:  ES64L-G16RevA.03 25-Dec-2016

 ----------------------------------------------------------------------
 # B3LYP/6-311++G(d,p) empiricaldispersion=gd3bj scf=xqc pop=npa geom=c
 heck
 ----------------------------------------------------------------------

 -----------------------------------
 CID_62712024_JID_7878_Energie_anion
 -----------------------------------
 Structure from the checkpoint file:  "JID_7878.chk"
 Charge = -1 Multiplicity = 2

                         Standard orientation:
 ---------------------------------------------------------------------
 Center     Atomic      Atomic             Coordinates (Angstroms)
 Number     Number       Type             X           Y           Z
 ---------------------------------------------------------------------
      1          6           0        0.458396    0.246174    1.840078
      2          6           0        1.354113    1.324397    1.202480
      3          6           0        1.429733    1.205331   -0.355706
      4          6           0        2.827815    0.821277   -0.883513
      5          6           0        3.242113   -0.642442   -0.590346
      6          6           0        2.067157   -1.603023   -0.870205
      7          6           0        0.707528   -1.109638   -0.334150
      8          6           0        0.622984   -1.154091    1.227049
      9          7           0        0.491276    0.222058   -0.895784
     10          6           0       -0.821640    0.643781   -1.331387
     11          6           0       -1.695872    1.379282   -0.302204
     12          8           0       -1.360307    2.470307    0.147263
     13          7           0       -2.858465    0.779203    0.118922
     14          6           0       -3.510508   -0.362599   -0.455804
     15          6           0       -3.004688   -1.749399   -0.135757
     16          6           0       -4.286563   -1.253466    0.478266
     17          7           0        3.831386   -0.895146    0.740153
     18          1           0       -0.583643    0.554867    1.728746
     19          1           0        0.641672    0.202480    2.920655
     20          1           0        0.948435    2.304065    1.467392
     21          1           0        2.363650    1.281628    1.627583
     22          1           0        1.158111    2.173307   -0.783448
     23          1           0        3.588424    1.505535   -0.483005
     24          1           0        2.808026    0.960801   -1.972025
     25          1           0        4.040074   -0.903438   -1.296827
     26          1           0        2.312831   -2.588194   -0.458211
     27          1           0        1.962924   -1.704971   -1.956859
     28          1           0       -0.065419   -1.762885   -0.752488
     29          1           0        1.510770   -1.654081    1.627617
     30          1           0       -0.223305   -1.777596    1.541458
     31          1           0       -0.699895    1.366219   -2.151232
     32          1           0       -1.336757   -0.229847   -1.737646
     33          1           0       -3.413621    1.378505    0.720990
     34          1           0       -3.935439   -0.213602   -1.448689
     35          1           0       -3.054388   -2.500877   -0.918168
     36          1           0       -2.135771   -1.816274    0.509087
     37          1           0       -4.267703   -0.996679    1.533574
     38          1           0       -5.230199   -1.658530    0.126353
     39          1           0        4.684414   -0.343095    0.827556
     40          1           0        3.216468   -0.556113    1.473651
 ---------------------------------------------------------------------

 SCF Done:  E(UB3LYP) =  -748.942547848     A.U. after   33 cycles
 SCF Done:  E(UB3LYP) =  -748.942547848     a.u. after    1 cycles

 The electronic state is 2-A.
 Alpha  occ. eigenvalues --  -18.99726 -14.24934 -14.20483 -14.19822 -10.17829
 Alpha  occ. eigenvalues --  -10.12634 -10.11010 -10.10481 -10.10383 -10.10113
 Alpha  occ. eigenvalues --  -10.08756 -10.08542 -10.07052 -10.06973 -10.06697
 Alpha  occ. eigenvalues --  -10.06554 -10.06484  -0.94867  -0.84451  -0.83962
 Alpha  occ. eigenvalues --   -0.79155  -0.75345  -0.70002  -0.67999  -0.67092
 Alpha  occ. eigenvalues --   -0.61672  -0.57994  -0.54685  -0.53546  -0.52075
 Alpha  occ. eigenvalues --   -0.51506  -0.48514  -0.47876  -0.43802  -0.42848
 Alpha  occ. eigenvalues --   -0.41352  -0.40303  -0.39192  -0.38368  -0.36886
 Alpha  occ. eigenvalues --   -0.35865  -0.35699  -0.33910  -0.33511  -0.32805
 Alpha  occ. eigenvalues --   -0.32309  -0.31477  -0.31182  -0.29845  -0.28867
 Alpha  occ. eigenvalues --   -0.28180  -0.28118  -0.26165  -0.25120  -0.24756
 Alpha  occ. eigenvalues --   -0.24155  -0.23177  -0.22709  -0.21992  -0.21574
 Alpha  occ. eigenvalues --   -0.20485  -0.17337  -0.16534  -0.14931  -0.10579
 Alpha  occ. eigenvalues --    0.04136
 Alpha virt. eigenvalues --    0.05543   0.06679   0.07418   0.07616   0.07857
 Alpha virt. eigenvalues --    0.08637   0.08945   0.09376   0.09882   0.10237
 Alpha virt. eigenvalues --    0.10577   0.11042   0.11376   0.12368   0.12546

  Beta  occ. eigenvalues --  -18.99720 -14.24926 -14.20481 -14.19803 -10.17826
  Beta  occ. eigenvalues --  -10.12612 -10.10998 -10.10476 -10.10374 -10.10112
  Beta  occ. eigenvalues --  -10.08722 -10.08515 -10.07046 -10.06966 -10.06684
  Beta  occ. eigenvalues --  -10.06547 -10.06475  -0.94857  -0.84429  -0.83951
  Beta  occ. eigenvalues --   -0.79120  -0.75310  -0.69986  -0.67985  -0.67067
  Beta  occ. eigenvalues --   -0.61643  -0.57971  -0.54657  -0.53509  -0.52002
  Beta  occ. eigenvalues --   -0.51474  -0.48479  -0.47849  -0.43762  -0.42820
  Beta  occ. eigenvalues --   -0.41315  -0.40217  -0.39159  -0.38334  -0.36867
  Beta  occ. eigenvalues --   -0.35847  -0.35684  -0.33886  -0.33489  -0.32787
  Beta  occ. eigenvalues --   -0.32284  -0.31462  -0.31158  -0.29823  -0.28842
  Beta  occ. eigenvalues --   -0.28137  -0.28092  -0.26149  -0.25103  -0.24737
  Beta  occ. eigenvalues --   -0.24137  -0.23144  -0.22691  -0.21953  -0.21559
  Beta  occ. eigenvalues --   -0.20464  -0.17324  -0.16510  -0.14910  -0.10571
  Beta virt. eigenvalues --    0.06023   0.06787   0.07193   0.07841   0.08160
  Beta virt. eigenvalues --    0.08282   0.08931   0.09084   0.09754   0.10067
  Beta virt. eigenvalues --    0.10473   0.10892   0.11318   0.11576   0.12408

 Mulliken charges and spin densities:
               1          2
     1  C   -0.354477   0.148649
     2  C   -0.151586  -0.582201
     3  C   -0.481171   0.937824
     4  C    0.206063  -1.317219
     5  C   -0.046191   0.344115
     6  C    0.001349  -1.075728
     7  C   -0.130587   0.527003
     8  C   -0.063086  -0.516125
     9  N    0.029077   0.059383
    10  C    0.154157  -0.268297
    11  C    0.013344  -0.063828
    12  O   -0.278846   0.007689
    13  N   -0.042032  -0.085988
    14  C   -1.658309   1.528659
    15  C    0.233813  -0.416027
    16  C    2.009918  -2.556127
    17  N   -0.246709  -0.139587
    18  H    0.298769  -0.075500
    19  H   -0.030695   0.211222
    20  H    0.121276   0.067599
    21  H    0.096665   0.045247
    22  H    0.246923   0.000753
    23  H   -0.156790   0.326509
    24  H    0.044317   0.093396
    25  H   -0.170475   0.394799
    26  H    0.042995   0.132968
    27  H   -0.072321   0.215314
    28  H    0.067786   0.127700
    29  H    0.269936  -0.105919
    30  H   -0.293650   0.433274
    31  H   -0.078170   0.264518
    32  H   -0.045513   0.218863
    33  H    0.161398   0.137780
    34  H   -0.522587   0.769209
    35  H   -0.570980   0.755834
    36  H    0.815766  -0.710236
    37  H   -0.065913   0.196891
    38  H   -0.531378   0.716182
    39  H    0.033200   0.194162
    40  H    0.144715   0.057240
 Sum of Mulliken charges =  -1.00000   1.00000

 Dipole moment (field-independent basis, Debye):
    X=              3.9114    Y=              2.7361    Z=              2.9807  Tot=              5.6276
 Quadrupole moment (field-independent basis, Debye-Ang):
   XX=           -204.2617   YY=           -153.6526   ZZ=           -141.9913
   XY=             -9.8208   XZ=             -9.4244   YZ=             -5.4700

 Summary of Natural Population Analysis:

                                       Natural Population
                Natural  -----------------------------------------------
    Atom  No    Charge         Core      Valence    Rydberg      Total
 -----------------------------------------------------------------------
      C    1   -0.19449      0.99962     2.18734    0.00752     3.19449
      C    2   -0.20143      0.99961     2.19396    0.00786     3.20143
      C    3   -0.00618      0.99958     1.99358    0.01302     3.00618
      C    4   -0.19484      0.99959     2.18521    0.01005     3.19484
      C    5   -0.01522      0.99959     2.00262    0.01301     3.01522
      C    6   -0.19003      0.99959     2.18028    0.01016     3.19003
      C    7   -0.00387      0.99958     1.99100    0.01328     3.00387
      C    8   -0.20301      0.99961     2.19573    0.00767     3.20301
      N    9   -0.28633      0.99969     2.77197    0.01468     3.78633
      C   10   -0.11733      0.99955     2.10658    0.01120     3.11733
      C   11    0.33877      0.99967     1.63818    0.02337     2.66123
      O   12   -0.32762      0.99988     3.32192    0.00582     4.32762
      N   13   -0.31973      0.99965     2.80950    0.01057     3.81973
      C   14   -0.02790      0.99957     2.01495    0.01339     3.02790
      C   15   -0.19875      0.99961     2.18896    0.01019     3.19875
      C   16   -0.19335      0.99962     2.18406    0.00967     3.19335
      N   17   -0.42360      0.99977     2.91348    0.01036     3.92360
      H   18    0.10114      0.00000     0.39718    0.00167     0.39886
      H   19    0.09761      0.00000     0.40157    0.00082     0.40239
      H   20    0.10955      0.00000     0.38953    0.00092     0.39045
      H   21    0.08893      0.00000     0.40975    0.00132     0.41107
      H   22    0.10554      0.00000     0.39321    0.00125     0.39446
      H   23    0.09562      0.00000     0.40328    0.00110     0.40438
      H   24    0.10194      0.00000     0.39685    0.00120     0.39806
      H   25    0.09198      0.00000     0.40626    0.00176     0.40802
      H   26    0.10224      0.00000     0.39663    0.00113     0.39776
      H   27    0.10254      0.00000     0.39615    0.00131     0.39746
      H   28    0.10038      0.00000     0.39794    0.00168     0.39962
      H   29    0.09666      0.00000     0.40196    0.00138     0.40334
      H   30    0.09830      0.00000     0.40057    0.00112     0.40170
      H   31    0.10174      0.00000     0.39712    0.00115     0.39826
      H   32    0.10505      0.00000     0.39314    0.00181     0.39495
      H   33    0.19272      0.00000     0.30477    0.00251     0.30728
      H   34    0.10213      0.00000     0.39481    0.00306     0.39787
      H   35    0.10923      0.00000     0.38824    0.00253     0.39077
      H   36    0.10474      0.00000     0.39339    0.00187     0.39526
      H   37    0.10259      0.00000     0.39631    0.00110     0.39741
      H   38    0.11051      0.00000     0.38650    0.00299     0.38949
      H   39    0.17257      0.00000     0.32574    0.00169     0.32743
      H   40    0.17120      0.00000     0.32667    0.00213     0.32880
 =======================================================================
   * Total *   -0.00000     16.99376    47.77691    0.22933    65.00000

 Normal termination of Gaussian 16 at Fri Dec 11 15:18:49 2020.
