 Gaussian 16, Revision A.03,

 -----------------------------------------------------------
 # opt freq B3LYP/6-31G(d) empiricaldispersion=gd3bj scf=xqc
 -----------------------------------------------------------

 -------------------------------
 CID_115217619_JID_7794_neutraal
 -------------------------------
 Symbolic Z-matrix:
 Charge =  0 Multiplicity = 1

 SCF Done:  E(RB3LYP) =  -782.284095171     A.U. after   15 cycles
 SCF Done:  E(RB3LYP) =  -782.289451646     A.U. after   12 cycles
 SCF Done:  E(RB3LYP) =  -782.290211896     A.U. after   11 cycles
 SCF Done:  E(RB3LYP) =  -782.290606574     A.U. after   12 cycles
 SCF Done:  E(RB3LYP) =  -782.290760571     A.U. after   11 cycles
 SCF Done:  E(RB3LYP) =  -782.290868994     A.U. after   12 cycles
 SCF Done:  E(RB3LYP) =  -782.290888770     A.U. after   11 cycles
 SCF Done:  E(RB3LYP) =  -782.290905959     A.U. after   10 cycles
 SCF Done:  E(RB3LYP) =  -782.290911992     A.U. after    9 cycles
 SCF Done:  E(RB3LYP) =  -782.290914119     A.U. after    9 cycles
 SCF Done:  E(RB3LYP) =  -782.290914218     A.U. after    7 cycles
 SCF Done:  E(RB3LYP) =  -782.290914301     A.U. after    7 cycles
 SCF Done:  E(RB3LYP) =  -782.290914425     A.U. after    7 cycles
 Optimization completed.
    -- Stationary point found.
 Normal termination of Gaussian 16 at Fri Dec 11 13:08:21 2020.

 --------------------------------------------------------------------
 #N Geom=AllCheck Guess=TCheck SCRF=Check GenChk RB3LYP/6-31G(d) Freq
 --------------------------------------------------------------------

 Structure from the checkpoint file:  "JID_7794.chk"
 -------------------------------
 CID_115217619_JID_7794_neutraal
 -------------------------------
 Charge =  0 Multiplicity = 1

 SCF Done:  E(RB3LYP) =  -782.290914425     A.U. after    1 cycles

  Exact polarizability: 213.359  16.502 139.446 -20.752  13.997 103.031
 Approx polarizability: 287.853  32.682 233.535 -37.282  29.338 157.214

                      1                      2                      3
                      A                      A                      A
 Frequencies --     21.8107                22.8735                44.8486
 Red. masses --      5.8507                 4.6371                 3.6613
 Frc consts  --      0.0016                 0.0014                 0.0043
 IR Inten    --      0.2989                 0.3664                 0.3960

                      4                      5                      6
                      A                      A                      A
 Frequencies --     65.8464                74.5799               112.9338
 Red. masses --      4.1512                 4.4790                 4.9454
 Frc consts  --      0.0106                 0.0147                 0.0372
 IR Inten    --      0.8259                 1.3664                 3.4279

                      7                      8                      9
                      A                      A                      A
 Frequencies --    126.1947               195.0791               201.1296
 Red. masses --      5.1098                 2.4564                 3.7180
 Frc consts  --      0.0479                 0.0551                 0.0886
 IR Inten    --      1.0944                 8.9690                 1.0946

                     10                     11                     12
                      A                      A                      A
 Frequencies --    245.6168               259.7200               286.1442
 Red. masses --      2.4888                 5.0288                 5.9324
 Frc consts  --      0.0885                 0.1999                 0.2862
 IR Inten    --     17.9244                 1.4263                 2.5541

                     13                     14                     15
                      A                      A                      A
 Frequencies --    296.6031               325.2758               362.7450
 Red. masses --      1.5547                 1.6034                 3.3108
 Frc consts  --      0.0806                 0.1000                 0.2567
 IR Inten    --     35.0980                65.6981                19.7422

                     16                     17                     18
                      A                      A                      A
 Frequencies --    376.6250               392.3718               409.4863
 Red. masses --      2.1372                 1.3072                 3.1800
 Frc consts  --      0.1786                 0.1186                 0.3142
 IR Inten    --      2.5733                 1.5743                 8.6061

                     19                     20                     21
                      A                      A                      A
 Frequencies --    431.4514               463.5835               498.0875
 Red. masses --      2.7432                 2.2257                 1.2263
 Frc consts  --      0.3009                 0.2818                 0.1793
 IR Inten    --     13.5433                 4.2099               201.1387

                     22                     23                     24
                      A                      A                      A
 Frequencies --    514.9653               559.2257               573.6297
 Red. masses --      4.2987                 4.0235                 3.0526
 Frc consts  --      0.6716                 0.7414                 0.5918
 IR Inten    --      6.7510                12.3711                 2.5579

                     25                     26                     27
                      A                      A                      A
 Frequencies --    609.4948               644.5503               717.8270
 Red. masses --      4.1252                 4.3578                 6.6112
 Frc consts  --      0.9029                 1.0667                 2.0071
 IR Inten    --      3.7541                 1.4604                32.3745

                     28                     29                     30
                      A                      A                      A
 Frequencies --    725.3131               742.4344               744.4329
 Red. masses --      1.2788                 9.1442                 4.5177
 Frc consts  --      0.3964                 2.9697                 1.4751
 IR Inten    --     32.2438                 7.0649                 3.1816

                     31                     32                     33
                      A                      A                      A
 Frequencies --    771.9665               798.7530               822.1166
 Red. masses --      1.7473                 2.2330                 1.9624
 Frc consts  --      0.6135                 0.8394                 0.7815
 IR Inten    --     30.8590                18.2526                13.6806

                     34                     35                     36
                      A                      A                      A
 Frequencies --    828.0800               875.7710               888.2904
 Red. masses --      2.1649                 3.0995                 1.7332
 Frc consts  --      0.8746                 1.4006                 0.8058
 IR Inten    --     51.2283                 1.1311                 8.4094

                     37                     38                     39
                      A                      A                      A
 Frequencies --    897.9052               918.5366               930.9952
 Red. masses --      1.5615                 1.2899                 1.9958
 Frc consts  --      0.7417                 0.6412                 1.0192
 IR Inten    --      6.3845                 1.1596                17.1832

                     40                     41                     42
                      A                      A                      A
 Frequencies --    974.0602               998.3943              1000.9851
 Red. masses --      3.0140                 3.1137                 2.2116
 Frc consts  --      1.6849                 1.8287                 1.3056
 IR Inten    --      2.3848                42.9144                 3.6795

                     43                     44                     45
                      A                      A                      A
 Frequencies --   1007.8848              1040.6132              1091.6290
 Red. masses --      1.8990                 1.4992                 3.0435
 Frc consts  --      1.1366                 0.9565                 2.1368
 IR Inten    --     20.4304                13.7094               117.1956

                     46                     47                     48
                      A                      A                      A
 Frequencies --   1108.0461              1119.4675              1149.9293
 Red. masses --      2.5234                 1.6722                 2.0453
 Frc consts  --      1.8254                 1.2347                 1.5935
 IR Inten    --      1.9359                12.4659                 3.5303

                     49                     50                     51
                      A                      A                      A
 Frequencies --   1157.1079              1172.3711              1197.9145
 Red. masses --      2.6773                 1.9315                 1.2040
 Frc consts  --      2.1120                 1.5641                 1.0180
 IR Inten    --     15.6877                12.8357                10.0077

                     52                     53                     54
                      A                      A                      A
 Frequencies --   1212.1673              1227.4346              1252.1974
 Red. masses --      1.9373                 1.4204                 1.2583
 Frc consts  --      1.6771                 1.2608                 1.1625
 IR Inten    --     44.9594                14.5391                14.4989

                     55                     56                     57
                      A                      A                      A
 Frequencies --   1268.4535              1291.3849              1311.0541
 Red. masses --      1.3931                 1.9373                 1.4023
 Frc consts  --      1.3206                 1.9035                 1.4202
 IR Inten    --     19.5152                 8.5174                11.1890

                     58                     59                     60
                      A                      A                      A
 Frequencies --   1331.4493              1344.9108              1349.9945
 Red. masses --      1.3762                 4.2948                 2.6823
 Frc consts  --      1.4374                 4.5769                 2.8802
 IR Inten    --     29.8138                52.7303                79.4355

                     61                     62                     63
                      A                      A                      A
 Frequencies --   1366.0446              1387.7743              1396.3558
 Red. masses --      1.7080                 1.3433                 1.5009
 Frc consts  --      1.8778                 1.5243                 1.7242
 IR Inten    --      5.5912                 8.9187                 3.5344

                     64                     65                     66
                      A                      A                      A
 Frequencies --   1409.6256              1416.9924              1424.6558
 Red. masses --      1.1833                 1.3797                 1.4044
 Frc consts  --      1.3854                 1.6322                 1.6794
 IR Inten    --     34.9310                10.5410                12.0323

                     67                     68                     69
                      A                      A                      A
 Frequencies --   1441.9986              1465.4363              1504.8762
 Red. masses --      1.2897                 2.9183                 1.1064
 Frc consts  --      1.5800                 3.6924                 1.4762
 IR Inten    --     38.9185                29.1430                24.1861

                     70                     71                     72
                      A                      A                      A
 Frequencies --   1509.6496              1512.6261              1517.9970
 Red. masses --      1.2041                 1.2609                 2.5946
 Frc consts  --      1.6169                 1.6997                 3.5226
 IR Inten    --     33.4089                36.1400                49.4769

                     73                     74                     75
                      A                      A                      A
 Frequencies --   1530.3077              1537.6113              1540.1511
 Red. masses --      1.1245                 1.4496                 1.0865
 Frc consts  --      1.5516                 2.0192                 1.5185
 IR Inten    --      6.3409                39.1722                 1.5140

                     76                     77                     78
                      A                      A                      A
 Frequencies --   1548.3225              1668.0996              1691.7464
 Red. masses --      1.8139                 6.6553                 7.2207
 Frc consts  --      2.5621                10.9109                12.1758
 IR Inten    --     20.4937                12.3782                 8.3016

                     79                     80                     81
                      A                      A                      A
 Frequencies --   1865.3108              2964.0281              2991.7298
 Red. masses --      9.6261                 1.0704                 1.0725
 Frc consts  --     19.7334                 5.5405                 5.6560
 IR Inten    --    958.3168                49.1285                65.3472

                     82                     83                     84
                      A                      A                      A
 Frequencies --   3022.2340              3031.1004              3036.5692
 Red. masses --      1.0888                 1.0653                 1.0633
 Frc consts  --      5.8596                 5.7668                 5.7764
 IR Inten    --     29.9112                25.2569                18.1845

                     85                     86                     87
                      A                      A                      A
 Frequencies --   3041.9031              3067.2904              3085.3615
 Red. masses --      1.0633                 1.1019                 1.0965
 Frc consts  --      5.7968                 6.1080                 6.1501
 IR Inten    --     54.3788                23.7300                67.2512

                     88                     89                     90
                      A                      A                      A
 Frequencies --   3085.9977              3104.4150              3187.2684
 Red. masses --      1.0999                 1.0930                 1.0879
 Frc consts  --      6.1717                 6.2065                 6.5112
 IR Inten    --     59.9990                44.2897                11.1129

                     91                     92                     93
                      A                      A                      A
 Frequencies --   3208.9489              3220.9874              3495.3509
 Red. masses --      1.0939                 1.0909                 1.0738
 Frc consts  --      6.6368                 6.6686                 7.7294
 IR Inten    --     15.4316                 1.7181                 0.5895

                     94                     95                     96
                      A                      A                      A
 Frequencies --   3680.4423              3680.8192              3754.3158
 Red. masses --      1.0791                 1.0811                 1.0660
 Frc consts  --      8.6120                 8.6296                 8.8528
 IR Inten    --    112.7312                26.6467                 7.2289

 - Thermochemistry -
 -------------------
 Temperature   298.150 Kelvin.  Pressure   1.00000 Atm.
 Atom     1 has atomic number  6 and mass  12.00000

 Molecular mass:   235.13208 amu.
 Principal axes and moments of inertia in atomic units:
                           1         2         3
     Eigenvalues --  1469.59040********************
           X            1.00000  -0.00285  -0.00126
           Y            0.00290   0.99918   0.04042
           Z            0.00115  -0.04043   0.99918
 This molecule is an asymmetric top.
 Rotational symmetry number  1.
 Warning -- assumption of classical behavior for rotation
           may cause significant error
 Rotational temperatures (Kelvin)      0.05894     0.00741     0.00717
 Rotational constants (GHZ):           1.22806     0.15450     0.14938
 Zero-point vibrational energy     758307.3 (Joules/Mol)
                                  181.23980 (Kcal/Mol)
 Warning -- explicit consideration of  25 degrees of freedom as
           vibrations may cause significant error
 Vibrational temperatures:     31.38    32.91    64.53    94.74   107.30
          (Kelvin)            162.49   181.57   280.68   289.38   353.39
                              373.68   411.70   426.75   468.00   521.91
                              541.88   564.54   589.16   620.76   666.99
                              716.64   740.92   804.60   825.33   876.93
                              927.36  1032.79  1043.56  1068.20  1071.07
                             1110.69  1149.23  1182.84  1191.42  1260.04
                             1278.05  1291.89  1321.57  1339.49  1401.46
                             1436.47  1440.19  1450.12  1497.21  1570.61
                             1594.23  1610.66  1654.49  1664.82  1686.78
                             1723.53  1744.04  1766.00  1801.63  1825.02
                             1858.01  1886.31  1915.66  1935.03  1942.34
                             1965.43  1996.70  2009.04  2028.14  2038.74
                             2049.76  2074.71  2108.44  2165.18  2172.05
                             2176.33  2184.06  2201.77  2212.28  2215.93
                             2227.69  2400.02  2434.05  2683.77  4264.58
                             4304.43  4348.32  4361.08  4368.95  4376.62
                             4413.15  4439.15  4440.06  4466.56  4585.77
                             4616.96  4634.28  5029.03  5295.34  5295.88
                             5401.62

 Zero-point correction=                           0.288824 (Hartree/Particle)
 Thermal correction to Energy=                    0.305052
 Thermal correction to Enthalpy=                  0.305996
 Thermal correction to Gibbs Free Energy=         0.242793
 Sum of electronic and zero-point Energies=           -782.002090
 Sum of electronic and thermal Energies=              -781.985863
 Sum of electronic and thermal Enthalpies=            -781.984918
 Sum of electronic and thermal Free Energies=         -782.048122

                     E (Thermal)             CV                S
                      KCal/Mol        Cal/Mol-Kelvin    Cal/Mol-Kelvin
 Total                  191.423             61.878            133.022
 Electronic               0.000              0.000              0.000
 Translational            0.889              2.981             42.267
 Rotational               0.889              2.981             33.694
 Vibrational            189.645             55.917             57.062
 Vibration     1          0.593              1.985              6.462
 Vibration     2          0.593              1.985              6.368
 Vibration     3          0.595              1.979              5.033
 Vibration     4          0.597              1.971              4.274
 Vibration     5          0.599              1.966              4.029
 Vibration     6          0.607              1.939              3.218
 Vibration     7          0.611              1.927              3.003
 Vibration     8          0.636              1.847              2.179
 Vibration     9          0.638              1.838              2.123
 Vibration    10          0.660              1.770              1.762
 Vibration    11          0.668              1.746              1.664
 Vibration    12          0.684              1.699              1.497
 Vibration    13          0.690              1.680              1.436
 Vibration    14          0.709              1.625              1.283
 Vibration    15          0.737              1.549              1.110
 Vibration    16          0.747              1.520              1.053
 Vibration    17          0.760              1.486              0.991
 Vibration    18          0.774              1.450              0.928
 Vibration    19          0.792              1.402              0.854
 Vibration    20          0.821              1.331              0.756
 Vibration    21          0.854              1.254              0.663
 Vibration    22          0.870              1.217              0.622
 Vibration    23          0.915              1.120              0.525
 Vibration    24          0.930              1.088              0.497
 Vibration    25          0.968              1.012              0.434

                           ! Non-Optimized Parameters !
 Normal termination of Gaussian 16 at Fri Dec 11 13:18:36 2020.

 ----------------------------------------------------------------------
 # B3LYP/6-311++G(d,p) empiricaldispersion=gd3bj scf=xqc pop=npa geom=c
 heck
 ----------------------------------------------------------------------

 ---------------------------------------
 CID_115217619_JID_7794_Energie_neutraal
 ---------------------------------------
 Structure from the checkpoint file:  "JID_7794.chk"
 Charge =  0 Multiplicity = 1

 SCF Done:  E(RB3LYP) =  -782.526366668     A.U. after   15 cycles
 Normal termination of Gaussian 16 at Fri Dec 11 13:23:19 2020.

 ----------------------------------------------------------------------
 # B3LYP/6-311++G(d,p) empiricaldispersion=gd3bj scf=xqc pop=npa geom=c
 heck
 ----------------------------------------------------------------------

 -------------------------------------
 CID_115217619_JID_7794_Energie_kation
 -------------------------------------
 Structure from the checkpoint file:  "JID_7794.chk"
 Charge =  1 Multiplicity = 2

 SCF Done:  E(UB3LYP) =  -782.243126463     A.U. after   25 cycles
 Normal termination of Gaussian 16 at Fri Dec 11 13:33:59 2020.
 Gaussian 16:  ES64L-G16RevA.03 25-Dec-2016

 ----------------------------------------------------------------------
 # B3LYP/6-311++G(d,p) empiricaldispersion=gd3bj scf=xqc pop=npa geom=c
 heck
 ----------------------------------------------------------------------

 ------------------------------------
 CID_115217619_JID_7794_Energie_anion
 ------------------------------------
 Structure from the checkpoint file:  "JID_7794.chk"
 Charge = -1 Multiplicity = 2

                         Standard orientation:
 ---------------------------------------------------------------------
 Center     Atomic      Atomic             Coordinates (Angstroms)
 Number     Number       Type             X           Y           Z
 ---------------------------------------------------------------------
      1          6           0       -0.958714    1.888021    0.115861
      2          6           0       -2.285760    1.904076    0.565223
      3          6           0       -3.047011    0.763587    0.362404
      4          6           0       -2.495451   -0.370355   -0.274944
      5          6           0       -1.184791   -0.381561   -0.721758
      6          6           0       -0.407252    0.772351   -0.524360
      7          6           0        1.020481    0.804871   -1.024873
      8          7           0        1.705043   -0.456974   -0.751469
      9          6           0        3.067076   -0.542068   -1.272526
     10          6           0        4.071298    0.516674   -0.773695
     11          6           0        4.198717    0.604968    0.753889
     12          6           0        4.654212   -0.694914    1.422880
     13          8           0        5.924896   -1.143528    0.964778
     14          7           0       -3.503085   -1.328827   -0.312061
     15          6           0       -4.680512   -0.859207    0.272882
     16          8           0       -5.739893   -1.443717    0.399329
     17          7           0       -4.361410    0.438282    0.680057
     18          1           0       -0.340087    2.768022    0.269428
     19          1           0       -2.697761    2.776897    1.062133
     20          1           0       -0.744434   -1.251123   -1.197594
     21          1           0        1.035000    0.942712   -2.116515
     22          1           0        1.524222    1.690603   -0.599859
     23          1           0        1.697789   -0.629874    0.252018
     24          1           0        3.436508   -1.549102   -1.038859
     25          1           0        3.006899   -0.485450   -2.367358
     26          1           0        5.055683    0.297590   -1.210508
     27          1           0        3.791403    1.502496   -1.163799
     28          1           0        4.915177    1.395381    1.006949
     29          1           0        3.235183    0.901560    1.192226
     30          1           0        4.771322   -0.534649    2.499114
     31          1           0        3.892742   -1.482218    1.297730
     32          1           0        5.823562   -1.420426    0.041801
     33          1           0       -3.442883   -2.255531   -0.703526
     34          1           0       -5.037951    1.025052    1.142165
 ---------------------------------------------------------------------

 SCF Done:  E(UB3LYP) =  -782.518571317     A.U. after   33 cycles
 SCF Done:  E(UB3LYP) =  -782.518571317     a.u. after    1 cycles

 The electronic state is 2-A.
 Alpha  occ. eigenvalues --  -19.03664 -19.00936 -14.27642 -14.27358 -14.21155
 Alpha  occ. eigenvalues --  -10.22154 -10.13508 -10.13387 -10.13109 -10.10944
 Alpha  occ. eigenvalues --  -10.10430 -10.09317 -10.09295 -10.08879 -10.08590
 Alpha  occ. eigenvalues --  -10.08292 -10.07954  -0.98189  -0.93756  -0.90946
 Alpha  occ. eigenvalues --   -0.82653  -0.82387  -0.76564  -0.70321  -0.67329
 Alpha  occ. eigenvalues --   -0.66244  -0.62558  -0.59089  -0.57653  -0.54734
 Alpha  occ. eigenvalues --   -0.53677  -0.51477  -0.48394  -0.46136  -0.43969
 Alpha  occ. eigenvalues --   -0.42899  -0.42199  -0.40547  -0.38986  -0.38703
 Alpha  occ. eigenvalues --   -0.37076  -0.36654  -0.35781  -0.35352  -0.34724
 Alpha  occ. eigenvalues --   -0.33648  -0.32800  -0.32031  -0.30406  -0.28769
 Alpha  occ. eigenvalues --   -0.28113  -0.27459  -0.26833  -0.25732  -0.25455
 Alpha  occ. eigenvalues --   -0.25125  -0.23807  -0.22184  -0.19828  -0.19276
 Alpha  occ. eigenvalues --   -0.15676  -0.14039  -0.12718   0.03633
 Alpha virt. eigenvalues --    0.05000   0.06158   0.06337   0.06726   0.07043
 Alpha virt. eigenvalues --    0.07902   0.08259   0.08961   0.09601   0.10058
 Alpha virt. eigenvalues --    0.10212   0.10530   0.11029   0.11980   0.12114

  Beta  occ. eigenvalues --  -19.03631 -19.00931 -14.27626 -14.27329 -14.21149
  Beta  occ. eigenvalues --  -10.22149 -10.13505 -10.13383 -10.13094 -10.10928
  Beta  occ. eigenvalues --  -10.10401 -10.09315 -10.09266 -10.08857 -10.08583
  Beta  occ. eigenvalues --  -10.08283 -10.07932  -0.98173  -0.93683  -0.90931
  Beta  occ. eigenvalues --   -0.82613  -0.82367  -0.76538  -0.70281  -0.67291
  Beta  occ. eigenvalues --   -0.66208  -0.62505  -0.59038  -0.57602  -0.54677
  Beta  occ. eigenvalues --   -0.53646  -0.51435  -0.48332  -0.46086  -0.43932
  Beta  occ. eigenvalues --   -0.42850  -0.42159  -0.40512  -0.38949  -0.38672
  Beta  occ. eigenvalues --   -0.37027  -0.36622  -0.35734  -0.35324  -0.34684
  Beta  occ. eigenvalues --   -0.33616  -0.32751  -0.32005  -0.30375  -0.28738
  Beta  occ. eigenvalues --   -0.28082  -0.27423  -0.26795  -0.25696  -0.25416
  Beta  occ. eigenvalues --   -0.25096  -0.23779  -0.22155  -0.19817  -0.19236
  Beta  occ. eigenvalues --   -0.15615  -0.14015  -0.12686
  Beta virt. eigenvalues --    0.05718   0.06329   0.06628   0.06669   0.07108
  Beta virt. eigenvalues --    0.07464   0.08221   0.08540   0.09250   0.09951
  Beta virt. eigenvalues --    0.10086   0.10465   0.10832   0.11127   0.12200

 Mulliken charges and spin densities:
               1          2
     1  C   -1.237641   0.617221
     2  C   -0.743662   0.260679
     3  C    1.489181  -1.244524
     4  C    0.312507  -0.016976
     5  C   -0.493609   0.166134
     6  C    1.702856  -0.642260
     7  C    0.141693  -1.396423
     8  N   -0.010831   0.034911
     9  C    0.155273  -0.443855
    10  C    0.070509  -0.395365
    11  C   -0.240668   0.068436
    12  C    0.485454  -0.939805
    13  O   -0.264748   0.025791
    14  N   -0.288077  -0.064355
    15  C    0.315258   0.080956
    16  O   -0.416578   0.004788
    17  N   -0.263491  -0.056841
    18  H   -0.341594   0.481541
    19  H   -0.906889   1.085006
    20  H   -0.297481   0.511780
    21  H   -0.027357   0.185985
    22  H    0.292587  -0.129194
    23  H    0.271291  -0.104093
    24  H   -0.277120   0.445130
    25  H   -0.270927   0.429491
    26  H   -0.185233   0.349888
    27  H   -0.161466   0.308145
    28  H   -0.059938   0.232108
    29  H    0.072833   0.071175
    30  H    0.112948   0.051718
    31  H   -0.099559   0.262842
    32  H    0.010036   0.242975
    33  H    0.210615   0.117239
    34  H   -0.056172   0.399751
 Sum of Mulliken charges =  -1.00000   1.00000

 Dipole moment (field-independent basis, Debye):
    X=             -0.0262    Y=             -0.5826    Z=             -0.0918  Tot=              0.5904
 Quadrupole moment (field-independent basis, Debye-Ang):
   XX=           -245.0468   YY=           -144.6686   ZZ=           -133.9309
   XY=             10.6623   XZ=              9.9007   YZ=             -3.1013

 Summary of Natural Population Analysis:

                                       Natural Population
                Natural  -----------------------------------------------
    Atom  No    Charge         Core      Valence    Rydberg      Total
 -----------------------------------------------------------------------
      C    1   -0.10327      0.99953     2.09363    0.01011     3.10327
      C    2   -0.11066      0.99953     2.10134    0.00979     3.11066
      C    3    0.06863      0.99946     1.92070    0.01121     2.93137
      C    4    0.07264      0.99946     1.91771    0.01019     2.92736
      C    5   -0.11122      0.99947     2.10355    0.00820     3.11122
      C    6   -0.02434      0.99952     2.01474    0.01008     3.02434
      C    7   -0.09116      0.99958     2.08156    0.01002     3.09116
      N    8   -0.33946      0.99975     2.82798    0.01172     3.83946
      C    9   -0.08867      0.99962     2.07590    0.01315     3.08867
      C   10   -0.20632      0.99962     2.19724    0.00946     3.20632
      C   11   -0.20691      0.99962     2.19938    0.00791     3.20691
      C   12   -0.01027      0.99960     1.99859    0.01208     3.01027
      O   13   -0.36956      0.99990     3.36281    0.00686     4.36956
      N   14   -0.30453      0.99964     2.79742    0.00747     3.80453
      C   15    0.39666      0.99972     1.58015    0.02347     2.60334
      O   16   -0.32940      0.99987     3.32380    0.00573     4.32940
      N   17   -0.30280      0.99964     2.79503    0.00812     3.80280
      H   18    0.10211      0.00000     0.39670    0.00119     0.39789
      H   19    0.10761      0.00000     0.39010    0.00229     0.39239
      H   20    0.11357      0.00000     0.38498    0.00145     0.38643
      H   21    0.09686      0.00000     0.40185    0.00128     0.40314
      H   22    0.08279      0.00000     0.41456    0.00265     0.41721
      H   23    0.17034      0.00000     0.32640    0.00326     0.32966
      H   24    0.09212      0.00000     0.40646    0.00142     0.40788
      H   25    0.09492      0.00000     0.40365    0.00143     0.40508
      H   26    0.09920      0.00000     0.39918    0.00162     0.40080
      H   27    0.09972      0.00000     0.39902    0.00126     0.40028
      H   28    0.10051      0.00000     0.39834    0.00115     0.39949
      H   29    0.09751      0.00000     0.40103    0.00147     0.40249
      H   30    0.08544      0.00000     0.41330    0.00125     0.41456
      H   31    0.07408      0.00000     0.42444    0.00148     0.42592
      H   32    0.22943      0.00000     0.26675    0.00383     0.27057
      H   33    0.20559      0.00000     0.29232    0.00209     0.29441
      H   34    0.20883      0.00000     0.28715    0.00401     0.29117
 =======================================================================
   * Total *    0.00000     16.99356    45.79776    0.20869    63.00000

 Normal termination of Gaussian 16 at Fri Dec 11 13:48:24 2020.
