 Gaussian 16, Revision A.03,

 -----------------------------------------------------------
 # opt freq B3LYP/6-31G(d) empiricaldispersion=gd3bj scf=xqc
 -----------------------------------------------------------

 -----------------------------
 CID_5370645_JID_9349_neutraal
 -----------------------------
 Symbolic Z-matrix:
 Charge =  0 Multiplicity = 1

 SCF Done:  E(RB3LYP) =  -1614.52632042     A.U. after   15 cycles
 SCF Done:  E(RB3LYP) =  -1614.53969266     A.U. after   13 cycles
 SCF Done:  E(RB3LYP) =  -1614.54204592     A.U. after   14 cycles
 SCF Done:  E(RB3LYP) =  -1614.54433001     A.U. after   14 cycles
 SCF Done:  E(RB3LYP) =  -1614.54727450     A.U. after   14 cycles
 SCF Done:  E(RB3LYP) =  -1614.54996829     A.U. after   14 cycles
 SCF Done:  E(RB3LYP) =  -1614.55205314     A.U. after   13 cycles
 SCF Done:  E(RB3LYP) =  -1614.55244664     A.U. after   13 cycles
 SCF Done:  E(RB3LYP) =  -1614.55283201     A.U. after   13 cycles
 SCF Done:  E(RB3LYP) =  -1614.55292502     A.U. after   11 cycles
 SCF Done:  E(RB3LYP) =  -1614.55318442     A.U. after    9 cycles
 SCF Done:  E(RB3LYP) =  -1614.55318522     A.U. after    9 cycles
 SCF Done:  E(RB3LYP) =  -1614.55318537     A.U. after    7 cycles
 SCF Done:  E(RB3LYP) =  -1614.55318547     A.U. after    8 cycles
 Optimization completed.
    -- Stationary point found.
 Normal termination of Gaussian 16 at Sat Feb 27 18:39:58 2021.

 --------------------------------------------------------------------
 #N Geom=AllCheck Guess=TCheck SCRF=Check GenChk RB3LYP/6-31G(d) Freq
 --------------------------------------------------------------------

 Structure from the checkpoint file:  "JID_9349.chk"
 -----------------------------
 CID_5370645_JID_9349_neutraal
 -----------------------------
 Charge =  0 Multiplicity = 1

 SCF Done:  E(RB3LYP) =  -1614.55318547     A.U. after    1 cycles

  Exact polarizability: 234.150  23.562 228.574   0.006   1.374 107.399
 Approx polarizability: 373.273  39.875 342.852  -0.087   8.556 171.599

                      1                      2                      3
                      A                      A                      A
 Frequencies --     22.5825                34.1625                43.8737
 Red. masses --      5.6411                 6.9150                 6.7345
 Frc consts  --      0.0017                 0.0048                 0.0076
 IR Inten    --      0.9421                 3.7517                 6.8329

                      4                      5                      6
                      A                      A                      A
 Frequencies --     63.8332                65.7025                94.6903
 Red. masses --      4.8328                 7.0260                 3.4219
 Frc consts  --      0.0116                 0.0179                 0.0181
 IR Inten    --      5.6538                 0.8530                 2.1594

                      7                      8                      9
                      A                      A                      A
 Frequencies --    111.7679               117.0055               145.0205
 Red. masses --      7.0158                 4.8712                 4.6326
 Frc consts  --      0.0516                 0.0393                 0.0574
 IR Inten    --     11.8386                 4.0674                 3.9076

                     10                     11                     12
                      A                      A                      A
 Frequencies --    158.3429               189.9982               220.2926
 Red. masses --      3.5829                 5.8914                 6.6077
 Frc consts  --      0.0529                 0.1253                 0.1889
 IR Inten    --      1.9840                 0.5087                10.3969

                     13                     14                     15
                      A                      A                      A
 Frequencies --    226.9091               269.9252               281.2345
 Red. masses --      8.9316                 1.3956                 3.1560
 Frc consts  --      0.2709                 0.0599                 0.1471
 IR Inten    --      0.2594                24.1753                19.4226

                     16                     17                     18
                      A                      A                      A
 Frequencies --    287.0652               302.6189               318.6475
 Red. masses --      1.5282                 1.8570                 1.7193
 Frc consts  --      0.0742                 0.1002                 0.1029
 IR Inten    --    217.5285               122.3435               128.8807

                     19                     20                     21
                      A                      A                      A
 Frequencies --    324.7895               345.5008               363.4496
 Red. masses --      2.8607                 1.4330                 3.3866
 Frc consts  --      0.1778                 0.1008                 0.2636
 IR Inten    --      9.0681               153.1940                32.5378

                     22                     23                     24
                      A                      A                      A
 Frequencies --    385.7154               426.3446               456.8713
 Red. masses --      3.3051                 3.1212                 4.2512
 Frc consts  --      0.2897                 0.3343                 0.5228
 IR Inten    --     15.4819                 0.8064                 6.3700

                     25                     26                     27
                      A                      A                      A
 Frequencies --    466.0275               492.2283               528.3777
 Red. masses --      3.3894                 4.1055                 3.2316
 Frc consts  --      0.4337                 0.5861                 0.5316
 IR Inten    --      9.3236                12.0772                10.3679

                     28                     29                     30
                      A                      A                      A
 Frequencies --    552.7546               571.1913               591.2952
 Red. masses --      3.3792                 2.0569                 2.1698
 Frc consts  --      0.6083                 0.3954                 0.4470
 IR Inten    --      4.0289                19.9980                 2.7667

                     31                     32                     33
                      A                      A                      A
 Frequencies --    603.3661               612.3557               635.8572
 Red. masses --      1.2446                 2.7768                 5.4570
 Frc consts  --      0.2670                 0.6135                 1.2999
 IR Inten    --     11.7701                11.5252                 8.1856

                     34                     35                     36
                      A                      A                      A
 Frequencies --    672.0164               692.9762               721.5366
 Red. masses --      3.1510                 3.7926                 3.6823
 Frc consts  --      0.8384                 1.0730                 1.1295
 IR Inten    --     11.6337                 3.4943                 0.5441

                     37                     38                     39
                      A                      A                      A
 Frequencies --    768.7301               793.6370               815.5241
 Red. masses --      5.7806                 1.8704                 3.8619
 Frc consts  --      2.0127                 0.6941                 1.5133
 IR Inten    --     21.1536                 7.1799                 5.4849

                     40                     41                     42
                      A                      A                      A
 Frequencies --    864.0961               868.6193               872.9365
 Red. masses --      1.8014                 2.5053                 2.9724
 Frc consts  --      0.7925                 1.1137                 1.3345
 IR Inten    --     23.0789                27.9600                47.0327

                     43                     44                     45
                      A                      A                      A
 Frequencies --    882.6302               913.6091               934.7406
 Red. masses --      3.2928                 2.4979                 2.1099
 Frc consts  --      1.5114                 1.2284                 1.0862
 IR Inten    --     39.1317                31.0746                33.9908

                     46                     47                     48
                      A                      A                      A
 Frequencies --   1000.8896              1020.1852              1031.3694
 Red. masses --      2.3913                 1.8970                 3.0390
 Frc consts  --      1.4114                 1.1633                 1.9046
 IR Inten    --     23.5606                45.3858                 2.9861

                     49                     50                     51
                      A                      A                      A
 Frequencies --   1059.4483              1070.0916              1097.5674
 Red. masses --      3.7065                 2.3529                 2.4065
 Frc consts  --      2.4512                 1.5874                 1.7080
 IR Inten    --     12.8866               111.1667                24.1169

                     52                     53                     54
                      A                      A                      A
 Frequencies --   1118.3444              1132.5703              1138.2882
 Red. masses --      2.9069                 3.8555                 1.3675
 Frc consts  --      2.1421                 2.9138                 1.0440
 IR Inten    --     92.9016               132.5675               101.1806

                     55                     56                     57
                      A                      A                      A
 Frequencies --   1158.1824              1197.5497              1221.0937
 Red. masses --      3.4349                 1.3218                 1.3536
 Frc consts  --      2.7147                 1.1169                 1.1891
 IR Inten    --     78.6261                31.2787                25.5225

                     58                     59                     60
                      A                      A                      A
 Frequencies --   1227.1349              1240.5449              1274.0504
 Red. masses --      1.3507                 1.3613                 2.8781
 Frc consts  --      1.1984                 1.2343                 2.7525
 IR Inten    --     26.4235                21.2444                40.8018

                     61                     62                     63
                      A                      A                      A
 Frequencies --   1301.4091              1315.5817              1329.1213
 Red. masses --      1.4362                 2.2429                 1.5784
 Frc consts  --      1.4332                 2.2871                 1.6428
 IR Inten    --     88.5637               354.6407                44.5301

                     64                     65                     66
                      A                      A                      A
 Frequencies --   1334.2585              1351.7709              1358.5318
 Red. masses --      1.8664                 1.7588                 4.1544
 Frc consts  --      1.9576                 1.8935                 4.5175
 IR Inten    --     31.2211                23.5298                84.2396

                     67                     68                     69
                      A                      A                      A
 Frequencies --   1377.8579              1396.2265              1402.2189
 Red. masses --      1.3971                 2.5728                 1.4479
 Frc consts  --      1.5628                 2.9551                 1.6773
 IR Inten    --     38.2345               139.5644                 4.0788

                     70                     71                     72
                      A                      A                      A
 Frequencies --   1412.1443              1432.0438              1437.8251
 Red. masses --      1.2856                 1.5286                 2.8129
 Frc consts  --      1.5105                 1.8469                 3.4263
 IR Inten    --     27.5014                 8.4215                11.1176

                     73                     74                     75
                      A                      A                      A
 Frequencies --   1449.4322              1451.7684              1485.5825
 Red. masses --      4.8607                 1.5542                 2.6708
 Frc consts  --      6.0165                 1.9300                 3.4729
 IR Inten    --     87.4614                33.6761                11.5682

                     76                     77                     78
                      A                      A                      A
 Frequencies --   1501.8567              1522.9380              1531.4477
 Red. masses --      1.1830                 1.0937                 3.8225
 Frc consts  --      1.5722                 1.4945                 5.2821
 IR Inten    --      3.2564                 2.6246                63.7805

                     79                     80                     81
                      A                      A                      A
 Frequencies --   1585.7641              1653.8531              1663.1097
 Red. masses --      4.8199                 1.2583                 1.2444
 Frc consts  --      7.1411                 2.0279                 2.0279
 IR Inten    --    221.8445               198.2719               173.3544

                     82                     83                     84
                      A                      A                      A
 Frequencies --   2976.6751              2999.5981              3041.6625
 Red. masses --      1.0831                 1.0738                 1.0858
 Frc consts  --      5.6544                 5.6923                 5.9188
 IR Inten    --     58.5841                59.2421                75.4326

                     85                     86                     87
                      A                      A                      A
 Frequencies --   3099.3901              3146.6924              3150.6767
 Red. masses --      1.0653                 1.0896                 1.0908
 Frc consts  --      6.0294                 6.3567                 6.3795
 IR Inten    --      9.7266                 6.5405                18.6768

                     88                     89                     90
                      A                      A                      A
 Frequencies --   3153.2139              3276.8656              3325.8847
 Red. masses --      1.1011                 1.0959                 1.0954
 Frc consts  --      6.4505                 6.9331                 7.1389
 IR Inten    --     14.1673                 2.8272                 8.0081

                     91                     92                     93
                      A                      A                      A
 Frequencies --   3570.8822              3578.7045              3695.6046
 Red. masses --      1.0452                 1.0446                 1.1041
 Frc consts  --      7.8520                 7.8820                 8.8842
 IR Inten    --     46.2472                64.4419                40.8826

                     94                     95                     96
                      A                      A                      A
 Frequencies --   3707.7222              3736.0586              3755.3298
 Red. masses --      1.1055                 1.0661                 1.0665
 Frc consts  --      8.9542                 8.7678                 8.8612
 IR Inten    --     46.4967                11.8283                19.8329

 - Thermochemistry -
 -------------------
 Temperature   298.150 Kelvin.  Pressure   1.00000 Atm.
 Atom     1 has atomic number 16 and mass  31.97207

 Molecular mass:   301.05549 amu.
 Principal axes and moments of inertia in atomic units:
                           1         2         3
     Eigenvalues --  5485.485757338.90838**********
           X            0.99906  -0.04266   0.00829
           Y            0.04267   0.99909  -0.00056
           Z           -0.00826   0.00091   0.99997
 This molecule is an asymmetric top.
 Rotational symmetry number  1.
 Warning -- assumption of classical behavior for rotation
           may cause significant error
 Rotational temperatures (Kelvin)      0.01579     0.01180     0.00756
 Rotational constants (GHZ):           0.32900     0.24591     0.15761
 Zero-point vibrational energy     703451.2 (Joules/Mol)
                                  168.12888 (Kcal/Mol)
 Warning -- explicit consideration of  32 degrees of freedom as
           vibrations may cause significant error
 Vibrational temperatures:     32.49    49.15    63.12    91.84    94.53
          (Kelvin)            136.24   160.81   168.34   208.65   227.82
                              273.37   316.95   326.47   388.36   404.63
                              413.02   435.40   458.46   467.30   497.10
                              522.92   554.96   613.41   657.34   670.51
                              708.21   760.22   795.29   821.82   850.74
                              868.11   881.04   914.86   966.88   997.04
                             1038.13  1106.03  1141.87  1173.36  1243.24
                             1249.75  1255.96  1269.91  1314.48  1344.88
                             1440.06  1467.82  1483.91  1524.31  1539.62
                             1579.15  1609.05  1629.52  1637.74  1666.37
                             1723.01  1756.88  1765.57  1784.87  1833.07
                             1872.44  1892.83  1912.31  1919.70  1944.90
                             1954.62  1982.43  2008.86  2017.48  2031.76
                             2060.39  2068.71  2085.41  2088.77  2137.42
                             2160.84  2191.17  2203.41  2281.56  2379.53
                             2392.84  4282.77  4315.75  4376.27  4459.33
                             4527.39  4533.12  4536.77  4714.68  4785.21
                             5137.70  5148.96  5317.15  5334.59  5375.36
                             5403.08

 Zero-point correction=                           0.267930 (Hartree/Particle)
 Thermal correction to Energy=                    0.287251
 Thermal correction to Enthalpy=                  0.288195
 Thermal correction to Gibbs Free Energy=         0.218581
 Sum of electronic and zero-point Energies=          -1614.285255
 Sum of electronic and thermal Energies=             -1614.265935
 Sum of electronic and thermal Enthalpies=           -1614.264991
 Sum of electronic and thermal Free Energies=        -1614.334605

                     E (Thermal)             CV                S
                      KCal/Mol        Cal/Mol-Kelvin    Cal/Mol-Kelvin
 Total                  180.252             71.981            146.515
 Electronic               0.000              0.000              0.000
 Translational            0.889              2.981             43.003
 Rotational               0.889              2.981             34.488
 Vibrational            178.475             66.019             69.024
 Vibration     1          0.593              1.985              6.393
 Vibration     2          0.594              1.983              5.572
 Vibration     3          0.595              1.980              5.076
 Vibration     4          0.597              1.972              4.335
 Vibration     5          0.597              1.971              4.278
 Vibration     6          0.603              1.953              3.561
 Vibration     7          0.607              1.940              3.238
 Vibration     8          0.608              1.935              3.149
 Vibration     9          0.616              1.908              2.737
 Vibration    10          0.621              1.893              2.569
 Vibration    11          0.633              1.854              2.228
 Vibration    12          0.647              1.810              1.957
 Vibration    13          0.651              1.800              1.903
 Vibration    14          0.674              1.729              1.597
 Vibration    15          0.681              1.708              1.526
 Vibration    16          0.684              1.698              1.491
 Vibration    17          0.694              1.669              1.402
 Vibration    18          0.705              1.638              1.317
 Vibration    19          0.709              1.626              1.286
 Vibration    20          0.724              1.584              1.187
 Vibration    21          0.737              1.548              1.107
 Vibration    22          0.754              1.501              1.017
 Vibration    23          0.788              1.413              0.871
 Vibration    24          0.815              1.346              0.775
 Vibration    25          0.823              1.325              0.749
 Vibration    26          0.848              1.267              0.678
 Vibration    27          0.883              1.187              0.591
 Vibration    28          0.908              1.134              0.538
 Vibration    29          0.927              1.094              0.502
 Vibration    30          0.949              1.050              0.465
 Vibration    31          0.962              1.025              0.444
 Vibration    32          0.972              1.006              0.429

                           ! Non-Optimized Parameters !
 Normal termination of Gaussian 16 at Sat Feb 27 18:56:37 2021.

 ----------------------------------------------------------------------
 # B3LYP/6-311++G(d,p) empiricaldispersion=gd3bj scf=xqc pop=npa geom=c
 heck
 ----------------------------------------------------------------------

 -------------------------------------
 CID_5370645_JID_9349_Energie_neutraal
 -------------------------------------
 Structure from the checkpoint file:  "JID_9349.chk"
 Charge =  0 Multiplicity = 1

 SCF Done:  E(RB3LYP) =  -1614.86163420     A.U. after   17 cycles
 Normal termination of Gaussian 16 at Sat Feb 27 19:04:48 2021.

 ----------------------------------------------------------------------
 # B3LYP/6-311++G(d,p) empiricaldispersion=gd3bj scf=xqc pop=npa geom=c
 heck
 ----------------------------------------------------------------------

 -----------------------------------
 CID_5370645_JID_9349_Energie_kation
 -----------------------------------
 Structure from the checkpoint file:  "JID_9349.chk"
 Charge =  1 Multiplicity = 2

 SCF Done:  E(UB3LYP) =  -1614.58467651     A.U. after   33 cycles
 SCF Done:  E(UB3LYP) =  -1614.58467651     a.u. after    1 cycles
 Normal termination of Gaussian 16 at Sat Feb 27 19:27:30 2021.
 Gaussian 16:  ES64L-G16RevA.03 25-Dec-2016

 ----------------------------------------------------------------------
 # B3LYP/6-311++G(d,p) empiricaldispersion=gd3bj scf=xqc pop=npa geom=c
 heck
 ----------------------------------------------------------------------

 ----------------------------------
 CID_5370645_JID_9349_Energie_anion
 ----------------------------------
 Structure from the checkpoint file:  "JID_9349.chk"
 Charge = -1 Multiplicity = 2

                         Standard orientation:
 ---------------------------------------------------------------------
 Center     Atomic      Atomic             Coordinates (Angstroms)
 Number     Number       Type             X           Y           Z
 ---------------------------------------------------------------------
      1         16           0       -0.100646    3.788278    0.218795
      2         16           0       -4.193637   -2.162665    0.391511
      3          8           0        2.115703   -0.068347   -0.930117
      4          8           0        2.009090   -1.108927    1.847876
      5          8           0        3.901363   -2.214046   -1.643155
      6          7           0       -0.043976    0.490270   -0.222685
      7          7           0       -2.432120    3.189021   -0.851790
      8          7           0       -1.887681   -3.309497   -0.209552
      9          6           0        1.353425    0.954625   -0.317114
     10          6           0        2.000545    1.223620    1.055823
     11          6           0        2.806357   -0.048328    1.325838
     12          6           0        3.225610   -0.434558   -0.095160
     13          6           0        3.571338   -1.902445   -0.301412
     14          6           0       -1.209626    1.265677   -0.270008
     15          6           0       -0.386439   -0.820006   -0.135329
     16          6           0       -1.777675   -0.929203   -0.106140
     17          6           0       -2.285039    0.390058   -0.190738
     18          6           0       -1.273607    2.720365   -0.336737
     19          6           0       -2.566456   -2.156016    0.003834
     20          1           0        1.340973    1.845673   -0.943070
     21          1           0        1.259569    1.454716    1.823379
     22          1           0        2.666263    2.087935    0.975340
     23          1           0        3.679140    0.131905    1.968108
     24          1           0        4.095442    0.183707   -0.377009
     25          1           0        2.709115   -2.520227   -0.046955
     26          1           0        4.383668   -2.165036    0.396358
     27          1           0        0.385352   -1.567077   -0.068032
     28          1           0        1.513650   -0.768807    2.608349
     29          1           0       -3.332925    0.648041   -0.139646
     30          1           0        4.660325   -1.668140   -1.901644
     31          1           0       -3.086844    2.581575   -1.324072
     32          1           0       -2.580675    4.187824   -0.875755
     33          1           0       -0.985146   -3.309742   -0.664905
     34          1           0       -2.412779   -4.172890   -0.201135
 ---------------------------------------------------------------------

 SCF Done:  E(UB3LYP) =  -1614.88051899     A.U. after   33 cycles
 SCF Done:  E(UB3LYP) =  -1614.88051899     a.u. after    1 cycles

 The electronic state is 2-A.
 Alpha  occ. eigenvalues --  -88.66015 -88.64319 -19.05800 -19.05610 -19.04671
 Alpha  occ. eigenvalues --  -14.25004 -14.21940 -14.19640 -10.16566 -10.15729
 Alpha  occ. eigenvalues --  -10.15488 -10.14796 -10.11937 -10.09039 -10.08898
 Alpha  occ. eigenvalues --  -10.08511 -10.07245 -10.04613 -10.01896  -7.74778
 Alpha  occ. eigenvalues --   -7.73106  -5.71136  -5.70675  -5.70317  -5.69471
 Alpha  occ. eigenvalues --   -5.68977  -5.68692  -0.98359  -0.95824  -0.95147
 Alpha  occ. eigenvalues --   -0.87013  -0.82067  -0.79962  -0.70918  -0.70598
 Alpha  occ. eigenvalues --   -0.66011  -0.63238  -0.61366  -0.58420  -0.57737
 Alpha  occ. eigenvalues --   -0.53618  -0.52147  -0.49364  -0.48418  -0.46556
 Alpha  occ. eigenvalues --   -0.44761  -0.43980  -0.43749  -0.42020  -0.41732
 Alpha  occ. eigenvalues --   -0.39930  -0.38679  -0.38197  -0.36458  -0.35716
 Alpha  occ. eigenvalues --   -0.34091  -0.33652  -0.32847  -0.30733  -0.29811
 Alpha  occ. eigenvalues --   -0.29268  -0.28750  -0.28066  -0.27260  -0.26220
 Alpha  occ. eigenvalues --   -0.25599  -0.24135  -0.22999  -0.22786  -0.21777
 Alpha  occ. eigenvalues --   -0.21530  -0.20966  -0.18902  -0.13695  -0.11194
 Alpha  occ. eigenvalues --   -0.09988  -0.08795  -0.08280  -0.07231   0.03399
 Alpha virt. eigenvalues --    0.04656   0.06386   0.06648   0.07575   0.08421
 Alpha virt. eigenvalues --    0.08912   0.09448   0.10702   0.10886   0.11747
 Alpha virt. eigenvalues --    0.12217   0.12410   0.13069   0.13775   0.14560

  Beta  occ. eigenvalues --  -88.66006 -88.64271 -19.05800 -19.05610 -19.04672
  Beta  occ. eigenvalues --  -14.24986 -14.21849 -14.19495 -10.16567 -10.15729
  Beta  occ. eigenvalues --  -10.15488 -10.14796 -10.11631 -10.08897 -10.08558
  Beta  occ. eigenvalues --  -10.08439 -10.07300 -10.04642 -10.01530  -7.74770
  Beta  occ. eigenvalues --   -7.73062  -5.71141  -5.70633  -5.70312  -5.69465
  Beta  occ. eigenvalues --   -5.68804  -5.68665  -0.98360  -0.95824  -0.95148
  Beta  occ. eigenvalues --   -0.86982  -0.81759  -0.79417  -0.70896  -0.70533
  Beta  occ. eigenvalues --   -0.65822  -0.62808  -0.61120  -0.58291  -0.57343
  Beta  occ. eigenvalues --   -0.53581  -0.52106  -0.48980  -0.48113  -0.46515
  Beta  occ. eigenvalues --   -0.44618  -0.43966  -0.43616  -0.41982  -0.41477
  Beta  occ. eigenvalues --   -0.39814  -0.38643  -0.38132  -0.36391  -0.35680
  Beta  occ. eigenvalues --   -0.34016  -0.33614  -0.32726  -0.30453  -0.29722
  Beta  occ. eigenvalues --   -0.29101  -0.28442  -0.27988  -0.26960  -0.26083
  Beta  occ. eigenvalues --   -0.24705  -0.23920  -0.22661  -0.21781  -0.21571
  Beta  occ. eigenvalues --   -0.21113  -0.20778  -0.18852  -0.12889  -0.10225
  Beta  occ. eigenvalues --   -0.09542  -0.08231  -0.07932  -0.07012
  Beta virt. eigenvalues --    0.04632   0.06445   0.07540   0.07815   0.08403
  Beta virt. eigenvalues --    0.08987   0.09303   0.09631   0.10701   0.10872
  Beta virt. eigenvalues --    0.11723   0.12207   0.12369   0.13042   0.13814

 Mulliken charges and spin densities:
               1          2
     1  S   -0.847782   0.180695
     2  S   -0.810140   0.066495
     3  O   -0.056781   0.000635
     4  O   -0.168956   0.001555
     5  O   -0.210777  -0.000048
     6  N    0.444067   0.009760
     7  N   -0.225712   0.091740
     8  N   -0.150819   0.050306
     9  C   -0.040965  -0.029617
    10  C   -0.342744   0.005518
    11  C   -0.363347  -0.017574
    12  C   -0.064707   0.004485
    13  C   -0.446083  -0.006896
    14  C    0.367397  -0.001347
    15  C    0.121040  -0.028125
    16  C    0.375091  -0.026475
    17  C   -0.236847   0.320269
    18  C   -0.846761   0.205551
    19  C   -0.472867   0.136291
    20  H    0.225365   0.010008
    21  H    0.199718   0.014090
    22  H    0.155932  -0.000806
    23  H    0.178457   0.007226
    24  H    0.138048   0.000853
    25  H    0.208549   0.002016
    26  H    0.148032  -0.000381
    27  H    0.184669   0.006725
    28  H    0.243507   0.001514
    29  H    0.136828  -0.027212
    30  H    0.232854   0.000027
    31  H    0.203043   0.028656
    32  H    0.241759  -0.004300
    33  H    0.217281  -0.000387
    34  H    0.263646  -0.001245
 Sum of Mulliken charges =  -1.00000   1.00000

 Dipole moment (field-independent basis, Debye):
    X=             11.2404    Y=             -3.3093    Z=              0.4022  Tot=             11.7243
 Quadrupole moment (field-independent basis, Debye-Ang):
   XX=           -165.6815   YY=           -183.4163   ZZ=           -138.1407
   XY=            -14.0049   XZ=             10.9657   YZ=             -2.0834

 Summary of Natural Population Analysis:

                                       Natural Population
                Natural  -----------------------------------------------
    Atom  No    Charge         Core      Valence    Rydberg      Total
 -----------------------------------------------------------------------
      S    1   -0.16313      4.99960     3.14908    0.01446     8.16313
      S    2   -0.14203      4.99958     3.12810    0.01436     8.14203
      O    3   -0.30197      0.99988     3.29197    0.01013     4.30197
      O    4   -0.37404      0.99989     3.36723    0.00691     4.37404
      O    5   -0.36026      0.99990     3.35399    0.00637     4.36026
      N    6   -0.20280      0.99960     2.69028    0.01292     3.70280
      N    7   -0.36554      0.99968     2.85579    0.01007     3.86554
      N    8   -0.37609      0.99968     2.86631    0.01011     3.87609
      C    9    0.16423      0.99957     1.82038    0.01581     2.83577
      C   10   -0.21819      0.99959     2.21036    0.00823     3.21819
      C   11    0.05162      0.99953     1.93657    0.01229     2.94838
      C   12    0.04969      0.99954     1.93765    0.01312     2.95031
      C   13   -0.01697      0.99956     2.00499    0.01242     3.01697
      C   14    0.03085      0.99946     1.95728    0.01241     2.96915
      C   15   -0.00230      0.99952     1.98989    0.01289     3.00230
      C   16   -0.10311      0.99947     2.09162    0.01202     3.10311
      C   17   -0.02943      0.99949     2.02113    0.00882     3.02943
      C   18    0.14386      0.99958     1.83878    0.01778     2.85614
      C   19    0.10885      0.99958     1.87431    0.01726     2.89115
      H   20    0.11071      0.00000     0.38785    0.00144     0.38929
      H   21    0.12029      0.00000     0.37863    0.00108     0.37971
      H   22    0.11087      0.00000     0.38807    0.00106     0.38913
      H   23    0.08182      0.00000     0.41671    0.00147     0.41818
      H   24    0.07858      0.00000     0.42000    0.00141     0.42142
      H   25    0.09916      0.00000     0.39954    0.00130     0.40084
      H   26    0.07510      0.00000     0.42357    0.00133     0.42490
      H   27    0.10464      0.00000     0.39385    0.00152     0.39536
      H   28    0.23307      0.00000     0.26450    0.00242     0.26693
      H   29    0.10873      0.00000     0.39031    0.00096     0.39127
      H   30    0.22240      0.00000     0.27502    0.00258     0.27760
      H   31    0.19101      0.00000     0.30765    0.00134     0.30899
      H   32    0.19124      0.00000     0.30733    0.00143     0.30876
      H   33    0.18721      0.00000     0.31133    0.00146     0.31279
      H   34    0.19193      0.00000     0.30642    0.00165     0.30807
 =======================================================================
   * Total *   -0.00000     26.99269    51.75649    0.25082    79.00000

 Normal termination of Gaussian 16 at Sat Feb 27 19:50:11 2021.
