 Gaussian 16, Revision A.03,

 -----------------------------------------------------------
 # opt freq B3LYP/6-31G(d) empiricaldispersion=gd3bj scf=xqc
 -----------------------------------------------------------

 ------------------------------
 CID_18362287_JID_2089_neutraal
 ------------------------------
 Symbolic Z-matrix:
 Charge =  0 Multiplicity = 1

 SCF Done:  E(RB3LYP) =  -536.152492711     A.U. after   13 cycles
 SCF Done:  E(RB3LYP) =  -536.156404334     A.U. after   12 cycles
 SCF Done:  E(RB3LYP) =  -536.155860621     A.U. after   12 cycles
 SCF Done:  E(RB3LYP) =  -536.157285928     A.U. after   12 cycles
 SCF Done:  E(RB3LYP) =  -536.157701334     A.U. after   11 cycles
 SCF Done:  E(RB3LYP) =  -536.157810526     A.U. after   10 cycles
 SCF Done:  E(RB3LYP) =  -536.157856984     A.U. after   10 cycles
 SCF Done:  E(RB3LYP) =  -536.157871788     A.U. after   10 cycles
 SCF Done:  E(RB3LYP) =  -536.157874488     A.U. after    8 cycles
 SCF Done:  E(RB3LYP) =  -536.157875773     A.U. after    8 cycles
 SCF Done:  E(RB3LYP) =  -536.157876345     A.U. after    8 cycles
 Optimization completed.
    -- Stationary point found.
 Normal termination of Gaussian 16 at Wed Dec  9 16:46:34 2020.

 --------------------------------------------------------------------
 #N Geom=AllCheck Guess=TCheck SCRF=Check GenChk RB3LYP/6-31G(d) Freq
 --------------------------------------------------------------------

 Structure from the checkpoint file:  "JID_2089.chk"
 ------------------------------
 CID_18362287_JID_2089_neutraal
 ------------------------------
 Charge =  0 Multiplicity = 1

 SCF Done:  E(RB3LYP) =  -536.157876345     A.U. after    1 cycles

  Exact polarizability: 150.399  -2.717 123.637  13.307   2.493  63.891
 Approx polarizability: 216.182 -13.697 203.069  23.515   5.141  95.879

                      1                      2                      3
                      A                      A                      A
 Frequencies --     72.7440                88.6925               139.2534
 Red. masses --      5.3298                 3.5579                 2.7704
 Frc consts  --      0.0166                 0.0165                 0.0317
 IR Inten    --      0.9409                 0.6073                 2.2599

                      4                      5                      6
                      A                      A                      A
 Frequencies --    169.0711               183.7756               202.2267
 Red. masses --      1.3555                 2.2625                 2.8201
 Frc consts  --      0.0228                 0.0450                 0.0679
 IR Inten    --     10.1441                 4.4512                 6.0446

                      7                      8                      9
                      A                      A                      A
 Frequencies --    260.2126               275.6190               302.8343
 Red. masses --      2.0536                 1.7791                 2.2350
 Frc consts  --      0.0819                 0.0796                 0.1208
 IR Inten    --      8.7984                17.5204                 4.9970

                     10                     11                     12
                      A                      A                      A
 Frequencies --    316.0404               332.2797               378.7811
 Red. masses --      2.5014                 2.8116                 1.9180
 Frc consts  --      0.1472                 0.1829                 0.1621
 IR Inten    --      1.6923                 5.5624                 8.8633

                     13                     14                     15
                      A                      A                      A
 Frequencies --    406.0737               429.0583               449.8470
 Red. masses --      1.4946                 3.6158                 2.8025
 Frc consts  --      0.1452                 0.3922                 0.3341
 IR Inten    --     17.5181                 1.3588                11.0939

                     16                     17                     18
                      A                      A                      A
 Frequencies --    495.2957               502.5028               550.6418
 Red. masses --      1.5102                 2.9141                 3.2635
 Frc consts  --      0.2183                 0.4335                 0.5830
 IR Inten    --    153.4058                79.7106                 7.1437

                     19                     20                     21
                      A                      A                      A
 Frequencies --    566.1778               648.8644               662.6080
 Red. masses --      2.5928                 2.9532                 3.0145
 Frc consts  --      0.4897                 0.7326                 0.7798
 IR Inten    --      1.5882                26.2659               181.3602

                     22                     23                     24
                      A                      A                      A
 Frequencies --    722.8777               737.8142               761.2326
 Red. masses --      3.2068                 1.8548                 5.0103
 Frc consts  --      0.9873                 0.5949                 1.7106
 IR Inten    --     20.0156               189.6755                16.8132

                     25                     26                     27
                      A                      A                      A
 Frequencies --    808.5278               846.2215               863.7972
 Red. masses --      1.5831                 1.7958                 1.4657
 Frc consts  --      0.6098                 0.7576                 0.6444
 IR Inten    --    156.6156                27.2505                53.3393

                     28                     29                     30
                      A                      A                      A
 Frequencies --    867.0793               888.0786               941.4844
 Red. masses --      1.4777                 2.1137                 2.1782
 Frc consts  --      0.6546                 0.9822                 1.1375
 IR Inten    --     27.5657                 2.5479                 5.3303

                     31                     32                     33
                      A                      A                      A
 Frequencies --   1030.2577              1060.6939              1071.4625
 Red. masses --      1.5310                 1.7932                 1.4759
 Frc consts  --      0.9574                 1.1886                 0.9983
 IR Inten    --     10.1663                26.2211                 2.7682

                     34                     35                     36
                      A                      A                      A
 Frequencies --   1074.5381              1122.5321              1129.3112
 Red. masses --      3.0440                 1.9112                 2.7922
 Frc consts  --      2.0708                 1.4189                 2.0981
 IR Inten    --     50.6897                 5.2420                 1.0479

                     37                     38                     39
                      A                      A                      A
 Frequencies --   1178.2067              1202.1651              1229.8097
 Red. masses --      1.2811                 1.1788                 1.9571
 Frc consts  --      1.0478                 1.0037                 1.7440
 IR Inten    --      2.1080                 9.3053                 8.8250

                     40                     41                     42
                      A                      A                      A
 Frequencies --   1241.5640              1286.2587              1338.7742
 Red. masses --      1.3235                 2.2405                 1.3182
 Frc consts  --      1.2020                 2.1840                 1.3920
 IR Inten    --     20.2932                50.1140                 0.1641

                     43                     44                     45
                      A                      A                      A
 Frequencies --   1359.1313              1377.0462              1385.9808
 Red. masses --      4.8733                 2.3243                 2.0951
 Frc consts  --      5.3039                 2.5968                 2.3712
 IR Inten    --      0.2681                27.0932                 5.8667

                     46                     47                     48
                      A                      A                      A
 Frequencies --   1407.7536              1429.9115              1441.1710
 Red. masses --      1.2319                 1.2629                 1.2610
 Frc consts  --      1.4384                 1.5214                 1.5431
 IR Inten    --      2.2788                34.3836                 3.6236

                     49                     50                     51
                      A                      A                      A
 Frequencies --   1485.4698              1513.0694              1513.9025
 Red. masses --      2.7855                 1.0463                 1.1136
 Frc consts  --      3.6214                 1.4113                 1.5038
 IR Inten    --     50.5535                 5.0923                 9.9501

                     52                     53                     54
                      A                      A                      A
 Frequencies --   1532.6268              1534.4310              1566.2240
 Red. masses --      1.0946                 1.1986                 3.1837
 Frc consts  --      1.5149                 1.6628                 4.6014
 IR Inten    --      2.5764                20.7786               103.3510

                     55                     56                     57
                      A                      A                      A
 Frequencies --   1636.9548              1681.5690              1698.0656
 Red. masses --      6.5066                 2.2078                 1.3780
 Frc consts  --     10.2726                 3.6782                 2.3410
 IR Inten    --      0.3234                12.0688                71.5152

                     58                     59                     60
                      A                      A                      A
 Frequencies --   1709.6287              3012.6239              3016.1208
 Red. masses --      1.3053                 1.0700                 1.0487
 Frc consts  --      2.2479                 5.7219                 5.6207
 IR Inten    --     32.4498                55.8271                47.7959

                     61                     62                     63
                      A                      A                      A
 Frequencies --   3048.8608              3073.2789              3093.6723
 Red. masses --      1.0602                 1.0895                 1.1018
 Frc consts  --      5.8066                 6.0630                 6.2129
 IR Inten    --     28.6779                23.3366                18.0583

                     64                     65                     66
                      A                      A                      A
 Frequencies --   3109.9028              3129.0155              3154.2765
 Red. masses --      1.0976                 1.0990                 1.0891
 Frc consts  --      6.2546                 6.3393                 6.3844
 IR Inten    --     56.3565                12.9896                35.6477

                     67                     68                     69
                      A                      A                      A
 Frequencies --   3159.9169              3504.3040              3528.4447
 Red. masses --      1.0895                 1.0507                 1.0483
 Frc consts  --      6.4096                 7.6023                 7.6895
 IR Inten    --     15.6941                44.4852                 2.4700

                     70                     71                     72
                      A                      A                      A
 Frequencies --   3608.1043              3624.5295              3710.8277
 Red. masses --      1.0943                 1.0965                 1.0656
 Frc consts  --      8.3937                 8.4871                 8.6456
 IR Inten    --     20.1611                 4.2257                19.6498

 - Thermochemistry -
 -------------------
 Temperature   298.150 Kelvin.  Pressure   1.00000 Atm.
 Atom     1 has atomic number  6 and mass  12.00000

 Molecular mass:   166.11061 amu.
 Principal axes and moments of inertia in atomic units:
                           1         2         3
     Eigenvalues --  1098.121562951.907263637.15405
           X            0.99980   0.01527   0.01263
           Y           -0.01536   0.99986   0.00678
           Z           -0.01252  -0.00698   0.99990
 This molecule is an asymmetric top.
 Rotational symmetry number  1.
 Warning -- assumption of classical behavior for rotation
           may cause significant error
 Rotational temperatures (Kelvin)      0.07887     0.02934     0.02381
 Rotational constants (GHZ):           1.64348     0.61138     0.49620
 Zero-point vibrational energy     591446.3 (Joules/Mol)
                                  141.35906 (Kcal/Mol)
 Warning -- explicit consideration of  19 degrees of freedom as
           vibrations may cause significant error
 Vibrational temperatures:    104.66   127.61   200.35   243.26   264.41
          (Kelvin)            290.96   374.39   396.55   435.71   454.71
                              478.08   544.98   584.25   617.32   647.23
                              712.62   722.99   792.25   814.60   933.57
                              953.35  1040.06  1061.55  1095.24  1163.29
                             1217.52  1242.81  1247.53  1277.75  1354.59
                             1482.31  1526.10  1541.60  1546.02  1615.07
                             1624.83  1695.18  1729.65  1769.42  1786.33
                             1850.64  1926.20  1955.49  1981.26  1994.12
                             2025.44  2057.32  2073.52  2137.26  2176.97
                             2178.17  2205.11  2207.70  2253.45  2355.21
                             2419.40  2443.14  2459.77  4334.49  4339.53
                             4386.63  4421.76  4451.10  4474.46  4501.96
                             4538.30  4546.42  5041.91  5076.64  5191.26
                             5214.89  5339.05

 Zero-point correction=                           0.225270 (Hartree/Particle)
 Thermal correction to Energy=                    0.237438
 Thermal correction to Enthalpy=                  0.238382
 Thermal correction to Gibbs Free Energy=         0.188014
 Sum of electronic and zero-point Energies=           -535.932606
 Sum of electronic and thermal Energies=              -535.920439
 Sum of electronic and thermal Enthalpies=            -535.919495
 Sum of electronic and thermal Free Energies=         -535.969862

                     E (Thermal)             CV                S
                      KCal/Mol        Cal/Mol-Kelvin    Cal/Mol-Kelvin
 Total                  148.994             47.691            106.007
 Electronic               0.000              0.000              0.000
 Translational            0.889              2.981             41.231
 Rotational               0.889              2.981             30.845
 Vibrational            147.217             41.730             33.931
 Vibration     1          0.599              1.967              4.078
 Vibration     2          0.602              1.957              3.689
 Vibration     3          0.615              1.914              2.814
 Vibration     4          0.625              1.881              2.446
 Vibration     5          0.631              1.862              2.290
 Vibration     6          0.639              1.837              2.113
 Vibration     7          0.668              1.745              1.660
 Vibration     8          0.677              1.718              1.561
 Vibration     9          0.694              1.668              1.401
 Vibration    10          0.703              1.643              1.331
 Vibration    11          0.714              1.611              1.249
 Vibration    12          0.749              1.515              1.044
 Vibration    13          0.771              1.457              0.941
 Vibration    14          0.790              1.407              0.862
 Vibration    15          0.809              1.361              0.796
 Vibration    16          0.851              1.260              0.670
 Vibration    17          0.858              1.244              0.652
 Vibration    18          0.906              1.138              0.543
 Vibration    19          0.922              1.104              0.512

                           ! Non-Optimized Parameters !
 Normal termination of Gaussian 16 at Wed Dec  9 16:52:17 2020.

 ----------------------------------------------------------------------
 # B3LYP/6-311++G(d,p) empiricaldispersion=gd3bj scf=xqc pop=npa geom=c
 heck
 ----------------------------------------------------------------------

 --------------------------------------
 CID_18362287_JID_2089_Energie_neutraal
 --------------------------------------
 Structure from the checkpoint file:  "JID_2089.chk"
 Charge =  0 Multiplicity = 1

 SCF Done:  E(RB3LYP) =  -536.327049625     A.U. after   14 cycles
 Normal termination of Gaussian 16 at Wed Dec  9 16:54:20 2020.

 ----------------------------------------------------------------------
 # B3LYP/6-311++G(d,p) empiricaldispersion=gd3bj scf=xqc pop=npa geom=c
 heck
 ----------------------------------------------------------------------

 ------------------------------------
 CID_18362287_JID_2089_Energie_kation
 ------------------------------------
 Structure from the checkpoint file:  "JID_2089.chk"
 Charge =  1 Multiplicity = 2

 SCF Done:  E(UB3LYP) =  -536.073001842     A.U. after   18 cycles
 Normal termination of Gaussian 16 at Wed Dec  9 16:57:52 2020.
 Gaussian 16:  ES64L-G16RevA.03 25-Dec-2016

 ----------------------------------------------------------------------
 # B3LYP/6-311++G(d,p) empiricaldispersion=gd3bj scf=xqc pop=npa geom=c
 heck
 ----------------------------------------------------------------------

 -----------------------------------
 CID_18362287_JID_2089_Energie_anion
 -----------------------------------
 Structure from the checkpoint file:  "JID_2089.chk"
 Charge = -1 Multiplicity = 2

                         Standard orientation:
 ---------------------------------------------------------------------
 Center     Atomic      Atomic             Coordinates (Angstroms)
 Number     Number       Type             X           Y           Z
 ---------------------------------------------------------------------
      1          6           0        3.354497    0.989193    0.393335
      2          6           0        1.952457    0.524466    0.096510
      3          6           0        0.906310    1.434539   -0.046354
      4          6           0       -0.404861    1.040143   -0.346525
      5          6           0       -0.669299   -0.335541   -0.515845
      6          6           0        0.373263   -1.249283   -0.342745
      7          6           0        1.679049   -0.850613   -0.043325
      8          7           0        2.724265   -1.793262    0.041385
      9          6           0       -2.062573   -0.813816   -0.853372
     10          6           0       -2.935279   -1.020572    0.395035
     11          8           0       -2.990555    0.138684    1.228862
     12          7           0       -1.423291    1.994935   -0.552157
     13          1           0        3.704590    0.645048    1.378392
     14          1           0        3.418526    2.081006    0.390850
     15          1           0        4.064382    0.602924   -0.349081
     16          1           0        1.119967    2.495417    0.074234
     17          1           0        0.161774   -2.310394   -0.468718
     18          1           0        2.392498   -2.740478    0.184261
     19          1           0        3.425144   -1.566315    0.738023
     20          1           0       -2.548891   -0.086768   -1.514353
     21          1           0       -2.011780   -1.765472   -1.397108
     22          1           0       -3.970243   -1.230104    0.108207
     23          1           0       -2.562843   -1.882178    0.969740
     24          1           0       -2.091331    0.265803    1.575438
     25          1           0       -2.298205    1.733347   -0.105374
     26          1           0       -1.147363    2.925883   -0.260284
 ---------------------------------------------------------------------

 SCF Done:  E(UB3LYP) =  -536.313756765     A.U. after   33 cycles
 SCF Done:  E(UB3LYP) =  -536.313756765     a.u. after    1 cycles

 The electronic state is 2-A.
 Alpha  occ. eigenvalues --  -19.03319 -14.20771 -14.20101 -10.12356 -10.09777
 Alpha  occ. eigenvalues --  -10.09465 -10.07501 -10.07043 -10.06980 -10.06132
 Alpha  occ. eigenvalues --  -10.06112 -10.05939  -0.93353  -0.81397  -0.80129
 Alpha  occ. eigenvalues --   -0.72335  -0.68786  -0.64043  -0.60876  -0.57964
 Alpha  occ. eigenvalues --   -0.52606  -0.50547  -0.46568  -0.42834  -0.41428
 Alpha  occ. eigenvalues --   -0.39917  -0.38162  -0.37604  -0.35681  -0.33455
 Alpha  occ. eigenvalues --   -0.33050  -0.31716  -0.31472  -0.30394  -0.28568
 Alpha  occ. eigenvalues --   -0.27852  -0.27027  -0.25514  -0.24252  -0.23193
 Alpha  occ. eigenvalues --   -0.22620  -0.19388  -0.16276  -0.13679  -0.08119
 Alpha  occ. eigenvalues --    0.04507
 Alpha virt. eigenvalues --    0.06650   0.06731   0.08176   0.08760   0.09017
 Alpha virt. eigenvalues --    0.09577   0.10197   0.11115   0.11366   0.11826
 Alpha virt. eigenvalues --    0.12147   0.12293   0.13493   0.14805   0.15485

  Beta  occ. eigenvalues --  -19.03303 -14.20757 -14.20043 -10.12336 -10.09769
  Beta  occ. eigenvalues --  -10.09461 -10.07493 -10.07044 -10.06976 -10.06103
  Beta  occ. eigenvalues --  -10.06091 -10.05921  -0.93321  -0.81368  -0.80068
  Beta  occ. eigenvalues --   -0.72299  -0.68760  -0.64003  -0.60827  -0.57908
  Beta  occ. eigenvalues --   -0.52554  -0.50501  -0.46517  -0.42805  -0.41388
  Beta  occ. eigenvalues --   -0.39870  -0.38101  -0.37556  -0.35636  -0.33422
  Beta  occ. eigenvalues --   -0.33016  -0.31674  -0.31421  -0.30359  -0.28540
  Beta  occ. eigenvalues --   -0.27817  -0.26991  -0.25486  -0.24223  -0.23160
  Beta  occ. eigenvalues --   -0.22587  -0.19359  -0.16243  -0.13665  -0.08080
  Beta virt. eigenvalues --    0.06692   0.07282   0.07803   0.08649   0.09283
  Beta virt. eigenvalues --    0.09633   0.09670   0.10569   0.11677   0.11807
  Beta virt. eigenvalues --    0.11925   0.12463   0.12553   0.13961   0.15340

 Mulliken charges and spin densities:
               1          2
     1  C    3.256040  -3.815491
     2  C    0.677672   0.396118
     3  C   -1.473090   1.144905
     4  C   -0.313247  -0.480748
     5  C    2.263983  -0.992115
     6  C   -1.765391   1.258899
     7  C   -0.560082  -0.397484
     8  N   -0.351039   0.064410
     9  C   -0.573520   0.034880
    10  C    0.834989  -1.220566
    11  O   -0.319172   0.010974
    12  N   -0.408538   0.101408
    13  H   -0.429370   0.600306
    14  H   -0.131400   0.270985
    15  H   -0.128419   0.295847
    16  H   -0.445677   0.550099
    17  H   -0.634286   0.784417
    18  H   -0.414127   0.659653
    19  H   -0.232447   0.484278
    20  H    0.115525   0.077348
    21  H   -0.073464   0.214099
    22  H   -0.038621   0.186971
    23  H   -0.208479   0.377567
    24  H    0.065337   0.196017
    25  H    0.201898   0.040568
    26  H    0.084926   0.156655
 Sum of Mulliken charges =  -1.00000   1.00000

 Dipole moment (field-independent basis, Debye):
    X=             -5.1041    Y=              3.3935    Z=             -2.2911  Tot=              6.5435
 Quadrupole moment (field-independent basis, Debye-Ang):
   XX=           -139.6857   YY=           -118.5218   ZZ=           -104.9318
   XY=              7.2695   XZ=             -3.0117   YZ=              3.1976

 Summary of Natural Population Analysis:

                                       Natural Population
                Natural  -----------------------------------------------
    Atom  No    Charge         Core      Valence    Rydberg      Total
 -----------------------------------------------------------------------
      C    1   -0.29580      0.99964     2.28991    0.00625     3.29580
      C    2   -0.02676      0.99949     2.01649    0.01078     3.02676
      C    3   -0.12843      0.99951     2.11338    0.01554     3.12843
      C    4    0.10743      0.99944     1.88519    0.00794     2.89257
      C    5   -0.05809      0.99950     2.04096    0.01763     3.05809
      C    6   -0.10921      0.99948     2.09933    0.01040     3.10921
      C    7    0.07590      0.99943     1.91256    0.01211     2.92410
      N    8   -0.40081      0.99972     2.89028    0.01081     3.90081
      C    9   -0.21327      0.99960     2.20505    0.00862     3.21327
      C   10   -0.00536      0.99960     1.99372    0.01204     3.00536
      O   11   -0.37589      0.99990     3.36928    0.00671     4.37589
      N   12   -0.42202      0.99974     2.90901    0.01326     3.92202
      H   13    0.10390      0.00000     0.39419    0.00191     0.39610
      H   14    0.10167      0.00000     0.39721    0.00112     0.39833
      H   15    0.10607      0.00000     0.39257    0.00136     0.39393
      H   16    0.09409      0.00000     0.40446    0.00145     0.40591
      H   17    0.09779      0.00000     0.40036    0.00185     0.40221
      H   18    0.18576      0.00000     0.30909    0.00515     0.31424
      H   19    0.18790      0.00000     0.30711    0.00499     0.31210
      H   20    0.10332      0.00000     0.39503    0.00165     0.39668
      H   21    0.10473      0.00000     0.39404    0.00123     0.39527
      H   22    0.08319      0.00000     0.41559    0.00122     0.41681
      H   23    0.07940      0.00000     0.41883    0.00177     0.42060
      H   24    0.23324      0.00000     0.26316    0.00360     0.26676
      H   25    0.19223      0.00000     0.30532    0.00246     0.30777
      H   26    0.17918      0.00000     0.31911    0.00172     0.32082
 =======================================================================
   * Total *    0.00013     11.99506    32.84123    0.16358    44.99987

 Normal termination of Gaussian 16 at Wed Dec  9 17:04:09 2020.
