 Gaussian 16, Revision A.03,

 -----------------------------------------------------------
 # opt freq B3LYP/6-31G(d) empiricaldispersion=gd3bj scf=xqc
 -----------------------------------------------------------

 -------------------------------
 CID_114141331_JID_8221_neutraal
 -------------------------------
 Symbolic Z-matrix:
 Charge =  0 Multiplicity = 1

 SCF Done:  E(RB3LYP) =  -1542.88276627     A.U. after   14 cycles
 SCF Done:  E(RB3LYP) =  -1542.89398131     A.U. after   12 cycles
 SCF Done:  E(RB3LYP) =  -1542.89524451     A.U. after   12 cycles
 SCF Done:  E(RB3LYP) =  -1542.89418231     A.U. after   12 cycles
 SCF Done:  E(RB3LYP) =  -1542.89568032     A.U. after   12 cycles
 SCF Done:  E(RB3LYP) =  -1542.89588306     A.U. after   12 cycles
 SCF Done:  E(RB3LYP) =  -1542.89603130     A.U. after   12 cycles
 SCF Done:  E(RB3LYP) =  -1542.89608550     A.U. after   11 cycles
 SCF Done:  E(RB3LYP) =  -1542.89612975     A.U. after   10 cycles
 SCF Done:  E(RB3LYP) =  -1542.89617526     A.U. after   11 cycles
 SCF Done:  E(RB3LYP) =  -1542.89635091     A.U. after   10 cycles
 SCF Done:  E(RB3LYP) =  -1542.89635238     A.U. after    9 cycles
 SCF Done:  E(RB3LYP) =  -1542.89635335     A.U. after    9 cycles
 SCF Done:  E(RB3LYP) =  -1542.89635365     A.U. after    8 cycles
 SCF Done:  E(RB3LYP) =  -1542.89635370     A.U. after    7 cycles
 SCF Done:  E(RB3LYP) =  -1542.89635371     A.U. after    7 cycles
 Optimization completed.
    -- Stationary point found.
 Normal termination of Gaussian 16 at Fri Dec 11 19:51:58 2020.

 --------------------------------------------------------------------
 #N Geom=AllCheck Guess=TCheck SCRF=Check GenChk RB3LYP/6-31G(d) Freq
 --------------------------------------------------------------------

 Structure from the checkpoint file:  "JID_8221.chk"
 -------------------------------
 CID_114141331_JID_8221_neutraal
 -------------------------------
 Charge =  0 Multiplicity = 1

 SCF Done:  E(RB3LYP) =  -1542.89635371     A.U. after    1 cycles

  Exact polarizability: 218.688   5.335 166.234  14.187  -1.414 138.218
 Approx polarizability: 276.080   9.531 260.577  25.761  -9.577 217.031

                      1                      2                      3
                      A                      A                      A
 Frequencies --     12.6935                25.3273                31.0302
 Red. masses --      5.7146                 4.4941                 2.7063
 Frc consts  --      0.0005                 0.0017                 0.0015
 IR Inten    --      1.2536                 0.9846                 0.0972

                      4                      5                      6
                      A                      A                      A
 Frequencies --     42.5474                73.4276                79.8202
 Red. masses --      4.3795                 3.9331                 3.3094
 Frc consts  --      0.0047                 0.0125                 0.0124
 IR Inten    --      0.1182                 0.7892                 4.5224

                      7                      8                      9
                      A                      A                      A
 Frequencies --     89.7861               103.0984               122.8481
 Red. masses --      4.5262                 3.4771                 4.7175
 Frc consts  --      0.0215                 0.0218                 0.0419
 IR Inten    --      2.4735                 0.6864                 0.4183

                     10                     11                     12
                      A                      A                      A
 Frequencies --    141.8290               150.9700               159.0119
 Red. masses --      2.7860                 1.6274                 1.9569
 Frc consts  --      0.0330                 0.0219                 0.0292
 IR Inten    --      3.7882                 2.4291                 3.2695

                     13                     14                     15
                      A                      A                      A
 Frequencies --    170.9681               216.4200               234.4581
 Red. masses --      3.2968                 2.7837                 1.2682
 Frc consts  --      0.0568                 0.0768                 0.0411
 IR Inten    --      1.1509                10.2763                 1.3538

                     16                     17                     18
                      A                      A                      A
 Frequencies --    243.4929               261.7963               269.2261
 Red. masses --      3.7220                 2.4726                 1.1564
 Frc consts  --      0.1300                 0.0998                 0.0494
 IR Inten    --      2.1424                 0.7544                 0.1500

                     19                     20                     21
                      A                      A                      A
 Frequencies --    278.0984               305.7750               307.3538
 Red. masses --      2.1968                 2.2162                 1.8404
 Frc consts  --      0.1001                 0.1221                 0.1024
 IR Inten    --     18.8189                14.4044                30.0698

                     22                     23                     24
                      A                      A                      A
 Frequencies --    331.3009               352.5200               393.2880
 Red. masses --      3.9826                 3.4315                 5.2331
 Frc consts  --      0.2575                 0.2513                 0.4769
 IR Inten    --      3.9482                 7.5450                 7.7899

                     25                     26                     27
                      A                      A                      A
 Frequencies --    408.5678               428.5987               462.3951
 Red. masses --      3.5680                 3.4447                 3.5994
 Frc consts  --      0.3509                 0.3728                 0.4534
 IR Inten    --      4.1809                 1.2397                 3.9050

                     28                     29                     30
                      A                      A                      A
 Frequencies --    473.6248               548.8966               555.1871
 Red. masses --      3.6327                 4.6006                 4.3277
 Frc consts  --      0.4801                 0.8167                 0.7859
 IR Inten    --     12.4262                 6.0198                15.9036

                     31                     32                     33
                      A                      A                      A
 Frequencies --    570.9193               624.1379               641.6768
 Red. masses --      5.7660                 2.6882                 2.9688
 Frc consts  --      1.1073                 0.6170                 0.7202
 IR Inten    --    108.6120                 4.4449                34.8148

                     34                     35                     36
                      A                      A                      A
 Frequencies --    651.5806               655.3558               673.1814
 Red. masses --      3.5353                 3.4323                 3.5583
 Frc consts  --      0.8843                 0.8685                 0.9501
 IR Inten    --     27.3746                30.2591                58.1783

                     37                     38                     39
                      A                      A                      A
 Frequencies --    711.5995               753.9502               760.6463
 Red. masses --      5.7550                 1.6616                 2.1706
 Frc consts  --      1.7170                 0.5565                 0.7399
 IR Inten    --      9.8838                 5.8100                19.9987

                     40                     41                     42
                      A                      A                      A
 Frequencies --    786.9417               848.1498               872.1515
 Red. masses --      1.7711                 1.2393                 1.3055
 Frc consts  --      0.6462                 0.5253                 0.5851
 IR Inten    --    118.5825                22.2770               107.6099

                     43                     44                     45
                      A                      A                      A
 Frequencies --    890.0748               902.1504               947.9277
 Red. masses --      2.3649                 2.4164                 1.1891
 Frc consts  --      1.1039                 1.1587                 0.6295
 IR Inten    --    120.1526                15.0018                 0.6820

                     46                     47                     48
                      A                      A                      A
 Frequencies --    965.8939               966.5290               983.6626
 Red. masses --      1.8542                 1.5888                 4.0998
 Frc consts  --      1.0192                 0.8745                 2.3373
 IR Inten    --      5.1517                 2.0097                 8.9047

                     49                     50                     51
                      A                      A                      A
 Frequencies --   1003.1000              1008.3685              1029.8467
 Red. masses --      1.3979                 1.3234                 1.6071
 Frc consts  --      0.8287                 0.7928                 1.0042
 IR Inten    --     24.8117                 2.4536                22.8292

                     52                     53                     54
                      A                      A                      A
 Frequencies --   1062.4817              1079.8896              1094.5252
 Red. masses --      1.7117                 2.7318                 1.9753
 Frc consts  --      1.1385                 1.8769                 1.3943
 IR Inten    --     47.4180                 5.5445                35.2247

                     55                     56                     57
                      A                      A                      A
 Frequencies --   1113.6059              1116.4542              1136.5273
 Red. masses --      2.9619                 4.1010                 2.0046
 Frc consts  --      2.1641                 3.0118                 1.5256
 IR Inten    --    108.2280                27.7327               151.2724

                     58                     59                     60
                      A                      A                      A
 Frequencies --   1145.1212              1164.9310              1189.9018
 Red. masses --      2.5397                 2.1218                 1.3336
 Frc consts  --      1.9621                 1.6965                 1.1125
 IR Inten    --     32.2565                 4.4222                20.2343

                     61                     62                     63
                      A                      A                      A
 Frequencies --   1213.3395              1220.3770              1223.7646
 Red. masses --      1.7190                 1.4686                 1.1746
 Frc consts  --      1.4911                 1.2887                 1.0364
 IR Inten    --      1.1510                36.5996                13.6056

                     64                     65                     66
                      A                      A                      A
 Frequencies --   1255.0079              1301.3923              1324.2373
 Red. masses --      1.3003                 6.7465                 1.6109
 Frc consts  --      1.2067                 6.7320                 1.6644
 IR Inten    --     17.0712               149.4176                12.2640

                     67                     68                     69
                      A                      A                      A
 Frequencies --   1336.7236              1341.0587              1364.8356
 Red. masses --      1.2660                 2.0333                 4.3972
 Frc consts  --      1.3328                 2.1545                 4.8260
 IR Inten    --     41.1368                 3.0249                35.8155

                     70                     71                     72
                      A                      A                      A
 Frequencies --   1372.7177              1397.6892              1403.1671
 Red. masses --      1.3823                 1.1637                 1.2125
 Frc consts  --      1.5347                 1.3394                 1.4065
 IR Inten    --      4.6604                 3.7673                 8.8015

                     73                     74                     75
                      A                      A                      A
 Frequencies --   1423.1394              1430.8535              1446.1965
 Red. masses --      2.5233                 1.2662                 1.3749
 Frc consts  --      3.0110                 1.5274                 1.6943
 IR Inten    --     11.8152                 9.8595                 5.3358

                     76                     77                     78
                      A                      A                      A
 Frequencies --   1453.3228              1461.6199              1470.6951
 Red. masses --      1.2555                 1.6510                 2.0456
 Frc consts  --      1.5624                 2.0781                 2.6069
 IR Inten    --     32.7922                 8.2617                25.4431

                     79                     80                     81
                      A                      A                      A
 Frequencies --   1490.4014              1503.4918              1512.6915
 Red. masses --      1.0768                 1.0620                 1.0852
 Frc consts  --      1.4092                 1.4144                 1.4631
 IR Inten    --     12.3887                 3.9903                 3.9337

                     82                     83                     84
                      A                      A                      A
 Frequencies --   1513.7002              1518.8168              1525.1123
 Red. masses --      1.0472                 1.0575                 1.0556
 Frc consts  --      1.4137                 1.4373                 1.4467
 IR Inten    --      0.4968                 2.4512                12.7691

                     85                     86                     87
                      A                      A                      A
 Frequencies --   1529.4662              1534.6652              1538.9213
 Red. masses --      1.2595                 1.2600                 1.1193
 Frc consts  --      1.7359                 1.7485                 1.5618
 IR Inten    --     31.5775                 4.8574                 2.3970

                     88                     89                     90
                      A                      A                      A
 Frequencies --   1544.9187              1601.1712              1693.1532
 Red. masses --      1.8297                 5.5422                 1.1021
 Frc consts  --      2.5730                 8.3716                 1.8615
 IR Inten    --     59.3827                 3.2042                39.1582

                     91                     92                     93
                      A                      A                      A
 Frequencies --   2929.9078              3025.6034              3056.0142
 Red. masses --      1.0745                 1.0843                 1.0349
 Frc consts  --      5.4345                 5.8484                 5.6943
 IR Inten    --     90.5490                36.2226                15.3062

                     94                     95                     96
                      A                      A                      A
 Frequencies --   3064.0536              3064.5154              3070.6763
 Red. masses --      1.0603                 1.0361                 1.0304
 Frc consts  --      5.8651                 5.7327                 5.7243
 IR Inten    --     20.0013                12.6478                27.1628

                     97                     98                     99
                      A                      A                      A
 Frequencies --   3085.4436              3087.3366              3107.2498
 Red. masses --      1.0647                 1.0848                 1.1054
 Frc consts  --      5.9716                 6.0923                 6.2879
 IR Inten    --     26.7399                 7.5898                14.3052

                    100                    101                    102
                      A                      A                      A
 Frequencies --   3126.8659              3134.3028              3136.1040
 Red. masses --      1.1031                 1.1031                 1.1012
 Frc consts  --      6.3548                 6.3845                 6.3812
 IR Inten    --      1.9821                31.2207                50.0148

                    103                    104                    105
                      A                      A                      A
 Frequencies --   3144.0801              3153.4922              3164.5705
 Red. masses --      1.1038                 1.1058                 1.1013
 Frc consts  --      6.4288                 6.4791                 6.4980
 IR Inten    --     18.6833                 9.2131                 2.1291

                    106                    107                    108
                      A                      A                      A
 Frequencies --   3176.1903              3304.8319              3311.5382
 Red. masses --      1.1064                 1.0961                 1.0967
 Frc consts  --      6.5765                 7.0537                 7.0857
 IR Inten    --      0.2982                 4.0659                 1.9808

                    109                    110                    111
                      A                      A                      A
 Frequencies --   3477.9649              3479.2542              3568.7242
 Red. masses --      1.0737                 1.0500                 1.0929
 Frc consts  --      7.6519                 7.4887                 8.2011
 IR Inten    --     49.7733                 0.3185                 0.2208

 - Thermochemistry -
 -------------------
 Temperature   298.150 Kelvin.  Pressure   1.00000 Atm.
 Atom     1 has atomic number  6 and mass  12.00000

 Molecular mass:   291.10752 amu.
 Principal axes and moments of inertia in atomic units:
                           1         2         3
     Eigenvalues --  2953.49776********************
           X            0.99992   0.01271   0.00180
           Y           -0.01268   0.99977  -0.01708
           Z           -0.00201   0.01705   0.99985
 This molecule is an asymmetric top.
 Rotational symmetry number  1.
 Warning -- assumption of classical behavior for rotation
           may cause significant error
 Rotational temperatures (Kelvin)      0.02933     0.00806     0.00746
 Rotational constants (GHZ):           0.61105     0.16790     0.15544
 Zero-point vibrational energy     862752.8 (Joules/Mol)
                                  206.20287 (Kcal/Mol)
 Warning -- explicit consideration of  31 degrees of freedom as
           vibrations may cause significant error
 Vibrational temperatures:     18.26    36.44    44.65    61.22   105.65
          (Kelvin)            114.84   129.18   148.34   176.75   204.06
                              217.21   228.78   245.98   311.38   337.33
                              350.33   376.67   387.36   400.12   439.94
                              442.21   476.67   507.20   565.85   587.84
                              616.66   665.28   681.44   789.74   798.79
                              821.43   898.00   923.23   937.48   942.91
                              968.56  1023.83  1084.77  1094.40  1132.23
                             1220.30  1254.83  1280.62  1297.99  1363.86
                             1389.71  1390.62  1415.27  1443.24  1450.82
                             1481.72  1528.67  1553.72  1574.78  1602.23
                             1606.33  1635.21  1647.57  1676.08  1712.00
                             1745.72  1755.85  1760.72  1805.68  1872.41
                             1905.28  1923.25  1929.48  1963.69  1975.03
                             2010.96  2018.84  2047.58  2058.68  2080.75
                             2091.01  2102.94  2116.00  2144.36  2163.19
                             2176.43  2177.88  2185.24  2194.30  2200.56
                             2208.04  2214.16  2222.79  2303.73  2436.07
                             4215.48  4353.17  4396.92  4408.49  4409.15
                             4418.02  4439.27  4441.99  4470.64  4498.86
                             4509.56  4512.15  4523.63  4537.17  4553.11
                             4569.83  4754.92  4764.56  5004.02  5005.87
                             5134.60

 Zero-point correction=                           0.328605 (Hartree/Particle)
 Thermal correction to Energy=                    0.349655
 Thermal correction to Enthalpy=                  0.350599
 Thermal correction to Gibbs Free Energy=         0.276044
 Sum of electronic and zero-point Energies=          -1542.567749
 Sum of electronic and thermal Energies=             -1542.546698
 Sum of electronic and thermal Enthalpies=           -1542.545754
 Sum of electronic and thermal Free Energies=        -1542.620310

                     E (Thermal)             CV                S
                      KCal/Mol        Cal/Mol-Kelvin    Cal/Mol-Kelvin
 Total                  219.412             76.551            156.916
 Electronic               0.000              0.000              0.000
 Translational            0.889              2.981             42.903
 Rotational               0.889              2.981             34.265
 Vibrational            217.635             70.589             79.747
 Vibration     1          0.593              1.987              7.537
 Vibration     2          0.593              1.985              6.165
 Vibration     3          0.594              1.983              5.762
 Vibration     4          0.595              1.980              5.137
 Vibration     5          0.599              1.967              4.059
 Vibration     6          0.600              1.963              3.895
 Vibration     7          0.602              1.956              3.665
 Vibration     8          0.605              1.947              3.395
 Vibration     9          0.610              1.930              3.055
 Vibration    10          0.615              1.911              2.779
 Vibration    11          0.618              1.902              2.660
 Vibration    12          0.621              1.893              2.562
 Vibration    13          0.626              1.878              2.425
 Vibration    14          0.645              1.816              1.989
 Vibration    15          0.654              1.788              1.845
 Vibration    16          0.659              1.774              1.777
 Vibration    17          0.669              1.743              1.650
 Vibration    18          0.674              1.730              1.601
 Vibration    19          0.679              1.714              1.545
 Vibration    20          0.696              1.663              1.385
 Vibration    21          0.697              1.660              1.377
 Vibration    22          0.714              1.613              1.254
 Vibration    23          0.729              1.570              1.155
 Vibration    24          0.760              1.485              0.988
 Vibration    25          0.773              1.452              0.932
 Vibration    26          0.790              1.408              0.863
 Vibration    27          0.820              1.333              0.759
 Vibration    28          0.830              1.309              0.727
 Vibration    29          0.904              1.142              0.546
 Vibration    30          0.911              1.128              0.534
 Vibration    31          0.927              1.094              0.502

 Optimization completed.
    -- Stationary point found.
 Normal termination of Gaussian 16 at Fri Dec 11 20:09:52 2020.

 ----------------------------------------------------------------------
 # B3LYP/6-311++G(d,p) empiricaldispersion=gd3bj scf=xqc pop=npa geom=c
 heck
 ----------------------------------------------------------------------

 ---------------------------------------
 CID_114141331_JID_8221_Energie_neutraal
 ---------------------------------------
 Structure from the checkpoint file:  "JID_8221.chk"
 Charge =  0 Multiplicity = 1

 SCF Done:  E(RB3LYP) =  -1543.16955800     A.U. after   16 cycles
 Normal termination of Gaussian 16 at Fri Dec 11 20:19:32 2020.

 ----------------------------------------------------------------------
 # B3LYP/6-311++G(d,p) empiricaldispersion=gd3bj scf=xqc pop=npa geom=c
 heck
 ----------------------------------------------------------------------

 -------------------------------------
 CID_114141331_JID_8221_Energie_kation
 -------------------------------------
 Structure from the checkpoint file:  "JID_8221.chk"
 Charge =  1 Multiplicity = 2

 SCF Done:  E(UB3LYP) =  -1542.88797536     A.U. after   28 cycles
 Normal termination of Gaussian 16 at Fri Dec 11 20:44:10 2020.
 Gaussian 16:  ES64L-G16RevA.03 25-Dec-2016

 ----------------------------------------------------------------------
 # B3LYP/6-311++G(d,p) empiricaldispersion=gd3bj scf=xqc pop=npa geom=c
 heck
 ----------------------------------------------------------------------

 ------------------------------------
 CID_114141331_JID_8221_Energie_anion
 ------------------------------------
 Structure from the checkpoint file:  "JID_8221.chk"
 Charge = -1 Multiplicity = 2

                         Standard orientation:
 ---------------------------------------------------------------------
 Center     Atomic      Atomic             Coordinates (Angstroms)
 Number     Number       Type             X           Y           Z
 ---------------------------------------------------------------------
      1          6           0       -3.713832   -1.981475   -1.395371
      2          6           0       -3.784620   -1.320178   -0.014391
      3          6           0       -3.867559   -2.345602    1.116946
      4          7           0       -2.646902   -0.406598    0.173089
      5          6           0       -1.399213   -0.785742    0.591245
      6          6           0       -0.571806    0.314733    0.476371
      7          6           0       -1.336670    1.400888   -0.034862
      8          6           0       -2.617034    0.928909   -0.221017
      9          6           0       -3.824455    1.656754   -0.736116
     10          7           0       -3.540297    3.089867   -0.803360
     11         16           0        1.098238    0.398715    0.994983
     12          8           0        1.671071    1.602645    0.364099
     13          8           0        1.247316    0.220622    2.443397
     14          7           0        1.702915   -1.034244    0.332520
     15          6           0        1.945557   -1.076919   -1.113339
     16          6           0        3.160086   -0.281641   -1.612897
     17         16           0        4.703097   -0.724825   -0.709342
     18          6           0        5.025698    0.840990    0.186678
     19          1           0       -2.816959   -2.605909   -1.471224
     20          1           0       -3.672316   -1.228932   -2.188863
     21          1           0       -4.591574   -2.614642   -1.563309
     22          1           0       -4.680332   -0.693900    0.032110
     23          1           0       -3.038394   -3.059536    1.077049
     24          1           0       -3.856249   -1.855100    2.094622
     25          1           0       -4.796530   -2.916545    1.023421
     26          1           0       -1.175708   -1.784294    0.928474
     27          1           0       -0.982810    2.397139   -0.247302
     28          1           0       -4.072490    1.321124   -1.753729
     29          1           0       -4.702497    1.404104   -0.111853
     30          1           0       -4.341168    3.580952   -1.193632
     31          1           0       -3.399666    3.452475    0.138024
     32          1           0        2.537595   -1.293071    0.862685
     33          1           0        2.061150   -2.135471   -1.370580
     34          1           0        1.038432   -0.720922   -1.614386
     35          1           0        3.312698   -0.485243   -2.677429
     36          1           0        2.989643    0.788003   -1.484658
     37          1           0        5.383146    1.611863   -0.501113
     38          1           0        4.124042    1.191382    0.692359
     39          1           0        5.804604    0.630674    0.923890
 ---------------------------------------------------------------------

 SCF Done:  E(UB3LYP) =  -1543.16625326     A.U. after   32 cycles

 The electronic state is 2-A.
 Alpha  occ. eigenvalues --  -88.97833 -88.77233 -19.02905 -19.02710 -14.28335
 Alpha  occ. eigenvalues --  -14.26064 -14.20589 -10.14114 -10.13487 -10.12845
 Alpha  occ. eigenvalues --  -10.12330 -10.12056 -10.11555 -10.11333 -10.10175
 Alpha  occ. eigenvalues --  -10.08026 -10.07697 -10.07559  -8.03957  -7.85833
 Alpha  occ. eigenvalues --   -6.00257  -6.00192  -6.00054  -5.82231  -5.81864
 Alpha  occ. eigenvalues --   -5.81204  -1.03052  -0.91806  -0.91012  -0.84975
 Alpha  occ. eigenvalues --   -0.79868  -0.74899  -0.73285  -0.68561  -0.66734
 Alpha  occ. eigenvalues --   -0.66158  -0.61088  -0.60550  -0.58334  -0.56966
 Alpha  occ. eigenvalues --   -0.53149  -0.51519  -0.48801  -0.46333  -0.44654
 Alpha  occ. eigenvalues --   -0.43618  -0.40950  -0.39796  -0.39057  -0.38716
 Alpha  occ. eigenvalues --   -0.37617  -0.37212  -0.36786  -0.36410  -0.35830
 Alpha  occ. eigenvalues --   -0.35398  -0.34837  -0.33302  -0.32641  -0.31676
 Alpha  occ. eigenvalues --   -0.31223  -0.30936  -0.29755  -0.29327  -0.28984
 Alpha  occ. eigenvalues --   -0.28632  -0.26719  -0.26437  -0.26269  -0.24774
 Alpha  occ. eigenvalues --   -0.23596  -0.23305  -0.22018  -0.19514  -0.16642
 Alpha  occ. eigenvalues --   -0.16090  -0.15989  -0.13351   0.03526
 Alpha virt. eigenvalues --    0.05578   0.05832   0.06213   0.07372   0.07618
 Alpha virt. eigenvalues --    0.07811   0.08218   0.09102   0.09308   0.09596
 Alpha virt. eigenvalues --    0.09723   0.09958   0.10615   0.10967   0.11310

  Beta  occ. eigenvalues --  -88.97833 -88.77233 -19.02905 -19.02709 -14.28336
  Beta  occ. eigenvalues --  -14.26064 -14.20556 -10.14104 -10.13471 -10.12841
  Beta  occ. eigenvalues --  -10.12328 -10.12046 -10.11556 -10.11290 -10.10176
  Beta  occ. eigenvalues --  -10.07988 -10.07688 -10.07516  -8.03957  -7.85833
  Beta  occ. eigenvalues --   -6.00256  -6.00191  -6.00053  -5.82230  -5.81864
  Beta  occ. eigenvalues --   -5.81203  -1.03051  -0.91805  -0.91005  -0.84972
  Beta  occ. eigenvalues --   -0.79808  -0.74878  -0.73279  -0.68541  -0.66722
  Beta  occ. eigenvalues --   -0.66119  -0.61038  -0.60500  -0.58307  -0.56898
  Beta  occ. eigenvalues --   -0.53125  -0.51485  -0.48781  -0.46304  -0.44622
  Beta  occ. eigenvalues --   -0.43605  -0.40934  -0.39759  -0.39033  -0.38661
  Beta  occ. eigenvalues --   -0.37609  -0.37202  -0.36779  -0.36349  -0.35789
  Beta  occ. eigenvalues --   -0.35387  -0.34830  -0.33259  -0.32598  -0.31666
  Beta  occ. eigenvalues --   -0.31195  -0.30903  -0.29717  -0.29293  -0.28969
  Beta  occ. eigenvalues --   -0.28585  -0.26678  -0.26421  -0.26224  -0.24769
  Beta  occ. eigenvalues --   -0.23591  -0.23301  -0.22016  -0.19510  -0.16633
  Beta  occ. eigenvalues --   -0.16086  -0.15951  -0.13331
  Beta virt. eigenvalues --    0.05630   0.05816   0.06405   0.06964   0.07554
  Beta virt. eigenvalues --    0.07873   0.08174   0.08674   0.09524   0.09666
  Beta virt. eigenvalues --    0.09842   0.09954   0.10089   0.10643   0.11198

 Mulliken charges and spin densities:
               1          2
     1  C    2.075635  -2.603047
     2  C   -2.059708   2.074366
     3  C    0.174323  -0.680848
     4  N    0.488494  -0.048835
     5  C   -1.876164   1.281441
     6  C    0.489795  -1.257347
     7  C    0.849047  -0.773433
     8  C   -1.550094   1.323702
     9  C    2.404546  -3.085446
    10  N   -0.539673   0.169408
    11  S    1.186376  -0.282147
    12  O   -0.160225  -0.002271
    13  O   -0.070201   0.013656
    14  N   -0.303084   0.042652
    15  C   -0.180388  -0.133851
    16  C   -0.261554  -0.076455
    17  S    0.127259  -0.015684
    18  C   -0.726980  -0.003210
    19  H   -0.199303   0.359927
    20  H    0.009085   0.135941
    21  H   -0.443318   0.603992
    22  H   -0.309304   0.480020
    23  H   -0.124095   0.260237
    24  H    0.080072   0.086502
    25  H   -0.689099   0.875906
    26  H    0.139611   0.055628
    27  H    0.152273   0.052154
    28  H   -0.393331   0.596807
    29  H   -0.632962   0.806254
    30  H   -0.041547   0.297747
    31  H    0.087304   0.122373
    32  H    0.271511   0.007499
    33  H   -0.027377   0.213182
    34  H    0.198930  -0.014242
    35  H    0.152352   0.110402
    36  H    0.149596   0.005321
    37  H    0.181391   0.000759
    38  H    0.234664   0.001910
    39  H    0.136143  -0.000967
 Sum of Mulliken charges =  -1.00000   1.00000

 Dipole moment (field-independent basis, Debye):
    X=             12.6076    Y=              0.1475    Z=              0.3308  Tot=             12.6128
 Quadrupole moment (field-independent basis, Debye-Ang):
   XX=           -242.7466   YY=           -176.3624   ZZ=           -165.2671
   XY=             -3.5550   XZ=            -10.9474   YZ=             -0.2070

 Summary of Natural Population Analysis:

                                       Natural Population
                Natural  -----------------------------------------------
    Atom  No    Charge         Core      Valence    Rydberg      Total
 -----------------------------------------------------------------------
      C    1   -0.28521      0.99964     2.27981    0.00575     3.28521
      C    2   -0.00743      0.99959     1.99523    0.01261     3.00743
      C    3   -0.28863      0.99965     2.28277    0.00621     3.28863
      N    4   -0.19638      0.99962     2.68451    0.01225     3.69638
      C    5    0.01041      0.99948     1.98009    0.01002     2.98959
      C    6   -0.20247      0.99937     2.18745    0.01564     3.20247
      C    7   -0.13354      0.99945     2.12296    0.01112     3.13354
      C    8    0.08284      0.99951     1.90410    0.01354     2.91716
      C    9   -0.10257      0.99959     2.09229    0.01069     3.10257
      N   10   -0.41696      0.99978     2.90700    0.01019     3.91696
      S   11    1.10579      4.99914     1.79328    0.10179     6.89421
      O   12   -0.47357      0.99991     3.46791    0.00576     4.47357
      O   13   -0.46183      0.99991     3.45678    0.00515     4.46183
      N   14   -0.43699      0.99976     2.92339    0.01384     3.93699
      C   15   -0.10444      0.99961     2.09009    0.01474     3.10444
      C   16   -0.26254      0.99959     2.25182    0.01113     3.26254
      S   17    0.06880      4.99965     2.91299    0.01856     7.93120
      C   18   -0.34831      0.99962     2.34407    0.00462     3.34831
      H   19    0.09873      0.00000     0.39993    0.00134     0.40127
      H   20    0.10421      0.00000     0.39436    0.00143     0.39579
      H   21    0.10654      0.00000     0.39174    0.00172     0.39346
      H   22    0.10503      0.00000     0.39105    0.00392     0.39497
      H   23    0.09727      0.00000     0.40152    0.00122     0.40273
      H   24    0.10546      0.00000     0.39352    0.00102     0.39454
      H   25    0.10963      0.00000     0.38905    0.00132     0.39037
      H   26    0.10987      0.00000     0.38854    0.00159     0.39013
      H   27    0.12188      0.00000     0.37692    0.00120     0.37812
      H   28    0.10098      0.00000     0.39708    0.00194     0.39902
      H   29    0.09061      0.00000     0.40567    0.00372     0.40939
      H   30    0.17957      0.00000     0.31827    0.00215     0.32043
      H   31    0.17381      0.00000     0.32443    0.00176     0.32619
      H   32    0.19761      0.00000     0.29992    0.00247     0.30239
      H   33    0.10017      0.00000     0.39850    0.00133     0.39983
      H   34    0.10992      0.00000     0.38888    0.00120     0.39008
      H   35    0.10450      0.00000     0.39420    0.00130     0.39550
      H   36    0.11904      0.00000     0.37964    0.00132     0.38096
      H   37    0.09844      0.00000     0.40048    0.00108     0.40156
      H   38    0.11637      0.00000     0.38235    0.00128     0.38363
      H   39    0.10350      0.00000     0.39571    0.00079     0.39650
 =======================================================================
   * Total *    0.00013     25.99286    51.68831    0.31870    77.99987

 Normal termination of Gaussian 16 at Fri Dec 11 21:12:05 2020.
