 Gaussian 16, Revision A.03,

 -----------------------------------------------------------
 # opt freq B3LYP/6-31G(d) empiricaldispersion=gd3bj scf=xqc
 -----------------------------------------------------------

 --------------------------------
 CID_103002427_JID_10458_neutraal
 --------------------------------
 Symbolic Z-matrix:
 Charge =  0 Multiplicity = 1

 SCF Done:  E(RB3LYP) =  -931.124451218     A.U. after   15 cycles
 SCF Done:  E(RB3LYP) =  -931.130967050     A.U. after   13 cycles
 SCF Done:  E(RB3LYP) =  -931.129956198     A.U. after   13 cycles
 SCF Done:  E(RB3LYP) =  -931.131528154     A.U. after   12 cycles
 SCF Done:  E(RB3LYP) =  -931.132296092     A.U. after   12 cycles
 SCF Done:  E(RB3LYP) =  -931.132566857     A.U. after   12 cycles
 SCF Done:  E(RB3LYP) =  -931.132764776     A.U. after   12 cycles
 SCF Done:  E(RB3LYP) =  -931.132870016     A.U. after   11 cycles
 SCF Done:  E(RB3LYP) =  -931.132925446     A.U. after   10 cycles
 SCF Done:  E(RB3LYP) =  -931.132961351     A.U. after   10 cycles
 SCF Done:  E(RB3LYP) =  -931.133022401     A.U. after   10 cycles
 SCF Done:  E(RB3LYP) =  -931.133029044     A.U. after   10 cycles
 SCF Done:  E(RB3LYP) =  -931.133032750     A.U. after    9 cycles
 SCF Done:  E(RB3LYP) =  -931.133033441     A.U. after    8 cycles
 SCF Done:  E(RB3LYP) =  -931.133033596     A.U. after    7 cycles
 SCF Done:  E(RB3LYP) =  -931.133033620     A.U. after    6 cycles
 Optimization completed.
    -- Stationary point found.
 Normal termination of Gaussian 16 at Mon Dec 14 17:50:41 2020.

 --------------------------------------------------------------------
 #N Geom=AllCheck Guess=TCheck SCRF=Check GenChk RB3LYP/6-31G(d) Freq
 --------------------------------------------------------------------

 Structure from the checkpoint file:  "JID_10458.chk"
 --------------------------------
 CID_103002427_JID_10458_neutraal
 --------------------------------
 Charge =  0 Multiplicity = 1

 SCF Done:  E(RB3LYP) =  -931.133033620     A.U. after    2 cycles

  Exact polarizability: 189.767  24.819 164.833  24.075  -8.280 142.618
 Approx polarizability: 264.590  59.166 279.726  56.285 -10.217 238.902

                      1                      2                      3
                      A                      A                      A
 Frequencies --     25.8764                32.8709                43.7105
 Red. masses --      4.8018                 5.3556                 3.3503
 Frc consts  --      0.0019                 0.0034                 0.0038
 IR Inten    --      1.2214                 0.7655                 0.1932

                      4                      5                      6
                      A                      A                      A
 Frequencies --     54.6999                80.6802                97.4702
 Red. masses --      4.4560                 4.8004                 5.1310
 Frc consts  --      0.0079                 0.0184                 0.0287
 IR Inten    --      0.8228                 1.7565                 1.4748

                      7                      8                      9
                      A                      A                      A
 Frequencies --    109.5095               111.4930               146.7376
 Red. masses --      3.1316                 4.3464                 2.6619
 Frc consts  --      0.0221                 0.0318                 0.0338
 IR Inten    --      1.2545                 1.3818                 2.4157

                     10                     11                     12
                      A                      A                      A
 Frequencies --    150.6787               171.8956               223.9750
 Red. masses --      2.2827                 2.4326                 1.7568
 Frc consts  --      0.0305                 0.0424                 0.0519
 IR Inten    --      6.7197                 2.0359                11.2524

                     13                     14                     15
                      A                      A                      A
 Frequencies --    234.5751               250.9850               267.9096
 Red. masses --      1.7965                 1.2957                 1.9118
 Frc consts  --      0.0582                 0.0481                 0.0808
 IR Inten    --     17.7997                 5.7566                16.2826

                     16                     17                     18
                      A                      A                      A
 Frequencies --    301.3965               304.1736               327.9056
 Red. masses --      4.6075                 2.5099                 2.5304
 Frc consts  --      0.2466                 0.1368                 0.1603
 IR Inten    --      0.9482                 5.3745                 4.4630

                     19                     20                     21
                      A                      A                      A
 Frequencies --    350.1555               375.5661               394.4152
 Red. masses --      2.8619                 2.8013                 4.5297
 Frc consts  --      0.2067                 0.2328                 0.4152
 IR Inten    --      1.1604                 1.9705                18.8338

                     22                     23                     24
                      A                      A                      A
 Frequencies --    402.4951               410.1618               427.5560
 Red. masses --      3.3632                 2.9790                 2.6089
 Frc consts  --      0.3210                 0.2953                 0.2810
 IR Inten    --      4.6851                19.1853                 2.6753

                     25                     26                     27
                      A                      A                      A
 Frequencies --    438.7753               490.5346               498.5139
 Red. masses --      5.4489                 5.5628                 4.5724
 Frc consts  --      0.6181                 0.7886                 0.6695
 IR Inten    --      9.6010                 1.1751                 2.7550

                     28                     29                     30
                      A                      A                      A
 Frequencies --    535.0330               601.9963               631.1992
 Red. masses --      3.8217                 3.3608                 3.5081
 Frc consts  --      0.6446                 0.7176                 0.8235
 IR Inten    --      5.6453                12.7380                 2.7013

                     31                     32                     33
                      A                      A                      A
 Frequencies --    661.6463               679.6160               697.5865
 Red. masses --      5.9318                 3.2146                 3.1846
 Frc consts  --      1.5300                 0.8748                 0.9131
 IR Inten    --      4.5447                20.0524                24.4400

                     34                     35                     36
                      A                      A                      A
 Frequencies --    723.8386               741.2075               747.9553
 Red. masses --      1.6489                 4.0425                 6.0485
 Frc consts  --      0.5090                 1.3085                 1.9937
 IR Inten    --    287.3314                10.3509                34.8702

                     37                     38                     39
                      A                      A                      A
 Frequencies --    753.8121               782.7511               786.5666
 Red. masses --      7.9863                 2.0701                 1.4766
 Frc consts  --      2.6738                 0.7473                 0.5383
 IR Inten    --     23.1515                 4.5260                35.1828

                     40                     41                     42
                      A                      A                      A
 Frequencies --    807.6081               840.7643               870.5335
 Red. masses --      1.6810                 1.4021                 2.7150
 Frc consts  --      0.6460                 0.5839                 1.2122
 IR Inten    --      6.3982                46.2259                 5.2356

                     43                     44                     45
                      A                      A                      A
 Frequencies --    876.3107               895.5641               913.1007
 Red. masses --      1.3312                 2.5023                 1.4324
 Frc consts  --      0.6023                 1.1825                 0.7036
 IR Inten    --      1.4524                 3.1994                 1.6112

                     46                     47                     48
                      A                      A                      A
 Frequencies --    938.1704               952.1266               972.1209
 Red. masses --      2.4890                 4.7269                 2.9931
 Frc consts  --      1.2907                 2.5247                 1.6665
 IR Inten    --      1.2322                16.3681                 0.9030

                     49                     50                     51
                      A                      A                      A
 Frequencies --   1019.8478              1042.4959              1061.6718
 Red. masses --      2.2189                 1.8853                 2.4525
 Frc consts  --      1.3597                 1.2072                 1.6287
 IR Inten    --      3.8676                 5.6833                 1.6689

                     52                     53                     54
                      A                      A                      A
 Frequencies --   1073.1200              1082.0882              1114.2790
 Red. masses --      2.0435                 1.6223                 1.9448
 Frc consts  --      1.3865                 1.1192                 1.4227
 IR Inten    --      3.0124                 5.9615                12.3182

                     55                     56                     57
                      A                      A                      A
 Frequencies --   1145.1863              1157.4277              1164.9855
 Red. masses --      1.9711                 1.9663                 1.3068
 Frc consts  --      1.5231                 1.5520                 1.0449
 IR Inten    --     23.9660                16.9782                 2.6613

                     58                     59                     60
                      A                      A                      A
 Frequencies --   1172.6759              1206.5049              1213.6530
 Red. masses --      1.7753                 2.5590                 2.3087
 Frc consts  --      1.4384                 2.1947                 2.0036
 IR Inten    --      1.7986                 4.7465                17.1151

                     61                     62                     63
                      A                      A                      A
 Frequencies --   1243.1313              1262.5754              1271.6380
 Red. masses --      1.5660                 1.4373                 1.3932
 Frc consts  --      1.4258                 1.3500                 1.3274
 IR Inten    --      6.0338                15.8977                16.7149

                     64                     65                     66
                      A                      A                      A
 Frequencies --   1312.5601              1314.9028              1326.3183
 Red. masses --      1.8402                 2.5076                 3.3335
 Frc consts  --      1.8680                 2.5545                 3.4550
 IR Inten    --     19.1314                 8.3602                74.9481

                     67                     68                     69
                      A                      A                      A
 Frequencies --   1349.9016              1375.4425              1379.3000
 Red. masses --      1.8383                 2.3896                 2.0874
 Frc consts  --      1.9737                 2.6635                 2.3398
 IR Inten    --      6.0580                 3.6611                83.2586

                     70                     71                     72
                      A                      A                      A
 Frequencies --   1399.3223              1405.3226              1410.2900
 Red. masses --      1.6204                 1.6183                 1.3315
 Frc consts  --      1.8695                 1.8830                 1.5603
 IR Inten    --     56.8789                92.8759                 9.1348

                     73                     74                     75
                      A                      A                      A
 Frequencies --   1422.7360              1440.2659              1449.4344
 Red. masses --      1.4105                 1.7363                 1.3701
 Frc consts  --      1.6822                 2.1221                 1.6959
 IR Inten    --     22.8183                37.8140                 4.7374

                     76                     77                     78
                      A                      A                      A
 Frequencies --   1454.6921              1482.9990              1492.0562
 Red. masses --      3.0434                 1.3203                 1.2860
 Frc consts  --      3.7944                 1.7108                 1.6867
 IR Inten    --     46.6226                 2.0763                 4.2595

                     79                     80                     81
                      A                      A                      A
 Frequencies --   1507.5261              1511.8363              1517.9306
 Red. masses --      1.1581                 2.0744                 1.3221
 Frc consts  --      1.5506                 2.7936                 1.7948
 IR Inten    --     13.3248                91.3949                21.8971

                     82                     83                     84
                      A                      A                      A
 Frequencies --   1519.9231              1521.5380              1523.4574
 Red. masses --      1.2639                 1.6148                 1.1204
 Frc consts  --      1.7203                 2.2026                 1.5321
 IR Inten    --     17.3280                 9.3127                11.1075

                     85                     86                     87
                      A                      A                      A
 Frequencies --   1532.1269              1537.8358              1555.2892
 Red. masses --      1.0495                 1.0585                 1.3148
 Frc consts  --      1.4515                 1.4749                 1.8739
 IR Inten    --      7.4031                 9.5253                 8.4371

                     88                     89                     90
                      A                      A                      A
 Frequencies --   1595.3846              1659.3484              1721.2714
 Red. masses --      4.9410                 1.2324                 7.4196
 Frc consts  --      7.4096                 1.9992                12.9517
 IR Inten    --      6.9016               174.2021               239.2977

                     91                     92                     93
                      A                      A                      A
 Frequencies --   1745.3704              1779.3950              3045.9239
 Red. masses --      7.2895                 8.9433                 1.0391
 Frc consts  --     13.0835                16.6837                 5.6801
 IR Inten    --    329.2299               139.8742                20.3720

                     94                     95                     96
                      A                      A                      A
 Frequencies --   3052.7966              3071.1720              3074.9470
 Red. masses --      1.0665                 1.0400                 1.0615
 Frc consts  --      5.8562                 5.7793                 5.9135
 IR Inten    --     30.4496                36.6418                13.2421

                     97                     98                     99
                      A                      A                      A
 Frequencies --   3077.8308              3098.9857              3117.9761
 Red. masses --      1.0661                 1.0941                 1.0760
 Frc consts  --      5.9502                 6.1910                 6.1633
 IR Inten    --     23.9086                 1.7007                 5.8145

                    100                    101                    102
                      A                      A                      A
 Frequencies --   3118.6350              3125.0950              3126.4899
 Red. masses --      1.0982                 1.0847                 1.1025
 Frc consts  --      6.2929                 6.2414                 6.3498
 IR Inten    --     42.4492                21.4424                44.9338

                    103                    104                    105
                      A                      A                      A
 Frequencies --   3139.1452              3143.9980              3184.4982
 Red. masses --      1.1008                 1.1029                 1.1031
 Frc consts  --      6.3910                 6.4234                 6.5908
 IR Inten    --     17.5468                 8.8302                 4.0779

                    106                    107                    108
                      A                      A                      A
 Frequencies --   3187.2375              3231.8629              3252.0431
 Red. masses --      1.1054                 1.0920                 1.0926
 Frc consts  --      6.6161                 6.7199                 6.8080
 IR Inten    --      2.3114                 8.2968                11.4505

                    109                    110                    111
                      A                      A                      A
 Frequencies --   3275.1684              3524.9088              3632.5178
 Red. masses --      1.1011                 1.0486                 1.0965
 Frc consts  --      6.9591                 7.6767                 8.5244
 IR Inten    --      4.5619                26.0011                21.6735

 - Thermochemistry -
 -------------------
 Temperature   298.150 Kelvin.  Pressure   1.00000 Atm.
 Atom     1 has atomic number  6 and mass  12.00000

 Molecular mass:   277.15388 amu.
 Principal axes and moments of inertia in atomic units:
                           1         2         3
     Eigenvalues --  2964.338897163.087577926.55705
           X            0.99994  -0.00199   0.01067
           Y            0.00227   0.99964  -0.02660
           Z           -0.01061   0.02662   0.99959
 This molecule is an asymmetric top.
 Rotational symmetry number  1.
 Warning -- assumption of classical behavior for rotation
           may cause significant error
 Rotational temperatures (Kelvin)      0.02922     0.01209     0.01093
 Rotational constants (GHZ):           0.60882     0.25195     0.22768
 Zero-point vibrational energy     861852.7 (Joules/Mol)
                                  205.98773 (Kcal/Mol)
 Warning -- explicit consideration of  29 degrees of freedom as
           vibrations may cause significant error
 Vibrational temperatures:     37.23    47.29    62.89    78.70   116.08
          (Kelvin)            140.24   157.56   160.41   211.12   216.79
                              247.32   322.25   337.50   361.11   385.46
                              433.64   437.64   471.78   503.80   540.36
                              567.48   579.10   590.13   615.16   631.30
                              705.77   717.25   769.79   866.14   908.15
                              951.96   977.82  1003.67  1041.44  1066.43
                             1076.14  1084.57  1126.20  1131.69  1161.97
                             1209.67  1252.50  1260.82  1288.52  1313.75
                             1349.82  1369.90  1398.67  1467.33  1499.92
                             1527.51  1543.98  1556.88  1603.20  1647.67
                             1665.28  1676.15  1687.22  1735.89  1746.18
                             1788.59  1816.56  1829.60  1888.48  1891.85
                             1908.28  1942.21  1978.96  1984.51  2013.31
                             2021.95  2029.09  2047.00  2072.22  2085.41
                             2092.98  2133.70  2146.74  2168.99  2175.20
                             2183.96  2186.83  2189.15  2191.92  2204.39
                             2212.60  2237.71  2295.40  2387.43  2476.53
                             2511.20  2560.15  4382.41  4392.29  4418.73
                             4424.16  4428.31  4458.75  4486.07  4487.02
                             4496.31  4498.32  4516.53  4523.51  4581.78
                             4585.72  4649.93  4678.96  4712.24  5071.56
                             5226.38

 Zero-point correction=                           0.328262 (Hartree/Particle)
 Thermal correction to Energy=                    0.347602
 Thermal correction to Enthalpy=                  0.348547
 Thermal correction to Gibbs Free Energy=         0.279588
 Sum of electronic and zero-point Energies=           -930.804771
 Sum of electronic and thermal Energies=              -930.785431
 Sum of electronic and thermal Enthalpies=            -930.784487
 Sum of electronic and thermal Free Energies=         -930.853445

                     E (Thermal)             CV                S
                      KCal/Mol        Cal/Mol-Kelvin    Cal/Mol-Kelvin
 Total                  218.124             73.053            145.134
 Electronic               0.000              0.000              0.000
 Translational            0.889              2.981             42.757
 Rotational               0.889              2.981             33.487
 Vibrational            216.346             67.092             68.891
 Vibration     1          0.593              1.985              6.123
 Vibration     2          0.594              1.983              5.648
 Vibration     3          0.595              1.980              5.083
 Vibration     4          0.596              1.976              4.640
 Vibration     5          0.600              1.962              3.874
 Vibration     6          0.603              1.951              3.504
 Vibration     7          0.606              1.942              3.278
 Vibration     8          0.607              1.940              3.243
 Vibration     9          0.617              1.906              2.714
 Vibration    10          0.618              1.902              2.664
 Vibration    11          0.626              1.877              2.415
 Vibration    12          0.649              1.805              1.927
 Vibration    13          0.654              1.788              1.844
 Vibration    14          0.663              1.761              1.724
 Vibration    15          0.673              1.732              1.610
 Vibration    16          0.693              1.671              1.409
 Vibration    17          0.695              1.666              1.394
 Vibration    18          0.711              1.620              1.270
 Vibration    19          0.727              1.575              1.165
 Vibration    20          0.746              1.522              1.057
 Vibration    21          0.761              1.482              0.983
 Vibration    22          0.768              1.465              0.954
 Vibration    23          0.774              1.448              0.926
 Vibration    24          0.789              1.410              0.867
 Vibration    25          0.799              1.386              0.830
 Vibration    26          0.846              1.271              0.682
 Vibration    27          0.854              1.253              0.662
 Vibration    28          0.890              1.173              0.576
 Vibration    29          0.960              1.028              0.446

 Optimization completed.
    -- Stationary point found.
 Normal termination of Gaussian 16 at Mon Dec 14 18:13:55 2020.

 ----------------------------------------------------------------------
 # B3LYP/6-311++G(d,p) empiricaldispersion=gd3bj scf=xqc pop=npa geom=c
 heck
 ----------------------------------------------------------------------

 ----------------------------------------
 CID_103002427_JID_10458_Energie_neutraal
 ----------------------------------------
 Structure from the checkpoint file:  "JID_10458.chk"
 Charge =  0 Multiplicity = 1

 SCF Done:  E(RB3LYP) =  -931.395583153     A.U. after   16 cycles
 Normal termination of Gaussian 16 at Mon Dec 14 18:22:57 2020.

 ----------------------------------------------------------------------
 # B3LYP/6-311++G(d,p) empiricaldispersion=gd3bj scf=xqc pop=npa geom=c
 heck
 ----------------------------------------------------------------------

 --------------------------------------
 CID_103002427_JID_10458_Energie_kation
 --------------------------------------
 Structure from the checkpoint file:  "JID_10458.chk"
 Charge =  1 Multiplicity = 2

 SCF Done:  E(UB3LYP) =  -931.116918028     A.U. after   26 cycles
 Normal termination of Gaussian 16 at Mon Dec 14 18:43:49 2020.
 Gaussian 16:  ES64L-G16RevA.03 25-Dec-2016

 ----------------------------------------------------------------------
 # B3LYP/6-311++G(d,p) empiricaldispersion=gd3bj scf=xqc pop=npa geom=c
 heck
 ----------------------------------------------------------------------

 -------------------------------------
 CID_103002427_JID_10458_Energie_anion
 -------------------------------------
 Structure from the checkpoint file:  "JID_10458.chk"
 Charge = -1 Multiplicity = 2

                         Standard orientation:
 ---------------------------------------------------------------------
 Center     Atomic      Atomic             Coordinates (Angstroms)
 Number     Number       Type             X           Y           Z
 ---------------------------------------------------------------------
      1          6           0       -4.835415    0.312705    0.242960
      2          6           0       -4.215927   -0.985581   -0.277144
      3          6           0       -2.986342   -0.766962   -1.163062
      4          7           0       -1.888222   -0.091121   -0.458190
      5          6           0       -1.682271    1.274410   -0.615669
      6          6           0       -0.693765    1.934183    0.031856
      7          6           0        0.175091    1.189741    0.947534
      8          8           0        1.079613    1.728544    1.576572
      9          7           0       -0.089701   -0.183256    1.046563
     10          6           0       -1.101703   -0.864708    0.368087
     11          8           0       -1.259470   -2.078480    0.485902
     12          6           0        0.801290   -0.996886    1.885001
     13          6           0        1.837117   -1.774874    1.049966
     14          6           0        2.662487   -0.895492    0.163529
     15          6           0        3.829668   -0.200833    0.439736
     16          6           0        4.112519    0.525272   -0.732844
     17          7           0        3.201556    0.307906   -1.681502
     18          7           0        2.324353   -0.559761   -1.120231
     19          6           0        1.190926   -0.984875   -1.917147
     20          7           0       -0.446487    3.304566   -0.034838
     21          1           0       -4.126033    0.875697    0.859076
     22          1           0       -5.716957    0.105536    0.858339
     23          1           0       -5.151697    0.963403   -0.582250
     24          1           0       -3.923785   -1.633226    0.556169
     25          1           0       -4.953261   -1.544716   -0.867864
     26          1           0       -2.604068   -1.725345   -1.519516
     27          1           0       -3.235933   -0.148270   -2.030956
     28          1           0       -2.368357    1.768985   -1.292381
     29          1           0        1.299449   -0.301615    2.558664
     30          1           0        0.183339   -1.694314    2.452537
     31          1           0        2.501582   -2.293639    1.749812
     32          1           0        1.316707   -2.548091    0.478375
     33          1           0        4.381136   -0.216372    1.368762
     34          1           0        4.941892    1.191225   -0.932591
     35          1           0        0.476537   -0.163400   -2.032236
     36          1           0        1.546335   -1.284899   -2.905397
     37          1           0        0.691766   -1.827097   -1.438231
     38          1           0       -0.550514    3.713515   -0.955332
     39          1           0        0.458175    3.517176    0.375795
 ---------------------------------------------------------------------

 SCF Done:  E(UB3LYP) =  -931.394619988     A.U. after   32 cycles

 The electronic state is 2-A.
 Alpha  occ. eigenvalues --  -18.98460 -18.96789 -14.28789 -14.25435 -14.25023
 Alpha  occ. eigenvalues --  -14.22399 -14.19678 -10.19575 -10.14612 -10.11229
 Alpha  occ. eigenvalues --  -10.10864 -10.10661 -10.10400 -10.09081 -10.08852
 Alpha  occ. eigenvalues --  -10.08504 -10.08430 -10.07169 -10.06581 -10.06266
 Alpha  occ. eigenvalues --   -0.96047  -0.94653  -0.92192  -0.85622  -0.82625
 Alpha  occ. eigenvalues --   -0.79233  -0.74237  -0.71345  -0.69064  -0.65410
 Alpha  occ. eigenvalues --   -0.63826  -0.59949  -0.59794  -0.57316  -0.53227
 Alpha  occ. eigenvalues --   -0.52048  -0.50098  -0.49309  -0.46017  -0.45308
 Alpha  occ. eigenvalues --   -0.42004  -0.40615  -0.39776  -0.37678  -0.36948
 Alpha  occ. eigenvalues --   -0.36226  -0.35925  -0.35511  -0.35422  -0.34580
 Alpha  occ. eigenvalues --   -0.33101  -0.32913  -0.32534  -0.31850  -0.30675
 Alpha  occ. eigenvalues --   -0.30462  -0.29600  -0.29467  -0.28675  -0.28339
 Alpha  occ. eigenvalues --   -0.27950  -0.26392  -0.25660  -0.25280  -0.24463
 Alpha  occ. eigenvalues --   -0.22997  -0.19331  -0.18873  -0.17916  -0.16681
 Alpha  occ. eigenvalues --   -0.15191  -0.15043  -0.13834  -0.08674   0.04193
 Alpha virt. eigenvalues --    0.06678   0.07115   0.07950   0.08211   0.08548
 Alpha virt. eigenvalues --    0.08968   0.09449   0.10067   0.10344   0.10785
 Alpha virt. eigenvalues --    0.11386   0.11495   0.11917   0.12441   0.12645

  Beta  occ. eigenvalues --  -18.98464 -18.96598 -14.28788 -14.25413 -14.24952
  Beta  occ. eigenvalues --  -14.22397 -14.19657 -10.19579 -10.14420 -10.11229
  Beta  occ. eigenvalues --  -10.10869 -10.10650 -10.10373 -10.09067 -10.08851
  Beta  occ. eigenvalues --  -10.08427 -10.08201 -10.07160 -10.06574 -10.06265
  Beta  occ. eigenvalues --   -0.95985  -0.94651  -0.91882  -0.85505  -0.82464
  Beta  occ. eigenvalues --   -0.79143  -0.74230  -0.71326  -0.69008  -0.65345
  Beta  occ. eigenvalues --   -0.63579  -0.59935  -0.59721  -0.57100  -0.53054
  Beta  occ. eigenvalues --   -0.51945  -0.50083  -0.49212  -0.45947  -0.45210
  Beta  occ. eigenvalues --   -0.41928  -0.40569  -0.39621  -0.37635  -0.36840
  Beta  occ. eigenvalues --   -0.36135  -0.35842  -0.35451  -0.35284  -0.34476
  Beta  occ. eigenvalues --   -0.33038  -0.32806  -0.32457  -0.31772  -0.30623
  Beta  occ. eigenvalues --   -0.30389  -0.29513  -0.29412  -0.28313  -0.28155
  Beta  occ. eigenvalues --   -0.27637  -0.26348  -0.25607  -0.25239  -0.24389
  Beta  occ. eigenvalues --   -0.22436  -0.19322  -0.18697  -0.17866  -0.16158
  Beta  occ. eigenvalues --   -0.15183  -0.14888  -0.13733  -0.07903
  Beta virt. eigenvalues --    0.06804   0.07087   0.08012   0.08237   0.08682
  Beta virt. eigenvalues --    0.09089   0.09462   0.09780   0.10223   0.10345
  Beta virt. eigenvalues --    0.10847   0.11398   0.11671   0.12240   0.12693

 Mulliken charges and spin densities:
               1          2
     1  C   -0.075340  -0.481728
     2  C   -0.189931  -0.042847
     3  C    0.603312  -0.557139
     4  N    0.112101   0.042364
     5  C   -1.210554   1.340282
     6  C    1.102768  -1.343237
     7  C   -0.060798  -0.194643
     8  O   -0.348940   0.067503
     9  N    0.099126   0.024569
    10  C   -0.167709  -0.333218
    11  O   -0.315667   0.012582
    12  C    0.110287  -0.104885
    13  C   -0.699963  -0.079839
    14  C    0.054617   0.012193
    15  C    0.118448  -0.005584
    16  C   -0.215917  -0.001108
    17  N   -0.238437  -0.016084
    18  N    0.295175   0.027698
    19  C   -0.162895  -0.234934
    20  N   -0.407172   0.046679
    21  H    0.158482   0.014401
    22  H    0.058262   0.067868
    23  H    0.054536   0.084634
    24  H    0.148239   0.026903
    25  H   -0.264799   0.424486
    26  H    0.024590   0.150149
    27  H   -0.732197   0.928155
    28  H   -0.276736   0.430535
    29  H    0.236702  -0.024667
    30  H    0.134885   0.042842
    31  H    0.061542   0.105245
    32  H    0.186479   0.025676
    33  H    0.096510   0.042322
    34  H    0.114409   0.019581
    35  H    0.071514   0.171412
    36  H    0.032635   0.159356
    37  H    0.191935  -0.045435
    38  H    0.011652   0.222431
    39  H    0.288847  -0.024517
 Sum of Mulliken charges =  -1.00000   1.00000

 Dipole moment (field-independent basis, Debye):
    X=              3.5754    Y=             -2.7205    Z=              4.1352  Tot=              6.1061
 Quadrupole moment (field-independent basis, Debye-Ang):
   XX=           -176.3913   YY=           -154.2102   ZZ=           -156.4919
   XY=             -3.6714   XZ=             -9.2279   YZ=             -0.8367

 Summary of Natural Population Analysis:

                                       Natural Population
                Natural  -----------------------------------------------
    Atom  No    Charge         Core      Valence    Rydberg      Total
 -----------------------------------------------------------------------
      C    1   -0.28927      0.99966     2.28467    0.00494     3.28927
      C    2   -0.19717      0.99963     2.18995    0.00759     3.19717
      C    3   -0.07978      0.99960     2.06743    0.01275     3.07978
      N    4   -0.23698      0.99963     2.72619    0.01116     3.73698
      C    5    0.03980      0.99948     1.94828    0.01243     2.96020
      C    6    0.02383      0.99947     1.96488    0.01182     2.97617
      C    7    0.34559      0.99960     1.63169    0.02311     2.65441
      O    8   -0.31246      0.99988     3.30749    0.00509     4.31246
      N    9   -0.25041      0.99961     2.74235    0.00845     3.75041
      C   10    0.40826      0.99965     1.56908    0.02301     2.59174
      O   11   -0.35040      0.99988     3.34606    0.00445     4.35040
      C   12   -0.08373      0.99961     2.07398    0.01014     3.08373
      C   13   -0.21224      0.99959     2.20511    0.00754     3.21224
      C   14    0.08952      0.99952     1.89929    0.01167     2.91048
      C   15   -0.16100      0.99950     2.15322    0.00828     3.16100
      C   16   -0.01421      0.99964     1.99994    0.01463     3.01421
      N   17   -0.15778      0.99974     2.64615    0.01190     3.65778
      N   18   -0.10832      0.99962     2.59640    0.01231     3.60832
      C   19   -0.17892      0.99963     2.17111    0.00818     3.17892
      N   20   -0.40571      0.99972     2.89547    0.01052     3.90571
      H   21    0.10224      0.00000     0.39684    0.00091     0.39776
      H   22    0.09562      0.00000     0.40372    0.00066     0.40438
      H   23    0.09701      0.00000     0.40210    0.00089     0.40299
      H   24    0.10264      0.00000     0.39631    0.00104     0.39736
      H   25    0.09696      0.00000     0.40180    0.00124     0.40304
      H   26    0.10763      0.00000     0.39103    0.00134     0.39237
      H   27    0.10053      0.00000     0.39534    0.00413     0.39947
      H   28    0.09953      0.00000     0.39917    0.00130     0.40047
      H   29    0.11355      0.00000     0.38513    0.00132     0.38645
      H   30    0.10539      0.00000     0.39358    0.00103     0.39461
      H   31    0.10585      0.00000     0.39305    0.00110     0.39415
      H   32    0.11297      0.00000     0.38574    0.00129     0.38703
      H   33    0.10516      0.00000     0.39407    0.00077     0.39484
      H   34    0.09386      0.00000     0.40535    0.00079     0.40614
      H   35    0.10871      0.00000     0.38958    0.00172     0.39129
      H   36    0.10126      0.00000     0.39770    0.00104     0.39874
      H   37    0.10439      0.00000     0.39449    0.00112     0.39561
      H   38    0.18373      0.00000     0.31452    0.00174     0.31627
      H   39    0.19433      0.00000     0.30387    0.00180     0.30567
 =======================================================================
   * Total *    0.00000     19.99267    53.76213    0.24521    74.00000

 Normal termination of Gaussian 16 at Mon Dec 14 19:08:57 2020.
