 Gaussian 16, Revision A.03,

 -----------------------------------------------------------
 # opt freq B3LYP/6-31G(d) empiricaldispersion=gd3bj scf=xqc
 -----------------------------------------------------------

 -------------------------------
 CID_146441893_JID_2399_neutraal
 -------------------------------
 Symbolic Z-matrix:
 Charge =  0 Multiplicity = 1

 SCF Done:  E(RB3LYP) =  -877.717099132     A.U. after   14 cycles
 SCF Done:  E(RB3LYP) =  -877.724853291     A.U. after   13 cycles
 SCF Done:  E(RB3LYP) =  -877.726475092     A.U. after   13 cycles
 SCF Done:  E(RB3LYP) =  -877.727251919     A.U. after   12 cycles
 SCF Done:  E(RB3LYP) =  -877.727520697     A.U. after   14 cycles
 SCF Done:  E(RB3LYP) =  -877.727595218     A.U. after   12 cycles
 SCF Done:  E(RB3LYP) =  -877.728021133     A.U. after   12 cycles
 SCF Done:  E(RB3LYP) =  -877.728269801     A.U. after   12 cycles
 SCF Done:  E(RB3LYP) =  -877.728365583     A.U. after   12 cycles
 SCF Done:  E(RB3LYP) =  -877.728394341     A.U. after   11 cycles
 SCF Done:  E(RB3LYP) =  -877.728414104     A.U. after   11 cycles
 SCF Done:  E(RB3LYP) =  -877.728415906     A.U. after    8 cycles
 SCF Done:  E(RB3LYP) =  -877.728416112     A.U. after    7 cycles
 SCF Done:  E(RB3LYP) =  -877.728416183     A.U. after    7 cycles
 Optimization completed.
    -- Stationary point found.
 Normal termination of Gaussian 16 at Wed Dec  9 17:20:55 2020.

 --------------------------------------------------------------------
 #N Geom=AllCheck Guess=TCheck SCRF=Check GenChk RB3LYP/6-31G(d) Freq
 --------------------------------------------------------------------

 Structure from the checkpoint file:  "JID_2399.chk"
 -------------------------------
 CID_146441893_JID_2399_neutraal
 -------------------------------
 Charge =  0 Multiplicity = 1

 SCF Done:  E(RB3LYP) =  -877.728416183     A.U. after    1 cycles

  Exact polarizability: 168.219   2.101 117.394   7.354   0.809  70.523
 Approx polarizability: 236.347   6.505 196.817  20.131   4.116 111.881

                      1                      2                      3
                      A                      A                      A
 Frequencies --     25.5120                52.4920               110.1695
 Red. masses --      5.0486                 3.9894                 4.2304
 Frc consts  --      0.0019                 0.0065                 0.0303
 IR Inten    --      2.4607                 0.0952                 1.0297

                      4                      5                      6
                      A                      A                      A
 Frequencies --    122.1886               180.7253               187.6985
 Red. masses --      1.3669                 2.3729                 4.6902
 Frc consts  --      0.0120                 0.0457                 0.0974
 IR Inten    --      1.1131                 3.1718                 0.8941

                      7                      8                      9
                      A                      A                      A
 Frequencies --    254.1061               262.1250               316.3179
 Red. masses --      3.1043                 3.8711                 2.4253
 Frc consts  --      0.1181                 0.1567                 0.1430
 IR Inten    --      2.9681                 0.3177                 0.8193

                     10                     11                     12
                      A                      A                      A
 Frequencies --    325.8357               389.6169               413.1843
 Red. masses --      4.3320                 4.7454                 3.5928
 Frc consts  --      0.2710                 0.4244                 0.3614
 IR Inten    --      2.4448                 9.3985                 3.4162

                     13                     14                     15
                      A                      A                      A
 Frequencies --    467.6032               497.6593               527.3686
 Red. masses --      6.2062                 4.3639                 4.2398
 Frc consts  --      0.7995                 0.6368                 0.6947
 IR Inten    --      0.8797                 8.3298                 3.4259

                     16                     17                     18
                      A                      A                      A
 Frequencies --    563.7503               637.0379               741.1467
 Red. masses --      3.6766                 7.3002                 6.7791
 Frc consts  --      0.6884                 1.7455                 2.1940
 IR Inten    --      4.9891                 2.4373                20.2881

                     19                     20                     21
                      A                      A                      A
 Frequencies --    749.9979               773.5824               774.7375
 Red. masses --      3.7267                 1.3698                 1.0398
 Frc consts  --      1.2351                 0.4830                 0.3677
 IR Inten    --      5.0563                38.0852                 1.8052

                     22                     23                     24
                      A                      A                      A
 Frequencies --    828.3033               892.6106               924.0929
 Red. masses --      3.0679                 1.3041                 1.4553
 Frc consts  --      1.2402                 0.6122                 0.7322
 IR Inten    --     47.1569                 0.3182                 3.1356

                     25                     26                     27
                      A                      A                      A
 Frequencies --    954.9581               972.0295              1001.2984
 Red. masses --      3.0217                 1.3844                 1.2865
 Frc consts  --      1.6236                 0.7707                 0.7600
 IR Inten    --      4.0362                 0.1178                 0.1039

                     28                     29                     30
                      A                      A                      A
 Frequencies --   1007.8740              1009.1380              1063.5746
 Red. masses --      6.7339                 3.5080                 1.3594
 Frc consts  --      4.0302                 2.1048                 0.9060
 IR Inten    --      4.7043                15.2162                13.4913

                     31                     32                     33
                      A                      A                      A
 Frequencies --   1075.8597              1094.2400              1101.4564
 Red. masses --      2.5767                 1.4376                 4.3580
 Frc consts  --      1.7572                 1.0142                 3.1151
 IR Inten    --      6.4576                 1.9201                89.0022

                     34                     35                     36
                      A                      A                      A
 Frequencies --   1122.1263              1152.9722              1188.1061
 Red. masses --      1.6916                 3.0953                 1.1312
 Frc consts  --      1.2550                 2.4243                 0.9408
 IR Inten    --      4.3708               123.6525                 3.5806

                     37                     38                     39
                      A                      A                      A
 Frequencies --   1190.8960              1196.8207              1203.6214
 Red. masses --      1.2670                 1.2701                 1.8612
 Frc consts  --      1.0587                 1.0719                 1.5886
 IR Inten    --      1.7018                 1.3344                84.5539

                     40                     41                     42
                      A                      A                      A
 Frequencies --   1237.6558              1306.0482              1318.7123
 Red. masses --      1.6595                 3.8833                 3.2170
 Frc consts  --      1.4977                 3.9027                 3.2961
 IR Inten    --     45.7472                14.5911                39.0457

                     43                     44                     45
                      A                      A                      A
 Frequencies --   1329.5684              1459.1647              1462.2545
 Red. masses --      1.8220                 1.1064                 1.9504
 Frc consts  --      1.8977                 1.3879                 2.4571
 IR Inten    --      9.0160                 6.8480                50.1490

                     46                     47                     48
                      A                      A                      A
 Frequencies --   1495.3385              1503.6607              1510.1428
 Red. masses --      1.1852                 1.7609                 1.5230
 Frc consts  --      1.5614                 2.3458                 2.0463
 IR Inten    --      6.5627                36.1405                32.1659

                     49                     50                     51
                      A                      A                      A
 Frequencies --   1514.3502              1538.7761              1617.0558
 Red. masses --      1.0696                 1.0508                 5.6629
 Frc consts  --      1.4452                 1.4659                 8.7245
 IR Inten    --      1.4030                 7.8948                25.4530

                     52                     53                     54
                      A                      A                      A
 Frequencies --   1640.1022              3035.7481              3097.3477
 Red. masses --      5.0784                 1.0338                 1.1046
 Frc consts  --      8.0486                 5.6131                 6.2436
 IR Inten    --     97.5633                44.5344                33.6122

                     55                     56                     57
                      A                      A                      A
 Frequencies --   3154.4357              3161.2468              3163.2877
 Red. masses --      1.1018                 1.0574                 1.0553
 Frc consts  --      6.4597                 6.2261                 6.2215
 IR Inten    --     32.8169                11.6047                 9.4960

                     58                     59                     60
                      A                      A                      A
 Frequencies --   3177.2902              3196.1617              3215.5368
 Red. masses --      1.0892                 1.0881                 1.0926
 Frc consts  --      6.4786                 6.5491                 6.6564
 IR Inten    --     21.8325                 9.7632                10.8093

                     61                     62                     63
                      A                      A                      A
 Frequencies --   3222.7687              3258.7459              3264.6954
 Red. masses --      1.0977                 1.1166                 1.1142
 Frc consts  --      6.7172                 6.9863                 6.9967
 IR Inten    --     14.6552                 0.3242                 2.9863

 - Thermochemistry -
 -------------------
 Temperature   298.150 Kelvin.  Pressure   1.00000 Atm.
 Atom     1 has atomic number  6 and mass  12.00000

 Molecular mass:   181.05614 amu.
 Principal axes and moments of inertia in atomic units:
                           1         2         3
     Eigenvalues --   938.257523602.822284172.86636
           X            0.99997  -0.00090  -0.00830
           Y            0.00070   0.99971  -0.02399
           Z            0.00832   0.02398   0.99968
 This molecule is an asymmetric top.
 Rotational symmetry number  1.
 Warning -- assumption of classical behavior for rotation
           may cause significant error
 Rotational temperatures (Kelvin)      0.09231     0.02404     0.02076
 Rotational constants (GHZ):           1.92350     0.50092     0.43249
 Zero-point vibrational energy     485880.8 (Joules/Mol)
                                  116.12830 (Kcal/Mol)
 Warning -- explicit consideration of  16 degrees of freedom as
           vibrations may cause significant error
 Vibrational temperatures:     36.71    75.52   158.51   175.80   260.02
          (Kelvin)            270.06   365.60   377.14   455.11   468.80
                              560.57   594.48   672.78   716.02   758.77
                              811.11   916.56  1066.34  1079.08  1113.01
                             1114.67  1191.74  1284.27  1329.56  1373.97
                             1398.53  1440.65  1450.11  1451.92  1530.25
                             1547.92  1574.37  1584.75  1614.49  1658.87
                             1709.42  1713.43  1721.96  1731.74  1780.71
                             1879.11  1897.33  1912.95  2099.41  2103.86
                             2151.46  2163.43  2172.76  2178.81  2213.96
                             2326.58  2359.74  4367.76  4456.39  4538.53
                             4548.33  4551.27  4571.41  4598.56  4626.44
                             4636.85  4688.61  4697.17

 Zero-point correction=                           0.185062 (Hartree/Particle)
 Thermal correction to Energy=                    0.196585
 Thermal correction to Enthalpy=                  0.197529
 Thermal correction to Gibbs Free Energy=         0.146339
 Sum of electronic and zero-point Energies=           -877.543354
 Sum of electronic and thermal Energies=              -877.531831
 Sum of electronic and thermal Enthalpies=            -877.530887
 Sum of electronic and thermal Free Energies=         -877.582078

                     E (Thermal)             CV                S
                      KCal/Mol        Cal/Mol-Kelvin    Cal/Mol-Kelvin
 Total                  123.359             43.194            107.740
 Electronic               0.000              0.000              0.000
 Translational            0.889              2.981             41.488
 Rotational               0.889              2.981             31.023
 Vibrational            121.582             37.232             35.230
 Vibration     1          0.593              1.985              6.151
 Vibration     2          0.596              1.977              4.721
 Vibration     3          0.606              1.941              3.266
 Vibration     4          0.610              1.931              3.065
 Vibration     5          0.630              1.866              2.321
 Vibration     6          0.632              1.857              2.250
 Vibration     7          0.665              1.756              1.702
 Vibration     8          0.669              1.742              1.648
 Vibration     9          0.703              1.642              1.329
 Vibration    10          0.710              1.624              1.281
 Vibration    11          0.758              1.492              1.002
 Vibration    12          0.777              1.442              0.915
 Vibration    13          0.825              1.322              0.744
 Vibration    14          0.853              1.255              0.664
 Vibration    15          0.882              1.189              0.593
 Vibration    16          0.920              1.110              0.516

                           ! Non-Optimized Parameters !
 Normal termination of Gaussian 16 at Wed Dec  9 17:26:06 2020.

 ----------------------------------------------------------------------
 # B3LYP/6-311++G(d,p) empiricaldispersion=gd3bj scf=xqc pop=npa geom=c
 heck
 ----------------------------------------------------------------------

 ---------------------------------------
 CID_146441893_JID_2399_Energie_neutraal
 ---------------------------------------
 Structure from the checkpoint file:  "JID_2399.chk"
 Charge =  0 Multiplicity = 1

 SCF Done:  E(RB3LYP) =  -877.884445671     A.U. after   15 cycles
 Normal termination of Gaussian 16 at Wed Dec  9 17:28:46 2020.

 ----------------------------------------------------------------------
 # B3LYP/6-311++G(d,p) empiricaldispersion=gd3bj scf=xqc pop=npa geom=c
 heck
 ----------------------------------------------------------------------

 -------------------------------------
 CID_146441893_JID_2399_Energie_kation
 -------------------------------------
 Structure from the checkpoint file:  "JID_2399.chk"
 Charge =  1 Multiplicity = 2

 SCF Done:  E(UB3LYP) =  -877.595531977     A.U. after   22 cycles
 Normal termination of Gaussian 16 at Wed Dec  9 17:33:56 2020.
 Gaussian 16:  ES64L-G16RevA.03 25-Dec-2016

 ----------------------------------------------------------------------
 # B3LYP/6-311++G(d,p) empiricaldispersion=gd3bj scf=xqc pop=npa geom=c
 heck
 ----------------------------------------------------------------------

 ------------------------------------
 CID_146441893_JID_2399_Energie_anion
 ------------------------------------
 Structure from the checkpoint file:  "JID_2399.chk"
 Charge = -1 Multiplicity = 2

                         Standard orientation:
 ---------------------------------------------------------------------
 Center     Atomic      Atomic             Coordinates (Angstroms)
 Number     Number       Type             X           Y           Z
 ---------------------------------------------------------------------
      1          6           0       -3.372556   -1.029911    0.880896
      2          8           0       -3.021147   -0.242219   -0.253841
      3          6           0       -1.752630    0.328023   -0.190521
      4          6           0       -1.660995    1.732981   -0.678857
      5          6           0       -1.515841    1.425331    0.805292
      6         16           0       -0.539497   -0.991376   -0.636851
      7          6           0        1.083065   -0.399891   -0.199936
      8          6           0        2.071500   -1.374333    0.025527
      9          6           0        3.369244   -0.952744    0.281956
     10          6           0        3.643603    0.416645    0.332568
     11          6           0        2.590439    1.299259    0.114877
     12          7           0        1.338178    0.910627   -0.161616
     13          1           0       -4.386924   -1.390418    0.698165
     14          1           0       -3.356056   -0.431028    1.800687
     15          1           0       -2.695339   -1.883724    1.001016
     16          1           0       -0.755419    2.023836   -1.198554
     17          1           0       -2.587382    2.178976   -1.028646
     18          1           0       -2.351323    1.656856    1.460439
     19          1           0       -0.530619    1.545724    1.237867
     20          1           0        1.813747   -2.428089    0.004493
     21          1           0        4.155421   -1.682332    0.455054
     22          1           0        4.641866    0.788417    0.538326
     23          1           0        2.750943    2.374990    0.151998
 ---------------------------------------------------------------------

 SCF Done:  E(UB3LYP) =  -877.871927731     A.U. after   33 cycles
 SCF Done:  E(UB3LYP) =  -877.872133867     a.u. after    5 cycles

 The electronic state is 2-A.
 Alpha  occ. eigenvalues --  -88.73120 -19.03664 -14.17594 -10.14769 -10.11121
 Alpha  occ. eigenvalues --  -10.10932 -10.08410 -10.06392 -10.06327 -10.05954
 Alpha  occ. eigenvalues --  -10.05606 -10.05396  -7.81771  -5.78169  -5.77756
 Alpha  occ. eigenvalues --   -5.77172  -0.95199  -0.82484  -0.75053  -0.68032
 Alpha  occ. eigenvalues --   -0.67009  -0.60695  -0.58987  -0.51191  -0.50026
 Alpha  occ. eigenvalues --   -0.49788  -0.45345  -0.40262  -0.39729  -0.38288
 Alpha  occ. eigenvalues --   -0.36044  -0.35272  -0.33889  -0.33505  -0.30830
 Alpha  occ. eigenvalues --   -0.29185  -0.28121  -0.26908  -0.26007  -0.25191
 Alpha  occ. eigenvalues --   -0.23196  -0.20638  -0.20234  -0.17367  -0.16327
 Alpha  occ. eigenvalues --   -0.15798  -0.13944  -0.10111   0.05003
 Alpha virt. eigenvalues --    0.06686   0.07328   0.08323   0.08909   0.09398
 Alpha virt. eigenvalues --    0.09627   0.09787   0.10990   0.11728   0.12607
 Alpha virt. eigenvalues --    0.13044   0.13677   0.13919   0.14941   0.15857

  Beta  occ. eigenvalues --  -88.73116 -19.03664 -14.17309 -10.14740 -10.11035
  Beta  occ. eigenvalues --  -10.10901 -10.08375 -10.06365 -10.06326 -10.05968
  Beta  occ. eigenvalues --  -10.05392 -10.05331  -7.81767  -5.78159  -5.77758
  Beta  occ. eigenvalues --   -5.77168  -0.95191  -0.82091  -0.75013  -0.67643
  Beta  occ. eigenvalues --   -0.66835  -0.60608  -0.58902  -0.50936  -0.49984
  Beta  occ. eigenvalues --   -0.49531  -0.45250  -0.40167  -0.39657  -0.38203
  Beta  occ. eigenvalues --   -0.35894  -0.35243  -0.33766  -0.33466  -0.30764
  Beta  occ. eigenvalues --   -0.28566  -0.27884  -0.26804  -0.25857  -0.25129
  Beta  occ. eigenvalues --   -0.23122  -0.20590  -0.20105  -0.16414  -0.16020
  Beta  occ. eigenvalues --   -0.15429  -0.13621  -0.09855
  Beta virt. eigenvalues --    0.07316   0.07774   0.08694   0.09227   0.09410
  Beta virt. eigenvalues --    0.09544   0.10039   0.10089   0.11354   0.11998
  Beta virt. eigenvalues --    0.12739   0.13177   0.13602   0.14060   0.14933

 Mulliken charges and spin densities:
               1          2
     1  C    0.593123  -0.838907
     2  O   -0.099330   0.036473
     3  C   -0.573265   0.145349
     4  C   -0.210832   0.048796
     5  C    0.298248  -0.424890
     6  S    0.057267  -0.448149
     7  C    0.755222  -0.826053
     8  C   -0.904455   1.026008
     9  C    0.410416  -0.800857
    10  C    0.211910  -0.244922
    11  C   -0.270843   0.140623
    12  N    0.020450   0.182454
    13  H   -0.217252   0.365205
    14  H   -0.196312   0.316472
    15  H   -0.156880   0.293154
    16  H    0.184372   0.024602
    17  H    0.146570   0.001895
    18  H   -0.262896   0.429584
    19  H    0.107266   0.060789
    20  H   -0.124138   0.303540
    21  H   -0.379533   0.520773
    22  H   -0.437318   0.590014
    23  H    0.048212   0.098046
 Sum of Mulliken charges =  -1.00000   1.00000

 Dipole moment (field-independent basis, Debye):
    X=             -1.7841    Y=              1.3121    Z=             -1.7034  Tot=              2.7940
 Quadrupole moment (field-independent basis, Debye-Ang):
   XX=           -152.9799   YY=           -104.5325   ZZ=           -103.1241
   XY=              0.2075   XZ=              2.3142   YZ=              0.6326

 Summary of Natural Population Analysis:

                                       Natural Population
                Natural  -----------------------------------------------
    Atom  No    Charge         Core      Valence    Rydberg      Total
 -----------------------------------------------------------------------
      C    1   -0.10121      0.99959     2.09251    0.00911     3.10121
      O    2   -0.29736      0.99986     3.28656    0.01094     4.29736
      C    3    0.07531      0.99945     1.90505    0.02019     2.92469
      C    4   -0.20505      0.99956     2.19565    0.00983     3.20505
      C    5   -0.21336      0.99957     2.20376    0.01003     3.21336
      S    6    0.11320      4.99948     2.86821    0.01911     7.88680
      C    7    0.04650      0.99946     1.93676    0.01727     2.95350
      C    8   -0.13479      0.99950     2.12494    0.01035     3.13479
      C    9   -0.04030      0.99957     2.03042    0.01032     3.04030
      C   10   -0.13198      0.99956     2.12250    0.00992     3.13198
      C   11    0.03392      0.99958     1.95162    0.01488     2.96608
      N   12   -0.22985      0.99965     2.71723    0.01296     3.72985
      H   13    0.08843      0.00000     0.41042    0.00115     0.41157
      H   14    0.08271      0.00000     0.41554    0.00175     0.41729
      H   15    0.08795      0.00000     0.41066    0.00138     0.41205
      H   16    0.11677      0.00000     0.38215    0.00108     0.38323
      H   17    0.10176      0.00000     0.39709    0.00115     0.39824
      H   18    0.10377      0.00000     0.39478    0.00145     0.39623
      H   19    0.11874      0.00000     0.38006    0.00121     0.38126
      H   20    0.10313      0.00000     0.39582    0.00105     0.39687
      H   21    0.09683      0.00000     0.40190    0.00127     0.40317
      H   22    0.10017      0.00000     0.39861    0.00122     0.39983
      H   23    0.08470      0.00000     0.41435    0.00095     0.41530
 =======================================================================
   * Total *    0.00000     15.99483    31.83658    0.16858    48.00000

 Normal termination of Gaussian 16 at Wed Dec  9 18:08:47 2020.
