 Gaussian 16, Revision A.03,

 -----------------------------------------------------------
 # opt freq B3LYP/6-31G(d) empiricaldispersion=gd3bj scf=xqc
 -----------------------------------------------------------

 -------------------------------
 CID_45520306_JID_10845_neutraal
 -------------------------------
 Symbolic Z-matrix:
 Charge =  0 Multiplicity = 1

 SCF Done:  E(RB3LYP) =  -910.040696359     A.U. after   15 cycles
 SCF Done:  E(RB3LYP) =  -910.049032615     A.U. after   12 cycles
 SCF Done:  E(RB3LYP) =  -910.050110286     A.U. after   12 cycles
 SCF Done:  E(RB3LYP) =  -910.050584764     A.U. after   12 cycles
 SCF Done:  E(RB3LYP) =  -910.051491967     A.U. after   11 cycles
 SCF Done:  E(RB3LYP) =  -910.051840188     A.U. after   11 cycles
 SCF Done:  E(RB3LYP) =  -910.052012648     A.U. after   12 cycles
 SCF Done:  E(RB3LYP) =  -910.052130042     A.U. after   10 cycles
 SCF Done:  E(RB3LYP) =  -910.052161084     A.U. after   11 cycles
 SCF Done:  E(RB3LYP) =  -910.052182124     A.U. after   10 cycles
 SCF Done:  E(RB3LYP) =  -910.052287756     A.U. after    8 cycles
 SCF Done:  E(RB3LYP) =  -910.052287839     A.U. after    7 cycles
 SCF Done:  E(RB3LYP) =  -910.052288020     A.U. after    8 cycles
 SCF Done:  E(RB3LYP) =  -910.052288048     A.U. after    7 cycles
 SCF Done:  E(RB3LYP) =  -910.052288051     A.U. after    6 cycles
 Optimization completed.
    -- Stationary point found.
 Normal termination of Gaussian 16 at Sat Dec 12 16:16:38 2020.

 --------------------------------------------------------------------
 #N Geom=AllCheck Guess=TCheck SCRF=Check GenChk RB3LYP/6-31G(d) Freq
 --------------------------------------------------------------------

 Structure from the checkpoint file:  "JID_10845.chk"
 -------------------------------
 CID_45520306_JID_10845_neutraal
 -------------------------------
 Charge =  0 Multiplicity = 1

 SCF Done:  E(RB3LYP) =  -910.052288051     A.U. after    1 cycles

  Exact polarizability: 234.885  15.074 173.578 -15.553  14.287 125.290
 Approx polarizability: 308.518  30.267 296.444 -31.500  33.949 194.993

                      1                      2                      3
                      A                      A                      A
 Frequencies --     10.5219                39.0572                42.6745
 Red. masses --      5.0817                 3.9606                 4.5209
 Frc consts  --      0.0003                 0.0036                 0.0049
 IR Inten    --      1.1108                 1.0292                 0.4020

                      4                      5                      6
                      A                      A                      A
 Frequencies --     65.2432                73.1932                94.3960
 Red. masses --      4.1044                 4.1637                 3.3633
 Frc consts  --      0.0103                 0.0131                 0.0177
 IR Inten    --      2.6870                 0.4367                 0.3088

                      7                      8                      9
                      A                      A                      A
 Frequencies --    123.7476               133.9383               143.0876
 Red. masses --      4.1773                 2.1472                 1.4587
 Frc consts  --      0.0377                 0.0227                 0.0176
 IR Inten    --      1.1633                 0.7591                 0.0532

                     10                     11                     12
                      A                      A                      A
 Frequencies --    156.2064               178.6887               200.8773
 Red. masses --      3.3408                 4.5514                 3.0920
 Frc consts  --      0.0480                 0.0856                 0.0735
 IR Inten    --      2.4562                 5.6218                 1.2924

                     13                     14                     15
                      A                      A                      A
 Frequencies --    226.0553               251.2983               264.3253
 Red. masses --      4.9369                 2.4174                 2.3057
 Frc consts  --      0.1486                 0.0899                 0.0949
 IR Inten    --      2.3546                 2.7342                 1.6277

                     16                     17                     18
                      A                      A                      A
 Frequencies --    291.9455               315.3165               325.9722
 Red. masses --      3.8978                 4.5041                 3.9285
 Frc consts  --      0.1957                 0.2638                 0.2459
 IR Inten    --      6.7088                 1.3964                 0.7628

                     19                     20                     21
                      A                      A                      A
 Frequencies --    389.6415               449.0880               533.7100
 Red. masses --      4.9777                 3.0074                 3.4509
 Frc consts  --      0.4453                 0.3574                 0.5791
 IR Inten    --      2.2493                11.7984                 9.8484

                     22                     23                     24
                      A                      A                      A
 Frequencies --    541.1635               553.8360               568.8572
 Red. masses --      3.7423                 4.1646                 2.1921
 Frc consts  --      0.6457                 0.7526                 0.4179
 IR Inten    --     10.1173                 2.4619                 6.3345

                     25                     26                     27
                      A                      A                      A
 Frequencies --    575.0210               584.3208               597.5370
 Red. masses --      3.8081                 1.9682                 5.3256
 Frc consts  --      0.7419                 0.3959                 1.1203
 IR Inten    --      5.0774                 1.8949                 2.6973

                     28                     29                     30
                      A                      A                      A
 Frequencies --    650.6237               654.2679               687.6713
 Red. masses --      5.4052                 5.5167                 2.9716
 Frc consts  --      1.3481                 1.3914                 0.8280
 IR Inten    --      7.0183                 0.8356                51.8603

                     31                     32                     33
                      A                      A                      A
 Frequencies --    705.1323               740.5956               754.0922
 Red. masses --      1.8455                 3.3415                 3.8414
 Frc consts  --      0.5406                 1.0798                 1.2870
 IR Inten    --     78.0577                32.1839                 1.8618

                     34                     35                     36
                      A                      A                      A
 Frequencies --    805.6323               818.6199               848.8496
 Red. masses --      4.9528                 3.0431                 1.5315
 Frc consts  --      1.8940                 1.2015                 0.6502
 IR Inten    --     28.0214                 1.8908                 3.8018

                     37                     38                     39
                      A                      A                      A
 Frequencies --    859.4491               887.9365               893.1602
 Red. masses --      2.0664                 1.9346                 3.2034
 Frc consts  --      0.8993                 0.8987                 1.5056
 IR Inten    --     14.6259                 1.1885                 4.1378

                     40                     41                     42
                      A                      A                      A
 Frequencies --    929.3515               931.0975               941.7417
 Red. masses --      2.5236                 2.2655                 1.6471
 Frc consts  --      1.2842                 1.1572                 0.8606
 IR Inten    --      0.2681                46.5555                 7.9418

                     43                     44                     45
                      A                      A                      A
 Frequencies --    958.0270               981.9401               983.5313
 Red. masses --      4.0659                 2.3416                 1.4493
 Frc consts  --      2.1987                 1.3303                 0.8260
 IR Inten    --     28.4563                19.2233                 2.8017

                     46                     47                     48
                      A                      A                      A
 Frequencies --    995.5918              1035.1430              1050.1752
 Red. masses --      1.5874                 1.6211                 2.0390
 Frc consts  --      0.9270                 1.0235                 1.3249
 IR Inten    --      1.4728                19.6272                 5.5532

                     49                     50                     51
                      A                      A                      A
 Frequencies --   1061.0907              1064.9712              1121.9580
 Red. masses --      1.9324                 1.9745                 2.7145
 Frc consts  --      1.2819                 1.3194                 2.0132
 IR Inten    --      1.6341                10.0643                 9.7415

                     52                     53                     54
                      A                      A                      A
 Frequencies --   1138.5790              1161.1774              1167.1686
 Red. masses --      2.4677                 1.8150                 4.0269
 Frc consts  --      1.8848                 1.4418                 3.2322
 IR Inten    --      8.0652                 0.3704                26.2746

                     55                     56                     57
                      A                      A                      A
 Frequencies --   1202.6774              1207.6989              1218.4250
 Red. masses --      1.5358                 1.9539                 1.9732
 Frc consts  --      1.3088                 1.6791                 1.7259
 IR Inten    --      2.5709                 6.8685                 8.8412

                     58                     59                     60
                      A                      A                      A
 Frequencies --   1235.4013              1262.7779              1265.6276
 Red. masses --      2.5007                 1.3291                 1.6038
 Frc consts  --      2.2487                 1.2487                 1.5136
 IR Inten    --      2.0196                25.4284                 4.0256

                     61                     62                     63
                      A                      A                      A
 Frequencies --   1274.0738              1297.9233              1302.5621
 Red. masses --      1.4587                 1.8005                 1.8300
 Frc consts  --      1.3951                 1.7871                 1.8294
 IR Inten    --      2.5534                26.6894                16.4839

                     64                     65                     66
                      A                      A                      A
 Frequencies --   1337.0895              1338.7039              1366.5260
 Red. masses --      1.9210                 1.4211                 1.7794
 Frc consts  --      2.0235                 1.5005                 1.9578
 IR Inten    --     77.4807                17.7873               157.9328

                     67                     68                     69
                      A                      A                      A
 Frequencies --   1368.5757              1377.0529              1380.2971
 Red. masses --      1.2715                 2.6089                 1.8352
 Frc consts  --      1.4031                 2.9148                 2.0600
 IR Inten    --      0.1544                56.2134               119.6133

                     70                     71                     72
                      A                      A                      A
 Frequencies --   1389.7941              1399.6448              1410.8587
 Red. masses --      1.7394                 1.5859                 2.0637
 Frc consts  --      1.9794                 1.8305                 2.4202
 IR Inten    --      3.3477                 9.2940                 3.9143

                     73                     74                     75
                      A                      A                      A
 Frequencies --   1420.1463              1431.3152              1438.0817
 Red. masses --      1.3909                 1.8197                 2.6242
 Frc consts  --      1.6528                 2.1964                 3.1975
 IR Inten    --     56.3499               114.0327                44.3504

                     76                     77                     78
                      A                      A                      A
 Frequencies --   1480.4501              1496.5039              1500.7831
 Red. masses --      2.7311                 1.3417                 1.0843
 Frc consts  --      3.5268                 1.7704                 1.4389
 IR Inten    --     59.7897                20.4128                 7.4604

                     79                     80                     81
                      A                      A                      A
 Frequencies --   1515.5445              1520.1769              1522.2318
 Red. masses --      1.0530                 1.3254                 2.0237
 Frc consts  --      1.4250                 1.8046                 2.7629
 IR Inten    --     10.1532                14.1136                25.5697

                     82                     83                     84
                      A                      A                      A
 Frequencies --   1527.0189              1532.6340              1545.6925
 Red. masses --      1.1568                 1.5391                 1.0944
 Frc consts  --      1.5893                 2.1300                 1.5405
 IR Inten    --     41.4955                79.0652                 4.6385

                     85                     86                     87
                      A                      A                      A
 Frequencies --   1546.8554              1556.9907              1568.5598
 Red. masses --      1.1168                 1.2949                 3.5821
 Frc consts  --      1.5744                 1.8495                 5.1927
 IR Inten    --     11.5077                96.5007                54.4866

                     88                     89                     90
                      A                      A                      A
 Frequencies --   1615.6403              1633.7920              1799.5571
 Red. masses --      9.9055                 7.2815                 7.3945
 Frc consts  --     15.2341                11.4516                14.1088
 IR Inten    --    145.2270               837.1832               346.5349

                     91                     92                     93
                      A                      A                      A
 Frequencies --   3015.0159              3021.6359              3048.1996
 Red. masses --      1.0633                 1.0682                 1.0727
 Frc consts  --      5.6952                 5.7464                 5.8726
 IR Inten    --     57.7414                34.8536                30.6675

                     94                     95                     96
                      A                      A                      A
 Frequencies --   3052.4180              3055.5102              3065.5029
 Red. masses --      1.0499                 1.0871                 1.0693
 Frc consts  --      5.7636                 5.9796                 5.9203
 IR Inten    --      7.3948                20.1954                21.1604

                     97                     98                     99
                      A                      A                      A
 Frequencies --   3071.3357              3090.5555              3093.0021
 Red. masses --      1.0645                 1.0929                 1.0643
 Frc consts  --      5.9164                 6.1503                 5.9991
 IR Inten    --     18.3593                29.0850                28.8179

                    100                    101                    102
                      A                      A                      A
 Frequencies --   3110.2854              3125.3529              3130.5676
 Red. masses --      1.1003                 1.0968                 1.0991
 Frc consts  --      6.2713                 6.3119                 6.3465
 IR Inten    --     15.7955                34.3777                20.2055

                    103                    104                    105
                      A                      A                      A
 Frequencies --   3136.3321              3156.5770              3178.5574
 Red. masses --      1.1009                 1.1039                 1.0998
 Frc consts  --      6.3805                 6.4803                 6.5464
 IR Inten    --     28.5467                 5.8695                 9.8584

                    106                    107                    108
                      A                      A                      A
 Frequencies --   3194.3264              3273.8067              3485.3256
 Red. masses --      1.0910                 1.0953                 1.0792
 Frc consts  --      6.5586                 6.9164                 7.7240
 IR Inten    --     27.0110                 5.3952               304.0218

 - Thermochemistry -
 -------------------
 Temperature   298.150 Kelvin.  Pressure   1.00000 Atm.
 Atom     1 has atomic number  6 and mass  12.00000

 Molecular mass:   274.15421 amu.
 Principal axes and moments of inertia in atomic units:
                           1         2         3
     Eigenvalues --  2620.43353********************
           X            0.99996   0.00881  -0.00172
           Y           -0.00878   0.99988   0.01276
           Z            0.00183  -0.01275   0.99992
 This molecule is an asymmetric top.
 Rotational symmetry number  1.
 Warning -- assumption of classical behavior for rotation
           may cause significant error
 Rotational temperatures (Kelvin)      0.03305     0.00829     0.00761
 Rotational constants (GHZ):           0.68872     0.17263     0.15865
 Zero-point vibrational energy     838278.9 (Joules/Mol)
                                  200.35346 (Kcal/Mol)
 Warning -- explicit consideration of  27 degrees of freedom as
           vibrations may cause significant error
 Vibrational temperatures:     15.14    56.19    61.40    93.87   105.31
          (Kelvin)            135.81   178.05   192.71   205.87   224.75
                              257.09   289.02   325.24   361.56   380.31
                              420.04   453.67   469.00   560.61   646.14
                              767.89   778.61   796.85   818.46   827.33
                              840.71   859.72   936.10   941.35   989.41
                             1014.53  1065.55  1084.97  1159.13  1177.81
                             1221.31  1236.56  1277.54  1285.06  1337.13
                             1339.64  1354.96  1378.39  1412.79  1415.08
                             1432.43  1489.34  1510.97  1526.67  1532.26
                             1614.25  1638.16  1670.68  1679.30  1730.38
                             1737.61  1753.04  1777.47  1816.86  1820.96
                             1833.11  1867.42  1874.10  1923.77  1926.10
                             1966.13  1969.08  1981.27  1985.94  1999.60
                             2013.78  2029.91  2043.27  2059.34  2069.08
                             2130.04  2153.14  2159.29  2180.53  2187.20
                             2190.15  2197.04  2205.12  2223.91  2225.58
                             2240.16  2256.81  2324.55  2350.66  2589.16
                             4337.94  4347.46  4385.68  4391.75  4396.20
                             4410.57  4418.97  4446.62  4450.14  4475.01
                             4496.69  4504.19  4512.48  4541.61  4573.24
                             4595.92  4710.28  5014.61

 Zero-point correction=                           0.319284 (Hartree/Particle)
 Thermal correction to Energy=                    0.337286
 Thermal correction to Enthalpy=                  0.338230
 Thermal correction to Gibbs Free Energy=         0.270550
 Sum of electronic and zero-point Energies=           -909.733004
 Sum of electronic and thermal Energies=              -909.715002
 Sum of electronic and thermal Enthalpies=            -909.714058
 Sum of electronic and thermal Free Energies=         -909.781738

                     E (Thermal)             CV                S
                      KCal/Mol        Cal/Mol-Kelvin    Cal/Mol-Kelvin
 Total                  211.650             67.520            142.444
 Electronic               0.000              0.000              0.000
 Translational            0.889              2.981             42.724
 Rotational               0.889              2.981             34.099
 Vibrational            209.873             61.558             65.621
 Vibration     1          0.593              1.987              7.910
 Vibration     2          0.594              1.981              5.306
 Vibration     3          0.595              1.980              5.131
 Vibration     4          0.597              1.971              4.292
 Vibration     5          0.599              1.967              4.066
 Vibration     6          0.603              1.953              3.567
 Vibration     7          0.610              1.929              3.041
 Vibration     8          0.613              1.919              2.889
 Vibration     9          0.616              1.910              2.762
 Vibration    10          0.620              1.896              2.595
 Vibration    11          0.629              1.869              2.342
 Vibration    12          0.638              1.839              2.125
 Vibration    13          0.650              1.801              1.910
 Vibration    14          0.663              1.761              1.721
 Vibration    15          0.671              1.738              1.633
 Vibration    16          0.687              1.689              1.463
 Vibration    17          0.703              1.644              1.334
 Vibration    18          0.710              1.624              1.280
 Vibration    19          0.758              1.492              1.002
 Vibration    20          0.808              1.363              0.799
 Vibration    21          0.889              1.175              0.579
 Vibration    22          0.896              1.159              0.563
 Vibration    23          0.909              1.131              0.536
 Vibration    24          0.925              1.099              0.506
 Vibration    25          0.931              1.085              0.495
 Vibration    26          0.941              1.065              0.477
 Vibration    27          0.955              1.037              0.454

 Optimization completed.
    -- Stationary point found.
 Normal termination of Gaussian 16 at Sat Dec 12 16:34:12 2020.

 ----------------------------------------------------------------------
 # B3LYP/6-311++G(d,p) empiricaldispersion=gd3bj scf=xqc pop=npa geom=c
 heck
 ----------------------------------------------------------------------

 ---------------------------------------
 CID_45520306_JID_10845_Energie_neutraal
 ---------------------------------------
 Structure from the checkpoint file:  "JID_10845.chk"
 Charge =  0 Multiplicity = 1

 SCF Done:  E(RB3LYP) =  -910.296916195     A.U. after   15 cycles
 Normal termination of Gaussian 16 at Sat Dec 12 16:41:02 2020.

 ----------------------------------------------------------------------
 # B3LYP/6-311++G(d,p) empiricaldispersion=gd3bj scf=xqc pop=npa geom=c
 heck
 ----------------------------------------------------------------------

 -------------------------------------
 CID_45520306_JID_10845_Energie_kation
 -------------------------------------
 Structure from the checkpoint file:  "JID_10845.chk"
 Charge =  1 Multiplicity = 2

 SCF Done:  E(UB3LYP) =  -910.013489298     A.U. after   25 cycles
 Normal termination of Gaussian 16 at Sat Dec 12 16:57:29 2020.
 Gaussian 16:  ES64L-G16RevA.03 25-Dec-2016

 ----------------------------------------------------------------------
 # B3LYP/6-311++G(d,p) empiricaldispersion=gd3bj scf=xqc pop=npa geom=c
 heck
 ----------------------------------------------------------------------

 ------------------------------------
 CID_45520306_JID_10845_Energie_anion
 ------------------------------------
 Structure from the checkpoint file:  "JID_10845.chk"
 Charge = -1 Multiplicity = 2

                         Standard orientation:
 ---------------------------------------------------------------------
 Center     Atomic      Atomic             Coordinates (Angstroms)
 Number     Number       Type             X           Y           Z
 ---------------------------------------------------------------------
      1          6           0        5.041825   -0.612025    1.774788
      2          6           0        4.068694   -1.232660    0.782555
      3          8           0        3.858278   -2.438315    0.739058
      4          7           0        3.439670   -0.362590   -0.066459
      5          6           0        3.566308    1.084077   -0.061744
      6          6           0        2.570336    1.718934   -1.031890
      7          7           0        1.187529    1.532531   -0.632464
      8          6           0        0.406064    0.442588   -0.849722
      9          6           0       -0.845327    0.710023   -0.254460
     10          6           0       -0.688493    2.015097    0.304752
     11          7           0        0.524292    2.494557    0.079726
     12          6           0       -1.804481   -0.335290   -0.391897
     13          7           0       -1.464640   -1.459617   -1.059393
     14          6           0       -0.225786   -1.563537   -1.557911
     15          7           0        0.769005   -0.677241   -1.501937
     16          7           0       -3.054117   -0.275271    0.110306
     17          6           0       -4.037218   -1.348451   -0.090728
     18          6           0       -5.350672   -0.699671    0.360778
     19          6           0       -4.903220    0.276801    1.459719
     20          6           0       -3.570143    0.823115    0.927336
     21          1           0        5.519295   -1.417663    2.332937
     22          1           0        4.520735    0.050559    2.476480
     23          1           0        5.809475   -0.014595    1.269221
     24          1           0        2.750691   -0.784545   -0.687898
     25          1           0        3.386514    1.496910    0.939707
     26          1           0        4.576132    1.396484   -0.366908
     27          1           0        2.739103    2.795796   -1.086068
     28          1           0        2.690947    1.290024   -2.031570
     29          1           0       -1.399250    2.622290    0.846381
     30          1           0       -0.003913   -2.497321   -2.069489
     31          1           0       -3.775271   -2.220692    0.522095
     32          1           0       -4.034682   -1.670146   -1.134014
     33          1           0       -5.801545   -0.148435   -0.472768
     34          1           0       -6.079116   -1.435592    0.711336
     35          1           0       -5.626837    1.071971    1.657655
     36          1           0       -4.732443   -0.265083    2.396868
     37          1           0       -3.716575    1.724381    0.314817
     38          1           0       -2.868979    1.071602    1.730849
 ---------------------------------------------------------------------

 SCF Done:  E(UB3LYP) =  -910.293248849     A.U. after   33 cycles
 SCF Done:  E(UB3LYP) =  -910.293248849     a.u. after    1 cycles

 The electronic state is 2-A.
 Alpha  occ. eigenvalues --  -18.98980 -14.28248 -14.24197 -14.23421 -14.22767
 Alpha  occ. eigenvalues --  -14.19711 -14.19233 -10.17907 -10.14682 -10.13635
 Alpha  occ. eigenvalues --  -10.12948 -10.12645 -10.12025 -10.11567 -10.11006
 Alpha  occ. eigenvalues --  -10.09534 -10.08884 -10.08595 -10.08572 -10.07607
 Alpha  occ. eigenvalues --   -0.95304  -0.94012  -0.88926  -0.85203  -0.83056
 Alpha  occ. eigenvalues --   -0.77870  -0.74866  -0.71102  -0.67648  -0.66216
 Alpha  occ. eigenvalues --   -0.65153  -0.64339  -0.58190  -0.56403  -0.53885
 Alpha  occ. eigenvalues --   -0.52002  -0.50588  -0.48923  -0.47523  -0.44810
 Alpha  occ. eigenvalues --   -0.42769  -0.41495  -0.40971  -0.39897  -0.39490
 Alpha  occ. eigenvalues --   -0.38145  -0.36391  -0.35358  -0.34568  -0.34322
 Alpha  occ. eigenvalues --   -0.34226  -0.33295  -0.32597  -0.31587  -0.31452
 Alpha  occ. eigenvalues --   -0.30817  -0.30666  -0.30257  -0.29057  -0.27728
 Alpha  occ. eigenvalues --   -0.27269  -0.26668  -0.26457  -0.24881  -0.23353
 Alpha  occ. eigenvalues --   -0.20826  -0.18864  -0.17230  -0.16379  -0.15908
 Alpha  occ. eigenvalues --   -0.15736  -0.15367  -0.11522   0.03760
 Alpha virt. eigenvalues --    0.05190   0.05793   0.07363   0.07480   0.07675
 Alpha virt. eigenvalues --    0.08371   0.08981   0.09491   0.10009   0.10098
 Alpha virt. eigenvalues --    0.10396   0.10487   0.10852   0.10993   0.11724

  Beta  occ. eigenvalues --  -18.98979 -14.28220 -14.24145 -14.23422 -14.22556
  Beta  occ. eigenvalues --  -14.19641 -14.19307 -10.17907 -10.14507 -10.13648
  Beta  occ. eigenvalues --  -10.12938 -10.12627 -10.11843 -10.11557 -10.11004
  Beta  occ. eigenvalues --  -10.09489 -10.08870 -10.08569 -10.08547 -10.07618
  Beta  occ. eigenvalues --   -0.95154  -0.94007  -0.88771  -0.85052  -0.83044
  Beta  occ. eigenvalues --   -0.77760  -0.74766  -0.71001  -0.67522  -0.66173
  Beta  occ. eigenvalues --   -0.65115  -0.64299  -0.58041  -0.56278  -0.53777
  Beta  occ. eigenvalues --   -0.51876  -0.50501  -0.48901  -0.47443  -0.44741
  Beta  occ. eigenvalues --   -0.42670  -0.41431  -0.40863  -0.39777  -0.39423
  Beta  occ. eigenvalues --   -0.38108  -0.36273  -0.35260  -0.34466  -0.34249
  Beta  occ. eigenvalues --   -0.34162  -0.33214  -0.32479  -0.31549  -0.31371
  Beta  occ. eigenvalues --   -0.30755  -0.30625  -0.30163  -0.28995  -0.27307
  Beta  occ. eigenvalues --   -0.27255  -0.26626  -0.26398  -0.24834  -0.22844
  Beta  occ. eigenvalues --   -0.20650  -0.18702  -0.16784  -0.16336  -0.15849
  Beta  occ. eigenvalues --   -0.15697  -0.15185  -0.11063
  Beta virt. eigenvalues --    0.05831   0.06068   0.07251   0.07731   0.07839
  Beta virt. eigenvalues --    0.08145   0.08641   0.09020   0.09730   0.10077
  Beta virt. eigenvalues --    0.10277   0.10553   0.10688   0.10935   0.11105

 Mulliken charges and spin densities:
               1          2
     1  C   -0.171712  -0.277928
     2  C   -0.012784   0.114668
     3  O   -0.348458  -0.001393
     4  N   -0.201921   0.053879
     5  C   -0.048207  -0.034860
     6  C   -0.082796  -0.612278
     7  N    0.339358   0.093170
     8  C   -0.168128  -0.095766
     9  C    0.149145   0.044757
    10  C   -0.328891  -0.075833
    11  N   -0.219228   0.093089
    12  C   -0.330431   0.146316
    13  N   -0.168507  -0.050130
    14  C    0.037864   0.102555
    15  N   -0.231245   0.038058
    16  N    0.084742   0.104432
    17  C    0.051570  -0.140547
    18  C   -0.037872  -0.437617
    19  C    0.431963  -0.988067
    20  C   -0.179659   0.023743
    21  H    0.128762   0.055037
    22  H    0.060869   0.087594
    23  H   -0.024376   0.169748
    24  H    0.398279  -0.003854
    25  H    0.214528  -0.035246
    26  H   -0.240501   0.401867
    27  H   -0.095468   0.308415
    28  H    0.156930   0.041296
    29  H   -0.093432   0.261220
    30  H    0.183420  -0.000918
    31  H    0.149285   0.026456
    32  H    0.138839   0.056600
    33  H   -0.080511   0.225550
    34  H   -0.048234   0.209442
    35  H   -0.593125   0.774179
    36  H    0.095080   0.039408
    37  H    0.041829   0.161116
    38  H    0.043023   0.121844
 Sum of Mulliken charges =  -1.00000   1.00000

 Dipole moment (field-independent basis, Debye):
    X=              1.5832    Y=             -0.1207    Z=             -0.0649  Tot=              1.5891
 Quadrupole moment (field-independent basis, Debye-Ang):
   XX=           -217.9638   YY=           -166.1404   ZZ=           -140.2456
   XY=             16.8348   XZ=              5.4676   YZ=             -1.5127

 Summary of Natural Population Analysis:

                                       Natural Population
                Natural  -----------------------------------------------
    Atom  No    Charge         Core      Valence    Rydberg      Total
 -----------------------------------------------------------------------
      C    1   -0.33441      0.99963     2.33081    0.00397     3.33441
      C    2    0.34082      0.99970     1.63774    0.02174     2.65918
      O    3   -0.32366      0.99988     3.31800    0.00578     4.32366
      N    4   -0.33492      0.99966     2.82606    0.00919     3.83492
      C    5   -0.09131      0.99961     2.08185    0.00985     3.09131
      C    6   -0.08734      0.99961     2.07535    0.01238     3.08734
      N    7   -0.12594      0.99960     2.61285    0.01349     3.62594
      C    8    0.19999      0.99948     1.78633    0.01419     2.80001
      C    9   -0.12148      0.99945     2.11454    0.00749     3.12148
      C   10    0.00338      0.99962     1.98349    0.01351     2.99662
      N   11   -0.11945      0.99973     2.60871    0.01100     3.61945
      C   12    0.26269      0.99951     1.72499    0.01281     2.73731
      N   13   -0.30172      0.99969     2.79366    0.00837     3.80172
      C   14    0.18540      0.99968     1.79638    0.01854     2.81460
      N   15   -0.29159      0.99967     2.78238    0.00954     3.79159
      N   16   -0.22705      0.99963     2.71871    0.00870     3.72705
      C   17   -0.08061      0.99963     2.07030    0.01068     3.08061
      C   18   -0.19676      0.99964     2.18842    0.00871     3.19676
      C   19   -0.19265      0.99964     2.18471    0.00830     3.19265
      C   20   -0.08314      0.99963     2.07294    0.01057     3.08314
      H   21    0.11052      0.00000     0.38852    0.00096     0.38948
      H   22    0.10732      0.00000     0.39159    0.00109     0.39268
      H   23    0.10664      0.00000     0.39210    0.00126     0.39336
      H   24    0.21367      0.00000     0.28289    0.00344     0.28633
      H   25    0.09648      0.00000     0.40213    0.00139     0.40352
      H   26    0.09439      0.00000     0.40371    0.00190     0.40561
      H   27    0.11163      0.00000     0.38688    0.00149     0.38837
      H   28    0.10561      0.00000     0.39299    0.00140     0.39439
      H   29    0.09805      0.00000     0.40061    0.00134     0.40195
      H   30    0.07796      0.00000     0.42103    0.00102     0.42204
      H   31    0.09308      0.00000     0.40570    0.00122     0.40692
      H   32    0.10708      0.00000     0.39156    0.00136     0.39292
      H   33    0.09905      0.00000     0.39965    0.00130     0.40095
      H   34    0.10085      0.00000     0.39835    0.00079     0.39915
      H   35    0.10718      0.00000     0.39013    0.00270     0.39282
      H   36    0.09526      0.00000     0.40361    0.00113     0.40474
      H   37    0.09607      0.00000     0.40225    0.00168     0.40393
      H   38    0.09888      0.00000     0.39978    0.00134     0.40112
 =======================================================================
   * Total *    0.00000     19.99269    52.76170    0.24561    73.00000

 Normal termination of Gaussian 16 at Sat Dec 12 17:18:53 2020.
