 Gaussian 16, Revision A.03,

 -----------------------------------------------------------
 # opt freq B3LYP/6-31G(d) empiricaldispersion=gd3bj scf=xqc
 -----------------------------------------------------------

 -------------------------------
 CID_116512866_JID_5101_neutraal
 -------------------------------
 Symbolic Z-matrix:
 Charge =  0 Multiplicity = 1

 SCF Done:  E(RB3LYP) =  -649.019971141     A.U. after   15 cycles
 SCF Done:  E(RB3LYP) =  -649.026447787     A.U. after   13 cycles
 SCF Done:  E(RB3LYP) =  -649.026041980     A.U. after   12 cycles
 SCF Done:  E(RB3LYP) =  -649.027025126     A.U. after   12 cycles
 SCF Done:  E(RB3LYP) =  -649.027848297     A.U. after   12 cycles
 SCF Done:  E(RB3LYP) =  -649.027910275     A.U. after   11 cycles
 SCF Done:  E(RB3LYP) =  -649.027974966     A.U. after   11 cycles
 SCF Done:  E(RB3LYP) =  -649.028001425     A.U. after   10 cycles
 SCF Done:  E(RB3LYP) =  -649.028009038     A.U. after    9 cycles
 SCF Done:  E(RB3LYP) =  -649.028010467     A.U. after    8 cycles
 SCF Done:  E(RB3LYP) =  -649.028011145     A.U. after    8 cycles
 SCF Done:  E(RB3LYP) =  -649.028011679     A.U. after    8 cycles
 SCF Done:  E(RB3LYP) =  -649.028011806     A.U. after    7 cycles
 Optimization completed.
    -- Stationary point found.
 Normal termination of Gaussian 16 at Thu Dec 10 14:49:22 2020.

 --------------------------------------------------------------------
 #N Geom=AllCheck Guess=TCheck SCRF=Check GenChk RB3LYP/6-31G(d) Freq
 --------------------------------------------------------------------

 Structure from the checkpoint file:  "JID_5101.chk"
 -------------------------------
 CID_116512866_JID_5101_neutraal
 -------------------------------
 Charge =  0 Multiplicity = 1

 SCF Done:  E(RB3LYP) =  -649.028011806     A.U. after    1 cycles

  Exact polarizability: 198.254  -6.660 126.648 -13.677 -11.909 103.575
 Approx polarizability: 265.120 -13.615 203.427 -30.665 -22.846 161.904

                      1                      2                      3
                      A                      A                      A
 Frequencies --     34.4795                51.0904                61.4590
 Red. masses --      4.1489                 3.5876                 2.8689
 Frc consts  --      0.0029                 0.0055                 0.0064
 IR Inten    --      0.2259                 0.6680                 0.0566

                      4                      5                      6
                      A                      A                      A
 Frequencies --     88.7885               107.0598               150.3464
 Red. masses --      3.5513                 2.9621                 2.6385
 Frc consts  --      0.0165                 0.0200                 0.0351
 IR Inten    --      0.5763                 4.1239                 0.0671

                      7                      8                      9
                      A                      A                      A
 Frequencies --    161.1109               183.3088               196.3360
 Red. masses --      2.8459                 1.3462                 1.4524
 Frc consts  --      0.0435                 0.0267                 0.0330
 IR Inten    --      0.4038                 1.5697                 2.3767

                     10                     11                     12
                      A                      A                      A
 Frequencies --    224.8804               236.2105               254.8477
 Red. masses --      1.2369                 2.0073                 2.5144
 Frc consts  --      0.0369                 0.0660                 0.0962
 IR Inten    --      0.0899                 1.1828                 4.2344

                     13                     14                     15
                      A                      A                      A
 Frequencies --    259.7749               278.6497               328.8487
 Red. masses --      2.6890                 1.5715                 2.8845
 Frc consts  --      0.1069                 0.0719                 0.1838
 IR Inten    --      2.8769                12.3417                 0.9345

                     16                     17                     18
                      A                      A                      A
 Frequencies --    360.3512               386.4221               417.5679
 Red. masses --      2.7650                 2.4845                 3.8456
 Frc consts  --      0.2115                 0.2186                 0.3951
 IR Inten    --      2.5557                 1.7346                 8.2299

                     19                     20                     21
                      A                      A                      A
 Frequencies --    424.5783               476.0805               496.6720
 Red. masses --      3.2279                 2.9081                 3.2553
 Frc consts  --      0.3428                 0.3883                 0.4731
 IR Inten    --      3.9930                 1.3730                 8.7343

                     22                     23                     24
                      A                      A                      A
 Frequencies --    538.4173               580.9285               632.4426
 Red. masses --      3.0460                 2.5395                 5.4281
 Frc consts  --      0.5203                 0.5049                 1.2792
 IR Inten    --     12.8460                79.6854                 3.2828

                     25                     26                     27
                      A                      A                      A
 Frequencies --    652.9916               679.9540               711.4400
 Red. masses --      2.5811                 3.6509                 2.0579
 Frc consts  --      0.6484                 0.9945                 0.6137
 IR Inten    --     21.7465                15.2878                23.2242

                     28                     29                     30
                      A                      A                      A
 Frequencies --    741.8543               754.8596               784.8388
 Red. masses --      3.6853                 4.1219                 2.1640
 Frc consts  --      1.1950                 1.3838                 0.7854
 IR Inten    --     34.6087                 4.6146                13.9682

                     31                     32                     33
                      A                      A                      A
 Frequencies --    816.3471               850.3435               901.1781
 Red. masses --      3.0397                 1.2532                 2.5690
 Frc consts  --      1.1935                 0.5339                 1.2292
 IR Inten    --      6.6156                 0.6159                24.4311

                     34                     35                     36
                      A                      A                      A
 Frequencies --    920.2113               933.4521               964.2076
 Red. masses --      1.4691                 1.3364                 1.2961
 Frc consts  --      0.7330                 0.6861                 0.7100
 IR Inten    --      1.4988                 0.4604                 0.7926

                     37                     38                     39
                      A                      A                      A
 Frequencies --    965.5676               977.5842               990.4508
 Red. masses --      1.3417                 2.3217                 1.2418
 Frc consts  --      0.7370                 1.3073                 0.7177
 IR Inten    --      0.6544                83.4935                 0.3484

                     40                     41                     42
                      A                      A                      A
 Frequencies --   1015.0011              1022.9715              1058.1715
 Red. masses --      1.9725                 5.6740                 2.1796
 Frc consts  --      1.1973                 3.4984                 1.4379
 IR Inten    --     56.1942                 2.0011                 8.8278

                     43                     44                     45
                      A                      A                      A
 Frequencies --   1108.1612              1130.4536              1146.1949
 Red. masses --      1.7459                 2.5766                 2.3552
 Frc consts  --      1.2632                 1.9400                 1.8230
 IR Inten    --      4.3232                25.3408                10.4913

                     46                     47                     48
                      A                      A                      A
 Frequencies --   1157.1733              1184.4573              1186.9647
 Red. masses --      1.3615                 1.9051                 1.9300
 Frc consts  --      1.0741                 1.5747                 1.6020
 IR Inten    --     11.0270                 8.1659                12.5814

                     49                     50                     51
                      A                      A                      A
 Frequencies --   1192.5153              1203.9819              1210.6683
 Red. masses --      1.1050                 2.1020                 1.2037
 Frc consts  --      0.9259                 1.7952                 1.0395
 IR Inten    --      0.2145                32.7562                 1.4857

                     52                     53                     54
                      A                      A                      A
 Frequencies --   1243.5474              1329.2547              1340.7209
 Red. masses --      2.8184                 3.0265                 2.9204
 Frc consts  --      2.5679                 3.1507                 3.0929
 IR Inten    --     91.4808                58.2473                22.8809

                     55                     56                     57
                      A                      A                      A
 Frequencies --   1359.0909              1365.2779              1380.0849
 Red. masses --      1.4606                 2.0744                 2.6418
 Frc consts  --      1.5896                 2.2782                 2.9646
 IR Inten    --     15.6223                31.8814               166.4577

                     58                     59                     60
                      A                      A                      A
 Frequencies --   1391.5161              1401.5348              1426.0513
 Red. masses --      1.3529                 1.2104                 1.2308
 Frc consts  --      1.5435                 1.4008                 1.4747
 IR Inten    --     19.6313                81.0380                 6.0505

                     61                     62                     63
                      A                      A                      A
 Frequencies --   1444.7211              1477.0970              1489.1337
 Red. masses --      1.2297                 1.1735                 1.2027
 Frc consts  --      1.5123                 1.5086                 1.5713
 IR Inten    --      5.2997                 9.9922                 2.6209

                     64                     65                     66
                      A                      A                      A
 Frequencies --   1501.9456              1507.4125              1516.6886
 Red. masses --      2.1205                 1.0928                 1.0498
 Frc consts  --      2.8184                 1.4630                 1.4228
 IR Inten    --      2.1642                12.1296                 0.0669

                     67                     68                     69
                      A                      A                      A
 Frequencies --   1523.0343              1530.2701              1532.1378
 Red. masses --      1.0547                 1.0888                 1.1141
 Frc consts  --      1.4414                 1.5023                 1.5409
 IR Inten    --      2.3671                 9.6734                 4.9077

                     70                     71                     72
                      A                      A                      A
 Frequencies --   1541.7099              1549.7363              1642.2709
 Red. masses --      1.0898                 1.9057                 5.7270
 Frc consts  --      1.5262                 2.6966                 9.1005
 IR Inten    --      1.8807                76.7343                10.5232

                     73                     74                     75
                      A                      A                      A
 Frequencies --   1661.3155              1724.2262              1736.3705
 Red. masses --      5.5647                 6.2587                 1.0718
 Frc consts  --      9.0489                10.9628                 1.9039
 IR Inten    --     81.3422               478.8851                25.4168

                     76                     77                     78
                      A                      A                      A
 Frequencies --   3024.4395              3047.0698              3050.3432
 Red. masses --      1.0852                 1.0352                 1.0442
 Frc consts  --      5.8485                 5.6631                 5.7242
 IR Inten    --     39.9404                22.1561                48.6939

                     79                     80                     81
                      A                      A                      A
 Frequencies --   3052.4587              3108.7235              3116.2731
 Red. masses --      1.0357                 1.1020                 1.1010
 Frc consts  --      5.6857                 6.2745                 6.2995
 IR Inten    --     23.2103                 2.0639               118.6087

                     82                     83                     84
                      A                      A                      A
 Frequencies --   3125.5384              3126.8259              3130.1393
 Red. masses --      1.1024                 1.1021                 1.0916
 Frc consts  --      6.3450                 6.3486                 6.3015
 IR Inten    --     17.4962                35.0429                21.6933

                     85                     86                     87
                      A                      A                      A
 Frequencies --   3174.9216              3184.7739              3192.1033
 Red. masses --      1.1038                 1.0851                 1.0884
 Frc consts  --      6.5555                 6.4845                 6.5342
 IR Inten    --     19.8090                 2.6431                 4.9202

                     88                     89                     90
                      A                      A                      A
 Frequencies --   3201.8976              3212.2863              3223.6571
 Red. masses --      1.0927                 1.0963                 1.0940
 Frc consts  --      6.6001                 6.6652                 6.6984
 IR Inten    --     26.4100                26.4243                 3.3983

                     91                     92                     93
                      A                      A                      A
 Frequencies --   3444.6911              3529.4411              3656.7499
 Red. masses --      1.0483                 1.0937                 1.0760
 Frc consts  --      7.3292                 8.0269                 8.4771
 IR Inten    --      4.3387                 1.2097                18.1739

 - Thermochemistry -
 -------------------
 Temperature   298.150 Kelvin.  Pressure   1.00000 Atm.
 Atom     1 has atomic number  6 and mass  12.00000

 Molecular mass:   206.15315 amu.
 Principal axes and moments of inertia in atomic units:
                           1         2         3
     Eigenvalues --  1440.076625263.427145483.48176
           X            0.99997   0.00727  -0.00160
           Y           -0.00735   0.99800  -0.06279
           Z            0.00114   0.06280   0.99803
 This molecule is an asymmetric top.
 Rotational symmetry number  1.
 Warning -- assumption of classical behavior for rotation
           may cause significant error
 Rotational temperatures (Kelvin)      0.06015     0.01646     0.01580
 Rotational constants (GHZ):           1.25323     0.34288     0.32912
 Zero-point vibrational energy     756100.5 (Joules/Mol)
                                  180.71235 (Kcal/Mol)
 Warning -- explicit consideration of  23 degrees of freedom as
           vibrations may cause significant error
 Vibrational temperatures:     49.61    73.51    88.43   127.75   154.04
          (Kelvin)            216.31   231.80   263.74   282.48   323.55
                              339.85   366.67   373.76   400.91   473.14
                              518.46   555.98   600.79   610.87   684.97
                              714.60   774.66   835.83   909.94   939.51
                              978.30  1023.60  1067.36  1086.07  1129.21
                             1174.54  1223.45  1296.59  1323.98  1343.03
                             1387.28  1389.24  1406.53  1425.04  1460.36
                             1471.83  1522.47  1594.40  1626.47  1649.12
                             1664.91  1704.17  1707.78  1715.76  1732.26
                             1741.88  1789.19  1912.50  1929.00  1955.43
                             1964.33  1985.63  2002.08  2016.50  2051.77
                             2078.63  2125.21  2142.53  2160.96  2168.83
                             2182.18  2191.31  2201.72  2204.40  2218.18
                             2229.72  2362.86  2390.26  2480.78  2498.25
                             4351.49  4384.05  4388.76  4391.81  4472.76
                             4483.62  4496.95  4498.81  4503.57  4568.00
                             4582.18  4592.72  4606.82  4621.76  4638.12
                             4956.14  5078.08  5261.25

 Zero-point correction=                           0.287983 (Hartree/Particle)
 Thermal correction to Energy=                    0.303771
 Thermal correction to Enthalpy=                  0.304715
 Thermal correction to Gibbs Free Energy=         0.244870
 Sum of electronic and zero-point Energies=           -648.740028
 Sum of electronic and thermal Energies=              -648.724241
 Sum of electronic and thermal Enthalpies=            -648.723297
 Sum of electronic and thermal Free Energies=         -648.783141

                     E (Thermal)             CV                S
                      KCal/Mol        Cal/Mol-Kelvin    Cal/Mol-Kelvin
 Total                  190.619             59.515            125.954
 Electronic               0.000              0.000              0.000
 Translational            0.889              2.981             41.874
 Rotational               0.889              2.981             32.097
 Vibrational            188.842             53.553             51.982
 Vibration     1          0.594              1.983              5.553
 Vibration     2          0.595              1.977              4.775
 Vibration     3          0.597              1.973              4.410
 Vibration     4          0.602              1.957              3.687
 Vibration     5          0.606              1.944              3.322
 Vibration     6          0.618              1.902              2.668
 Vibration     7          0.622              1.890              2.537
 Vibration     8          0.631              1.863              2.294
 Vibration     9          0.636              1.845              2.167
 Vibration    10          0.650              1.803              1.919
 Vibration    11          0.655              1.785              1.831
 Vibration    12          0.665              1.755              1.697
 Vibration    13          0.668              1.746              1.663
 Vibration    14          0.679              1.713              1.542
 Vibration    15          0.712              1.618              1.266
 Vibration    16          0.735              1.554              1.121
 Vibration    17          0.755              1.499              1.014
 Vibration    18          0.781              1.432              0.900
 Vibration    19          0.787              1.417              0.877
 Vibration    20          0.833              1.303              0.721
 Vibration    21          0.852              1.257              0.666
 Vibration    22          0.893              1.165              0.569
 Vibration    23          0.938              1.073              0.484

 Optimization completed.
    -- Stationary point found.
 Normal termination of Gaussian 16 at Thu Dec 10 15:00:03 2020.

 ----------------------------------------------------------------------
 # B3LYP/6-311++G(d,p) empiricaldispersion=gd3bj scf=xqc pop=npa geom=c
 heck
 ----------------------------------------------------------------------

 ---------------------------------------
 CID_116512866_JID_5101_Energie_neutraal
 ---------------------------------------
 Structure from the checkpoint file:  "JID_5101.chk"
 Charge =  0 Multiplicity = 1

 SCF Done:  E(RB3LYP) =  -649.213337451     A.U. after   15 cycles
 Normal termination of Gaussian 16 at Thu Dec 10 15:05:29 2020.

 ----------------------------------------------------------------------
 # B3LYP/6-311++G(d,p) empiricaldispersion=gd3bj scf=xqc pop=npa geom=c
 heck
 ----------------------------------------------------------------------

 -------------------------------------
 CID_116512866_JID_5101_Energie_kation
 -------------------------------------
 Structure from the checkpoint file:  "JID_5101.chk"
 Charge =  1 Multiplicity = 2

 SCF Done:  E(UB3LYP) =  -648.932613138     A.U. after   28 cycles
 Normal termination of Gaussian 16 at Thu Dec 10 15:24:19 2020.
 Gaussian 16:  ES64L-G16RevA.03 25-Dec-2016

 ----------------------------------------------------------------------
 # B3LYP/6-311++G(d,p) empiricaldispersion=gd3bj scf=xqc pop=npa geom=c
 heck
 ----------------------------------------------------------------------

 ------------------------------------
 CID_116512866_JID_5101_Energie_anion
 ------------------------------------
 Structure from the checkpoint file:  "JID_5101.chk"
 Charge = -1 Multiplicity = 2

                         Standard orientation:
 ---------------------------------------------------------------------
 Center     Atomic      Atomic             Coordinates (Angstroms)
 Number     Number       Type             X           Y           Z
 ---------------------------------------------------------------------
      1          6           0        3.354234    1.463550   -0.979358
      2          6           0        3.285906   -0.014473   -0.556405
      3          6           0        3.931116   -0.268061    0.818721
      4          7           0        1.953622   -0.595342   -0.705283
      5          6           0        0.952291   -0.283624    0.030550
      6          7           0        0.863372    0.759649    0.962147
      7          7           0        0.108399    0.635207    2.159402
      8          7           0       -0.226074   -1.045827   -0.065741
      9          6           0       -0.126150   -2.268558   -0.867450
     10          6           0       -1.483706   -0.370250   -0.137171
     11          6           0       -2.610457   -0.959792    0.450829
     12          6           0       -3.852340   -0.332240    0.378742
     13          6           0       -3.981305    0.900338   -0.264798
     14          6           0       -2.859157    1.493027   -0.845316
     15          6           0       -1.618164    0.858549   -0.795999
     16          1           0        2.840600    2.131687   -0.278456
     17          1           0        2.886876    1.592475   -1.960860
     18          1           0        4.397292    1.793867   -1.047179
     19          1           0        3.905921   -0.560165   -1.279940
     20          1           0        3.461093    0.299357    1.629706
     21          1           0        3.862226   -1.330428    1.073954
     22          1           0        4.990348    0.012404    0.796083
     23          1           0        1.744743    1.210146    1.149690
     24          1           0       -0.850432    0.905646    1.946685
     25          1           0        0.072786   -0.349319    2.426790
     26          1           0       -1.035414   -2.854722   -0.718980
     27          1           0       -0.005873   -2.046464   -1.935085
     28          1           0        0.742469   -2.841224   -0.541423
     29          1           0       -2.498849   -1.905505    0.973368
     30          1           0       -4.717725   -0.800605    0.839192
     31          1           0       -4.946993    1.394931   -0.310908
     32          1           0       -2.950056    2.449293   -1.352940
     33          1           0       -0.747856    1.312029   -1.257443
 ---------------------------------------------------------------------

 SCF Done:  E(UB3LYP) =  -649.200172047     A.U. after   33 cycles
 SCF Done:  E(UB3LYP) =  -649.200172047     a.u. after    1 cycles

 The electronic state is 2-A.
 Alpha  occ. eigenvalues --  -14.25142 -14.23767 -14.23434 -14.17608 -10.16700
 Alpha  occ. eigenvalues --  -10.11520 -10.10636 -10.09418 -10.07994 -10.07982
 Alpha  occ. eigenvalues --  -10.07805 -10.07644 -10.07570 -10.06826 -10.06734
 Alpha  occ. eigenvalues --   -0.91224  -0.84808  -0.80052  -0.75243  -0.69671
 Alpha  occ. eigenvalues --   -0.66804  -0.65385  -0.64506  -0.59676  -0.59650
 Alpha  occ. eigenvalues --   -0.53702  -0.51414  -0.49726  -0.47348  -0.44525
 Alpha  occ. eigenvalues --   -0.41580  -0.39995  -0.39281  -0.37510  -0.37208
 Alpha  occ. eigenvalues --   -0.35570  -0.35200  -0.33927  -0.33346  -0.32751
 Alpha  occ. eigenvalues --   -0.32314  -0.30229  -0.30099  -0.29220  -0.27531
 Alpha  occ. eigenvalues --   -0.26654  -0.26457  -0.25455  -0.24849  -0.24126
 Alpha  occ. eigenvalues --   -0.20154  -0.17168  -0.16341  -0.14444  -0.14012
 Alpha  occ. eigenvalues --   -0.12176   0.04237
 Alpha virt. eigenvalues --    0.05806   0.06797   0.07174   0.07937   0.07984
 Alpha virt. eigenvalues --    0.08125   0.08256   0.09674   0.09691   0.09882
 Alpha virt. eigenvalues --    0.10609   0.11201   0.11798   0.12271   0.12661

  Beta  occ. eigenvalues --  -14.25135 -14.23768 -14.23410 -14.17602 -10.16697
  Beta  occ. eigenvalues --  -10.11484 -10.10630 -10.09398 -10.07974 -10.07967
  Beta  occ. eigenvalues --  -10.07804 -10.07605 -10.07528 -10.06804 -10.06710
  Beta  occ. eigenvalues --   -0.91204  -0.84781  -0.80025  -0.75190  -0.69633
  Beta  occ. eigenvalues --   -0.66764  -0.65326  -0.64436  -0.59630  -0.59615
  Beta  occ. eigenvalues --   -0.53650  -0.51355  -0.49667  -0.47318  -0.44485
  Beta  occ. eigenvalues --   -0.41528  -0.39951  -0.39237  -0.37471  -0.37178
  Beta  occ. eigenvalues --   -0.35525  -0.35148  -0.33892  -0.33306  -0.32716
  Beta  occ. eigenvalues --   -0.32281  -0.30203  -0.30073  -0.29188  -0.27424
  Beta  occ. eigenvalues --   -0.26619  -0.26415  -0.25411  -0.24821  -0.24097
  Beta  occ. eigenvalues --   -0.20100  -0.17072  -0.16235  -0.14420  -0.13973
  Beta  occ. eigenvalues --   -0.12116
  Beta virt. eigenvalues --    0.06195   0.06786   0.07454   0.07613   0.08021
  Beta virt. eigenvalues --    0.08222   0.08609   0.08666   0.09879   0.10214
  Beta virt. eigenvalues --    0.10348   0.10726   0.11303   0.12088   0.12514

 Mulliken charges and spin densities:
               1          2
     1  C    0.722220  -1.084182
     2  C   -1.168738   0.967257
     3  C    0.625196  -1.007373
     4  N    0.080499   0.009767
     5  C    0.339399  -1.038648
     6  N   -0.310366   0.168789
     7  N   -0.002960  -0.251846
     8  N    0.389564  -0.135681
     9  C    0.444428  -0.709463
    10  C   -1.353318   0.874963
    11  C   -1.218949   1.339364
    12  C    1.614998  -1.933740
    13  C    1.430281  -1.750148
    14  C   -0.782320   0.523168
    15  C   -0.064433   0.145576
    16  H   -0.188701   0.293962
    17  H   -0.004305   0.142392
    18  H   -0.219680   0.369395
    19  H   -0.064855   0.251785
    20  H   -0.030835   0.142817
    21  H   -0.085250   0.223159
    22  H   -0.115428   0.267142
    23  H    0.391623  -0.105739
    24  H    0.265880   0.003970
    25  H    0.006189   0.248315
    26  H    0.005642   0.108325
    27  H   -0.013330   0.181158
    28  H    0.069663   0.115235
    29  H   -0.709575   0.894527
    30  H   -0.613569   0.798240
    31  H   -0.302517   0.456094
    32  H   -0.428665   0.610686
    33  H    0.292210  -0.119267
 Sum of Mulliken charges =  -1.00000   1.00000

 Dipole moment (field-independent basis, Debye):
    X=              2.4081    Y=              0.2173    Z=             -1.1088  Tot=              2.6600
 Quadrupole moment (field-independent basis, Debye-Ang):
   XX=           -184.0341   YY=           -130.5742   ZZ=           -128.0565
   XY=             -2.4304   XZ=              4.7162   YZ=              4.2956

 Summary of Natural Population Analysis:

                                       Natural Population
                Natural  -----------------------------------------------
    Atom  No    Charge         Core      Valence    Rydberg      Total
 -----------------------------------------------------------------------
      C    1   -0.28725      0.99964     2.28298    0.00464     3.28725
      C    2   -0.02469      0.99960     2.01103    0.01406     3.02469
      C    3   -0.28895      0.99964     2.28465    0.00466     3.28895
      N    4   -0.29702      0.99965     2.78625    0.01113     3.79702
      C    5    0.31490      0.99954     1.66784    0.01772     2.68510
      N    6   -0.25138      0.99966     2.73915    0.01257     3.75138
      N    7   -0.31748      0.99978     2.80746    0.01024     3.81748
      N    8   -0.27259      0.99963     2.75768    0.01528     3.77259
      C    9   -0.16730      0.99963     2.16087    0.00680     3.16730
      C   10    0.08036      0.99945     1.90561    0.01458     2.91964
      C   11   -0.10503      0.99950     2.09447    0.01105     3.10503
      C   12   -0.09847      0.99956     2.08836    0.01055     3.09847
      C   13   -0.10307      0.99956     2.09300    0.01051     3.10307
      C   14   -0.09483      0.99956     2.08571    0.00955     3.09483
      C   15   -0.11287      0.99950     2.10397    0.00939     3.11287
      H   16    0.09116      0.00000     0.40737    0.00147     0.40884
      H   17    0.10345      0.00000     0.39536    0.00119     0.39655
      H   18    0.09872      0.00000     0.40000    0.00128     0.40128
      H   19    0.08910      0.00000     0.40882    0.00208     0.41090
      H   20    0.09103      0.00000     0.40774    0.00123     0.40897
      H   21    0.10334      0.00000     0.39545    0.00121     0.39666
      H   22    0.09939      0.00000     0.39941    0.00120     0.40061
      H   23    0.18590      0.00000     0.31076    0.00334     0.31410
      H   24    0.17852      0.00000     0.31908    0.00240     0.32148
      H   25    0.17259      0.00000     0.32473    0.00268     0.32741
      H   26    0.09485      0.00000     0.40404    0.00111     0.40515
      H   27    0.09265      0.00000     0.40592    0.00144     0.40735
      H   28    0.10464      0.00000     0.39400    0.00136     0.39536
      H   29    0.10639      0.00000     0.39141    0.00221     0.39361
      H   30    0.10331      0.00000     0.39484    0.00185     0.39669
      H   31    0.10147      0.00000     0.39722    0.00131     0.39853
      H   32    0.10071      0.00000     0.39829    0.00100     0.39929
      H   33    0.10845      0.00000     0.38978    0.00178     0.39155
 =======================================================================
   * Total *    0.00000     14.99391    40.81321    0.19288    56.00000

 Normal termination of Gaussian 16 at Thu Dec 10 15:40:05 2020.
