 Gaussian 16, Revision A.03,

 -----------------------------------------------------------
 # opt freq B3LYP/6-31G(d) empiricaldispersion=gd3bj scf=xqc
 -----------------------------------------------------------

 -------------------------------
 CID_104671527_JID_6101_neutraal
 -------------------------------
 Symbolic Z-matrix:
 Charge =  0 Multiplicity = 1

 SCF Done:  E(RB3LYP) =  -724.277828034     A.U. after   16 cycles
 SCF Done:  E(RB3LYP) =  -724.284506744     A.U. after   13 cycles
 SCF Done:  E(RB3LYP) =  -724.285674464     A.U. after   13 cycles
 SCF Done:  E(RB3LYP) =  -724.286146826     A.U. after   12 cycles
 SCF Done:  E(RB3LYP) =  -724.286311137     A.U. after   12 cycles
 SCF Done:  E(RB3LYP) =  -724.286400108     A.U. after   12 cycles
 SCF Done:  E(RB3LYP) =  -724.286438204     A.U. after   10 cycles
 SCF Done:  E(RB3LYP) =  -724.286470003     A.U. after   10 cycles
 SCF Done:  E(RB3LYP) =  -724.286496379     A.U. after   10 cycles
 SCF Done:  E(RB3LYP) =  -724.286526545     A.U. after   11 cycles
 SCF Done:  E(RB3LYP) =  -724.286576292     A.U. after   10 cycles
 SCF Done:  E(RB3LYP) =  -724.286588092     A.U. after   10 cycles
 SCF Done:  E(RB3LYP) =  -724.286594011     A.U. after   10 cycles
 SCF Done:  E(RB3LYP) =  -724.286594681     A.U. after    8 cycles
 SCF Done:  E(RB3LYP) =  -724.286594772     A.U. after    7 cycles
 Optimization completed.
    -- Stationary point found.
 Normal termination of Gaussian 16 at Thu Dec 10 21:15:51 2020.

 --------------------------------------------------------------------
 #N Geom=AllCheck Guess=TCheck SCRF=Check GenChk RB3LYP/6-31G(d) Freq
 --------------------------------------------------------------------

 Structure from the checkpoint file:  "JID_6101.chk"
 -------------------------------
 CID_104671527_JID_6101_neutraal
 -------------------------------
 Charge =  0 Multiplicity = 1

 SCF Done:  E(RB3LYP) =  -724.286594772     A.U. after    1 cycles

  Exact polarizability: 156.409  -8.943 148.553  -9.593  -8.667 118.488
 Approx polarizability: 217.054 -15.494 236.727 -28.426 -12.522 184.594

                      1                      2                      3
                      A                      A                      A
 Frequencies --     32.8184                43.7283                56.3649
 Red. masses --      3.6447                 4.0891                 3.3875
 Frc consts  --      0.0023                 0.0046                 0.0063
 IR Inten    --      0.0016                 0.4968                 1.6657

                      4                      5                      6
                      A                      A                      A
 Frequencies --     74.8044                77.7247                80.0996
 Red. masses --      1.4268                 4.5598                 1.8683
 Frc consts  --      0.0047                 0.0162                 0.0071
 IR Inten    --      1.6975                 0.9449                 1.4441

                      7                      8                      9
                      A                      A                      A
 Frequencies --    117.2620               123.4666               141.1898
 Red. masses --      1.5964                 3.0671                 1.6551
 Frc consts  --      0.0129                 0.0275                 0.0194
 IR Inten    --      4.1683                 0.3024                 1.0793

                     10                     11                     12
                      A                      A                      A
 Frequencies --    170.6452               190.5133               218.8797
 Red. masses --      2.8531                 2.0464                 2.7585
 Frc consts  --      0.0489                 0.0438                 0.0779
 IR Inten    --      4.3017                 0.3767                 2.2477

                     13                     14                     15
                      A                      A                      A
 Frequencies --    256.7007               272.3710               286.6565
 Red. masses --      2.2888                 1.2135                 3.0267
 Frc consts  --      0.0889                 0.0530                 0.1465
 IR Inten    --      2.4779                25.4912                 4.3585

                     16                     17                     18
                      A                      A                      A
 Frequencies --    299.8063               324.0416               357.8341
 Red. masses --      1.6393                 3.6069                 4.4882
 Frc consts  --      0.0868                 0.2231                 0.3386
 IR Inten    --     11.1718                 8.0673                 1.4552

                     19                     20                     21
                      A                      A                      A
 Frequencies --    383.9838               405.3404               421.3263
 Red. masses --      2.8480                 4.3628                 3.2843
 Frc consts  --      0.2474                 0.4223                 0.3435
 IR Inten    --     12.0780                 0.4501                 2.7415

                     22                     23                     24
                      A                      A                      A
 Frequencies --    456.8911               505.3125               512.4602
 Red. masses --      4.4543                 4.2943                 4.1881
 Frc consts  --      0.5478                 0.6461                 0.6480
 IR Inten    --      0.1436                 8.6515                 4.7960

                     25                     26                     27
                      A                      A                      A
 Frequencies --    586.6751               619.8127               674.3546
 Red. masses --      3.2190                 4.1865                 3.5021
 Frc consts  --      0.6528                 0.9476                 0.9383
 IR Inten    --     13.2511                32.2873                13.2177

                     28                     29                     30
                      A                      A                      A
 Frequencies --    718.2667               743.5427               771.9025
 Red. masses --      3.4655                 4.9706                 1.9622
 Frc consts  --      1.0534                 1.6191                 0.6888
 IR Inten    --      5.1593                 6.0866                36.4772

                     31                     32                     33
                      A                      A                      A
 Frequencies --    783.5076               794.5482               805.5220
 Red. masses --      3.3913                 1.9860                 2.3048
 Frc consts  --      1.2266                 0.7387                 0.8811
 IR Inten    --      2.6075                 8.2575                50.3769

                     34                     35                     36
                      A                      A                      A
 Frequencies --    844.6572               882.5645               931.2835
 Red. masses --      1.6496                 1.3473                 2.6225
 Frc consts  --      0.6934                 0.6183                 1.3401
 IR Inten    --     37.5029                67.8118                16.8433

                     37                     38                     39
                      A                      A                      A
 Frequencies --    937.9041               953.0368               976.5062
 Red. masses --      1.6242                 1.8456                 1.8269
 Frc consts  --      0.8418                 0.9877                 1.0264
 IR Inten    --     14.6772                 2.6203                24.0885

                     40                     41                     42
                      A                      A                      A
 Frequencies --   1006.2947              1043.5818              1047.1648
 Red. masses --      1.7398                 2.1087                 1.4551
 Frc consts  --      1.0380                 1.3530                 0.9401
 IR Inten    --      3.2296                 0.7642                 3.2801

                     43                     44                     45
                      A                      A                      A
 Frequencies --   1065.9358              1073.3244              1077.8528
 Red. masses --      1.9309                 1.5213                 1.5417
 Frc consts  --      1.2926                 1.0326                 1.0553
 IR Inten    --      2.1233                 7.8550                 0.1330

                     46                     47                     48
                      A                      A                      A
 Frequencies --   1098.0171              1130.0414              1147.1477
 Red. masses --      1.6138                 2.9204                 2.0498
 Frc consts  --      1.1464                 2.1972                 1.5893
 IR Inten    --     12.4444                 2.5759                 0.8854

                     49                     50                     51
                      A                      A                      A
 Frequencies --   1164.2157              1181.1521              1233.5406
 Red. masses --      8.7207                 3.1167                 1.5233
 Frc consts  --      6.9642                 2.5619                 1.3657
 IR Inten    --     12.5996                 6.2996                 3.2658

                     52                     53                     54
                      A                      A                      A
 Frequencies --   1249.9823              1275.3058              1299.5042
 Red. masses --      1.9159                 5.0646                 1.2458
 Frc consts  --      1.7637                 4.8532                 1.2395
 IR Inten    --      6.5998                 6.1199                 4.9047

                     55                     56                     57
                      A                      A                      A
 Frequencies --   1318.4597              1351.1043              1366.9644
 Red. masses --      1.3199                 1.5573                 1.9492
 Frc consts  --      1.3519                 1.6750                 2.1460
 IR Inten    --     11.7730                41.9779                26.2372

                     58                     59                     60
                      A                      A                      A
 Frequencies --   1378.2188              1406.1590              1419.3450
 Red. masses --      1.4936                 1.6426                 1.6825
 Frc consts  --      1.6716                 1.9137                 1.9970
 IR Inten    --      8.6324                27.2860                68.0691

                     61                     62                     63
                      A                      A                      A
 Frequencies --   1430.7978              1438.7030              1442.1768
 Red. masses --      1.4868                 1.4688                 1.4833
 Frc consts  --      1.7934                 1.7913                 1.8176
 IR Inten    --     20.0210                28.9885                14.4654

                     64                     65                     66
                      A                      A                      A
 Frequencies --   1446.0507              1456.7465              1483.8710
 Red. masses --      1.4953                 2.8998                 1.6982
 Frc consts  --      1.8422                 3.6257                 2.2030
 IR Inten    --     14.4649                62.2884               116.6021

                     67                     68                     69
                      A                      A                      A
 Frequencies --   1505.1855              1508.7391              1512.9719
 Red. masses --      1.2432                 1.0600                 1.0766
 Frc consts  --      1.6595                 1.4217                 1.4520
 IR Inten    --     15.7878                 5.4798                 9.5611

                     70                     71                     72
                      A                      A                      A
 Frequencies --   1515.8099              1519.4872              1526.2838
 Red. masses --      1.0493                 1.0625                 1.0597
 Frc consts  --      1.4205                 1.4454                 1.4544
 IR Inten    --      7.1235                 0.7926                 3.0422

                     73                     74                     75
                      A                      A                      A
 Frequencies --   1534.5889              1540.8674              1583.9302
 Red. masses --      1.0762                 1.0624                 5.0448
 Frc consts  --      1.4933                 1.4861                 7.4570
 IR Inten    --      8.9294                 3.8833                 5.3730

                     76                     77                     78
                      A                      A                      A
 Frequencies --   1642.4042              1699.0007              1767.3826
 Red. masses --      6.0742                 1.0886                 9.5514
 Frc consts  --      9.6539                 1.8514                17.5783
 IR Inten    --      6.8421                36.2372               397.6243

                     79                     80                     81
                      A                      A                      A
 Frequencies --   3014.0577              3048.5585              3050.4593
 Red. masses --      1.0699                 1.0418                 1.0392
 Frc consts  --      5.7268                 5.7044                 5.6972
 IR Inten    --     49.5533                15.1660                15.7434

                     82                     83                     84
                      A                      A                      A
 Frequencies --   3051.0184              3058.0947              3080.5634
 Red. masses --      1.0574                 1.0429                 1.0915
 Frc consts  --      5.7996                 5.7463                 6.1029
 IR Inten    --     27.4678                14.7587                11.2225

                     85                     86                     87
                      A                      A                      A
 Frequencies --   3090.8287              3097.6582              3102.9073
 Red. masses --      1.0941                 1.0924                 1.1010
 Frc consts  --      6.1583                 6.1760                 6.2454
 IR Inten    --     18.5055                25.4481                16.3195

                     88                     89                     90
                      A                      A                      A
 Frequencies --   3114.7850              3123.0790              3124.2444
 Red. masses --      1.1024                 1.1010                 1.0925
 Frc consts  --      6.3016                 6.3272                 6.2830
 IR Inten    --     58.9383                27.4790                 6.9834

                     91                     92                     93
                      A                      A                      A
 Frequencies --   3160.3010              3169.2270              3189.0557
 Red. masses --      1.0997                 1.1037                 1.0916
 Frc consts  --      6.4712                 6.5317                 6.5408
 IR Inten    --      5.9103                 7.0987                 7.2918

                     94                     95                     96
                      A                      A                      A
 Frequencies --   3491.2969              3529.3322              3575.5241
 Red. masses --      1.0503                 1.0748                 1.0929
 Frc consts  --      7.5426                 7.8882                 8.2321
 IR Inten    --      0.3185                90.8363                 0.7837

 - Thermochemistry -
 -------------------
 Temperature   298.150 Kelvin.  Pressure   1.00000 Atm.
 Atom     1 has atomic number  6 and mass  12.00000

 Molecular mass:   222.14806 amu.
 Principal axes and moments of inertia in atomic units:
                           1         2         3
     Eigenvalues --  2490.093905321.840395834.95888
           X            0.99984   0.00436   0.01707
           Y           -0.00288   0.99630  -0.08594
           Z           -0.01738   0.08588   0.99615
 This molecule is an asymmetric top.
 Rotational symmetry number  1.
 Warning -- assumption of classical behavior for rotation
           may cause significant error
 Rotational temperatures (Kelvin)      0.03478     0.01628     0.01484
 Rotational constants (GHZ):           0.72477     0.33912     0.30930
 Zero-point vibrational energy     764375.5 (Joules/Mol)
                                  182.69013 (Kcal/Mol)
 Warning -- explicit consideration of  26 degrees of freedom as
           vibrations may cause significant error
 Vibrational temperatures:     47.22    62.92    81.10   107.63   111.83
          (Kelvin)            115.25   168.71   177.64   203.14   245.52
                              274.11   314.92   369.34   391.88   412.43
                              431.35   466.22   514.84   552.47   583.19
                              606.19   657.36   727.03   737.32   844.09
                              891.77   970.25  1033.43  1069.79  1110.60
                             1127.29  1143.18  1158.97  1215.27  1269.81
                             1339.91  1349.43  1371.21  1404.97  1447.83
                             1501.48  1506.64  1533.64  1544.27  1550.79
                             1579.80  1625.88  1650.49  1675.05  1699.41
                             1774.79  1798.45  1834.88  1869.70  1896.97
                             1943.94  1966.76  1982.95  2023.15  2042.12
                             2058.60  2069.97  2074.97  2080.54  2095.93
                             2134.96  2165.63  2170.74  2176.83  2180.91
                             2186.20  2195.98  2207.93  2216.96  2278.92
                             2363.05  2444.48  2542.87  4336.56  4386.20
                             4388.93  4389.73  4399.92  4432.24  4447.01
                             4456.84  4464.39  4481.48  4493.41  4495.09
                             4546.97  4559.81  4588.34  5023.20  5077.92
                             5144.38

 Zero-point correction=                           0.291135 (Hartree/Particle)
 Thermal correction to Energy=                    0.308501
 Thermal correction to Enthalpy=                  0.309445
 Thermal correction to Gibbs Free Energy=         0.244985
 Sum of electronic and zero-point Energies=           -723.995460
 Sum of electronic and thermal Energies=              -723.978093
 Sum of electronic and thermal Enthalpies=            -723.977149
 Sum of electronic and thermal Free Energies=         -724.041610

                     E (Thermal)             CV                S
                      KCal/Mol        Cal/Mol-Kelvin    Cal/Mol-Kelvin
 Total                  193.587             63.138            135.668
 Electronic               0.000              0.000              0.000
 Translational            0.889              2.981             42.097
 Rotational               0.889              2.981             32.714
 Vibrational            191.810             57.176             60.857
 Vibration     1          0.594              1.983              5.651
 Vibration     2          0.595              1.980              5.083
 Vibration     3          0.596              1.975              4.581
 Vibration     4          0.599              1.966              4.023
 Vibration     5          0.599              1.964              3.948
 Vibration     6          0.600              1.963              3.888
 Vibration     7          0.608              1.935              3.145
 Vibration     8          0.610              1.929              3.045
 Vibration     9          0.615              1.912              2.788
 Vibration    10          0.626              1.879              2.428
 Vibration    11          0.634              1.853              2.223
 Vibration    12          0.647              1.812              1.968
 Vibration    13          0.666              1.751              1.684
 Vibration    14          0.675              1.724              1.581
 Vibration    15          0.684              1.698              1.494
 Vibration    16          0.692              1.674              1.418
 Vibration    17          0.709              1.627              1.290
 Vibration    18          0.733              1.559              1.131
 Vibration    19          0.753              1.504              1.023
 Vibration    20          0.770              1.459              0.943
 Vibration    21          0.784              1.424              0.887
 Vibration    22          0.815              1.346              0.775
 Vibration    23          0.861              1.238              0.645
 Vibration    24          0.868              1.222              0.628
 Vibration    25          0.944              1.060              0.473
 Vibration    26          0.980              0.990              0.417

                           ! Non-Optimized Parameters !
 Normal termination of Gaussian 16 at Thu Dec 10 21:27:25 2020.

 ----------------------------------------------------------------------
 # B3LYP/6-311++G(d,p) empiricaldispersion=gd3bj scf=xqc pop=npa geom=c
 heck
 ----------------------------------------------------------------------

 ---------------------------------------
 CID_104671527_JID_6101_Energie_neutraal
 ---------------------------------------
 Structure from the checkpoint file:  "JID_6101.chk"
 Charge =  0 Multiplicity = 1

 SCF Done:  E(RB3LYP) =  -724.495297892     A.U. after   16 cycles
 Normal termination of Gaussian 16 at Thu Dec 10 21:32:44 2020.

 ----------------------------------------------------------------------
 # B3LYP/6-311++G(d,p) empiricaldispersion=gd3bj scf=xqc pop=npa geom=c
 heck
 ----------------------------------------------------------------------

 -------------------------------------
 CID_104671527_JID_6101_Energie_kation
 -------------------------------------
 Structure from the checkpoint file:  "JID_6101.chk"
 Charge =  1 Multiplicity = 2

 SCF Done:  E(UB3LYP) =  -724.189604241     A.U. after   29 cycles
 Normal termination of Gaussian 16 at Thu Dec 10 21:47:28 2020.
 Gaussian 16:  ES64L-G16RevA.03 25-Dec-2016

 ----------------------------------------------------------------------
 # B3LYP/6-311++G(d,p) empiricaldispersion=gd3bj scf=xqc pop=npa geom=c
 heck
 ----------------------------------------------------------------------

 ------------------------------------
 CID_104671527_JID_6101_Energie_anion
 ------------------------------------
 Structure from the checkpoint file:  "JID_6101.chk"
 Charge = -1 Multiplicity = 2

                         Standard orientation:
 ---------------------------------------------------------------------
 Center     Atomic      Atomic             Coordinates (Angstroms)
 Number     Number       Type             X           Y           Z
 ---------------------------------------------------------------------
      1          6           0        2.259020    1.026999    2.440451
      2          6           0        1.913815   -0.020626    1.379324
      3          6           0        1.782105    0.546562   -0.047105
      4          6           0        3.069584    1.196506   -0.575633
      5          7           0        4.116731    0.181576   -0.740955
      6          7           0        1.414035   -0.498881   -1.003314
      7          6           0        0.234354   -1.180592   -1.069467
      8          8           0        0.123197   -2.263139   -1.635446
      9          6           0       -0.970368   -0.510305   -0.462437
     10          6           0       -1.757044   -1.166303    0.510633
     11          7           0       -2.852408   -0.596305    1.023593
     12          7           0       -3.259402    0.606373    0.609595
     13          6           0       -2.570846    1.264290   -0.328836
     14          6           0       -1.399403    0.732309   -0.888528
     15          6           0       -3.115847    2.602836   -0.746888
     16          6           0       -1.413552   -2.533109    1.034574
     17          1           0        3.259927    1.448895    2.294831
     18          1           0        2.231149    0.587118    3.442530
     19          1           0        1.542734    1.857286    2.423234
     20          1           0        2.658375   -0.827152    1.374222
     21          1           0        0.958548   -0.492929    1.636719
     22          1           0        1.002306    1.314557   -0.040228
     23          1           0        2.854777    1.615832   -1.564003
     24          1           0        3.349141    2.034277    0.080795
     25          1           0        4.863215    0.536274   -1.333059
     26          1           0        4.540477   -0.042991    0.156768
     27          1           0        2.216335   -1.009678   -1.366152
     28          1           0       -0.849006    1.281774   -1.647888
     29          1           0       -3.391419    2.602119   -1.808402
     30          1           0       -4.003195    2.834033   -0.154171
     31          1           0       -2.374556    3.397959   -0.602241
     32          1           0       -2.137340   -2.812322    1.802289
     33          1           0       -1.425332   -3.266499    0.223398
     34          1           0       -0.405314   -2.554185    1.465965
 ---------------------------------------------------------------------

 SCF Done:  E(UB3LYP) =  -724.504256511     A.U. after   33 cycles
 SCF Done:  E(UB3LYP) =  -724.504256721     a.u. after    2 cycles

 The electronic state is 2-A.
 Alpha  occ. eigenvalues --  -18.96373 -14.21263 -14.20594 -14.18765 -14.18390
 Alpha  occ. eigenvalues --  -10.14664 -10.10928 -10.10367 -10.08317 -10.08192
 Alpha  occ. eigenvalues --  -10.07292 -10.07205 -10.06033 -10.04923 -10.04717
 Alpha  occ. eigenvalues --  -10.04567  -0.91527  -0.86733  -0.82149  -0.78331
 Alpha  occ. eigenvalues --   -0.70857  -0.69078  -0.68470  -0.62129  -0.61503
 Alpha  occ. eigenvalues --   -0.57439  -0.54843  -0.53756  -0.49311  -0.48450
 Alpha  occ. eigenvalues --   -0.45737  -0.41654  -0.39757  -0.38684  -0.36391
 Alpha  occ. eigenvalues --   -0.35429  -0.35142  -0.34027  -0.33218  -0.32438
 Alpha  occ. eigenvalues --   -0.31020  -0.30612  -0.29923  -0.29305  -0.28578
 Alpha  occ. eigenvalues --   -0.28373  -0.27918  -0.27459  -0.26523  -0.25823
 Alpha  occ. eigenvalues --   -0.25342  -0.24243  -0.23874  -0.17156  -0.16880
 Alpha  occ. eigenvalues --   -0.16321  -0.14436  -0.14085  -0.13284  -0.09244
 Alpha  occ. eigenvalues --    0.03589
 Alpha virt. eigenvalues --    0.05056   0.07342   0.07655   0.08630   0.09300
 Alpha virt. eigenvalues --    0.09931   0.10403   0.10596   0.11392   0.11795
 Alpha virt. eigenvalues --    0.12366   0.12663   0.12865   0.13885   0.14098

  Beta  occ. eigenvalues --  -18.96265 -14.21249 -14.20545 -14.18512 -14.17997
  Beta  occ. eigenvalues --  -10.14610 -10.10926 -10.10354 -10.08390 -10.08266
  Beta  occ. eigenvalues --  -10.07278 -10.07195 -10.06028 -10.04652 -10.04563
  Beta  occ. eigenvalues --  -10.04488  -0.91327  -0.86173  -0.82075  -0.78236
  Beta  occ. eigenvalues --   -0.70598  -0.68783  -0.68218  -0.62052  -0.61413
  Beta  occ. eigenvalues --   -0.57190  -0.54790  -0.53250  -0.49101  -0.48397
  Beta  occ. eigenvalues --   -0.45608  -0.41606  -0.39628  -0.38495  -0.36253
  Beta  occ. eigenvalues --   -0.35362  -0.35099  -0.33902  -0.33084  -0.32161
  Beta  occ. eigenvalues --   -0.30918  -0.30515  -0.29877  -0.29254  -0.28513
  Beta  occ. eigenvalues --   -0.28267  -0.27861  -0.27213  -0.26406  -0.25235
  Beta  occ. eigenvalues --   -0.25006  -0.24027  -0.23841  -0.16712  -0.16321
  Beta  occ. eigenvalues --   -0.15324  -0.14062  -0.13493  -0.12616  -0.08795
  Beta virt. eigenvalues --    0.05953   0.07647   0.07666   0.08603   0.08874
  Beta virt. eigenvalues --    0.09433   0.10043   0.10511   0.10783   0.11505
  Beta virt. eigenvalues --    0.11819   0.12365   0.12681   0.12858   0.13977

 Mulliken charges and spin densities:
               1          2
     1  C   -0.362243  -0.280277
     2  C   -0.620010   0.322581
     3  C    0.171846  -0.003861
     4  C    0.394923  -1.103440
     5  N   -0.470183   0.091271
     6  N   -0.116089   0.047544
     7  C   -0.665992   0.061077
     8  O   -0.335812   0.038290
     9  C    1.107304   0.210335
    10  C   -0.549779  -0.049271
    11  N   -0.052998   0.107410
    12  N   -0.049338   0.181928
    13  C   -0.328077  -0.074644
    14  C    0.148261   0.202619
    15  C   -0.601292  -0.003459
    16  C   -0.499597   0.020525
    17  H   -0.074220   0.216817
    18  H    0.066974   0.068563
    19  H    0.107189   0.036064
    20  H    0.124485   0.032964
    21  H    0.168166  -0.016962
    22  H    0.276725  -0.116096
    23  H    0.030604   0.159947
    24  H   -0.035126   0.174236
    25  H   -0.133716   0.382353
    26  H   -0.032848   0.261040
    27  H    0.325008   0.023246
    28  H    0.156937   0.007147
    29  H    0.135897  -0.000591
    30  H    0.146643  -0.002008
    31  H    0.126384  -0.000314
    32  H    0.158394  -0.004306
    33  H    0.187809  -0.000853
    34  H    0.093773   0.010128
 Sum of Mulliken charges =  -1.00000   1.00000

 Dipole moment (field-independent basis, Debye):
    X=              1.4576    Y=              2.9685    Z=              0.7484  Tot=              3.3907
 Quadrupole moment (field-independent basis, Debye-Ang):
   XX=           -172.3694   YY=           -119.7980   ZZ=           -121.4789
   XY=             -3.2163   XZ=             11.5773   YZ=             -8.6977

 Summary of Natural Population Analysis:

                                       Natural Population
                Natural  -----------------------------------------------
    Atom  No    Charge         Core      Valence    Rydberg      Total
 -----------------------------------------------------------------------
      C    1   -0.28889      0.99967     2.28418    0.00504     3.28889
      C    2   -0.19947      0.99961     2.19131    0.00855     3.19947
      C    3   -0.01441      0.99958     2.00307    0.01176     3.01441
      C    4   -0.09191      0.99961     2.08005    0.01226     3.09191
      N    5   -0.43137      0.99977     2.92043    0.01116     3.93137
      N    6   -0.32505      0.99966     2.81497    0.01041     3.82505
      C    7    0.34904      0.99962     1.62864    0.02269     2.65096
      O    8   -0.31355      0.99988     3.30818    0.00549     4.31355
      C    9   -0.02192      0.99940     2.01038    0.01214     3.02192
      C   10    0.08309      0.99952     1.90087    0.01651     2.91691
      N   11   -0.10840      0.99968     2.59293    0.01579     3.60840
      N   12   -0.08881      0.99968     2.57278    0.01635     3.58881
      C   13    0.06922      0.99956     1.91814    0.01308     2.93078
      C   14   -0.06484      0.99947     2.05692    0.00846     3.06484
      C   15   -0.29486      0.99964     2.29057    0.00466     3.29486
      C   16   -0.29983      0.99963     2.29562    0.00457     3.29983
      H   17    0.09519      0.00000     0.40387    0.00094     0.40481
      H   18    0.09929      0.00000     0.40003    0.00068     0.40071
      H   19    0.09740      0.00000     0.40174    0.00086     0.40260
      H   20    0.09570      0.00000     0.40315    0.00115     0.40430
      H   21    0.10564      0.00000     0.39285    0.00152     0.39436
      H   22    0.10327      0.00000     0.39468    0.00204     0.39673
      H   23    0.09521      0.00000     0.40366    0.00113     0.40479
      H   24    0.08434      0.00000     0.41443    0.00123     0.41566
      H   25    0.18037      0.00000     0.31700    0.00263     0.31963
      H   26    0.17690      0.00000     0.32070    0.00240     0.32310
      H   27    0.20049      0.00000     0.29662    0.00289     0.29951
      H   28    0.09432      0.00000     0.40364    0.00204     0.40568
      H   29    0.09735      0.00000     0.40165    0.00100     0.40265
      H   30    0.10679      0.00000     0.39154    0.00167     0.39321
      H   31    0.09596      0.00000     0.40308    0.00096     0.40404
      H   32    0.10458      0.00000     0.39411    0.00131     0.39542
      H   33    0.11172      0.00000     0.38732    0.00096     0.38828
      H   34    0.09741      0.00000     0.40167    0.00092     0.40259
 =======================================================================
   * Total *   -0.00000     15.99398    43.80076    0.20525    60.00000

 Normal termination of Gaussian 16 at Thu Dec 10 22:16:38 2020.
