 Gaussian 16, Revision A.03,

 -----------------------------------------------------------
 # opt freq B3LYP/6-31G(d) empiricaldispersion=gd3bj scf=xqc
 -----------------------------------------------------------

 -------------------------------
 CID_113285368_JID_7164_neutraal
 -------------------------------
 Symbolic Z-matrix:
 Charge =  0 Multiplicity = 1

 SCF Done:  E(RB3LYP) =  -741.309793814     A.U. after   15 cycles
 SCF Done:  E(RB3LYP) =  -741.318901773     A.U. after   13 cycles
 SCF Done:  E(RB3LYP) =  -741.320058730     A.U. after   12 cycles
 SCF Done:  E(RB3LYP) =  -741.320316151     A.U. after   12 cycles
 SCF Done:  E(RB3LYP) =  -741.320737574     A.U. after   11 cycles
 SCF Done:  E(RB3LYP) =  -741.320857324     A.U. after   11 cycles
 SCF Done:  E(RB3LYP) =  -741.320873047     A.U. after   10 cycles
 SCF Done:  E(RB3LYP) =  -741.320881714     A.U. after    9 cycles
 SCF Done:  E(RB3LYP) =  -741.320889396     A.U. after    9 cycles
 SCF Done:  E(RB3LYP) =  -741.320894450     A.U. after   10 cycles
 SCF Done:  E(RB3LYP) =  -741.320896684     A.U. after    9 cycles
 SCF Done:  E(RB3LYP) =  -741.320897294     A.U. after    8 cycles
 SCF Done:  E(RB3LYP) =  -741.320897354     A.U. after    6 cycles
 Optimization completed.
    -- Stationary point found.
 Normal termination of Gaussian 16 at Fri Dec 11 11:53:26 2020.

 --------------------------------------------------------------------
 #N Geom=AllCheck Guess=TCheck SCRF=Check GenChk RB3LYP/6-31G(d) Freq
 --------------------------------------------------------------------

 Structure from the checkpoint file:  "JID_7164.chk"
 -------------------------------
 CID_113285368_JID_7164_neutraal
 -------------------------------
 Charge =  0 Multiplicity = 1

 SCF Done:  E(RB3LYP) =  -741.320897354     A.U. after    1 cycles

  Exact polarizability: 237.968  12.088 130.360   6.305 -21.063 115.835
 Approx polarizability: 337.093  18.686 206.810   8.592 -51.807 187.877

                      1                      2                      3
                      A                      A                      A
 Frequencies --     25.3377                50.2677                64.0677
 Red. masses --      3.8697                 4.3976                 2.7306
 Frc consts  --      0.0015                 0.0065                 0.0066
 IR Inten    --      0.6198                 0.3416                 2.4049

                      4                      5                      6
                      A                      A                      A
 Frequencies --     99.2887               111.7363               121.6830
 Red. masses --      2.8768                 4.0599                 3.6677
 Frc consts  --      0.0167                 0.0299                 0.0320
 IR Inten    --      0.5903                 0.8304                 2.2718

                      7                      8                      9
                      A                      A                      A
 Frequencies --    170.4453               231.3845               241.2327
 Red. masses --      2.0209                 1.9142                 2.1144
 Frc consts  --      0.0346                 0.0604                 0.0725
 IR Inten    --      0.1331                 0.6374                 1.9746

                     10                     11                     12
                      A                      A                      A
 Frequencies --    253.3784               258.7784               294.4218
 Red. masses --      4.5492                 2.7920                 2.5365
 Frc consts  --      0.1721                 0.1102                 0.1295
 IR Inten    --      0.5077                 4.4315                 1.9156

                     13                     14                     15
                      A                      A                      A
 Frequencies --    341.4266               351.9000               387.4883
 Red. masses --      4.7648                 5.4020                 3.6918
 Frc consts  --      0.3273                 0.3941                 0.3266
 IR Inten    --      1.5111                 3.1670                 8.9040

                     16                     17                     18
                      A                      A                      A
 Frequencies --    414.0617               446.0059               566.1756
 Red. masses --      1.9549                 3.4724                 2.3057
 Frc consts  --      0.1975                 0.4070                 0.4355
 IR Inten    --     11.4930                 5.1380                 2.3202

                     19                     20                     21
                      A                      A                      A
 Frequencies --    575.6983               576.8526               601.1618
 Red. masses --      4.5729                 4.4413                 5.6560
 Frc consts  --      0.8930                 0.8707                 1.2043
 IR Inten    --      3.0942                 2.4154                 0.2141

                     22                     23                     24
                      A                      A                      A
 Frequencies --    643.1789               655.3004               698.5110
 Red. masses --      2.4013                 4.4579                 2.7081
 Frc consts  --      0.5853                 1.1279                 0.7785
 IR Inten    --      9.8971                12.0863                 3.8590

                     25                     26                     27
                      A                      A                      A
 Frequencies --    723.0603               732.5464               751.3225
 Red. masses --      1.9208                 6.5428                 1.6028
 Frc consts  --      0.5917                 2.0686                 0.5331
 IR Inten    --    144.4353                18.7761                19.7700

                     28                     29                     30
                      A                      A                      A
 Frequencies --    760.2805               812.1546               849.3534
 Red. masses --      3.5068                 4.6235                 1.4006
 Frc consts  --      1.1943                 1.7968                 0.5953
 IR Inten    --     55.1702                 7.1621                 1.9490

                     31                     32                     33
                      A                      A                      A
 Frequencies --    867.8316               892.5534               907.3510
 Red. masses --      2.1810                 1.7470                 2.2633
 Frc consts  --      0.9678                 0.8200                 1.0978
 IR Inten    --      1.1880                 2.0544                 3.8925

                     34                     35                     36
                      A                      A                      A
 Frequencies --    919.8664               926.9529               934.9466
 Red. masses --      1.3020                 4.2988                 3.3410
 Frc consts  --      0.6491                 2.1763                 1.7207
 IR Inten    --      1.2257                 4.0840                 1.1862

                     37                     38                     39
                      A                      A                      A
 Frequencies --    949.0003               966.5572               972.3468
 Red. masses --      2.2814                 2.4373                 1.2433
 Frc consts  --      1.2105                 1.3416                 0.6926
 IR Inten    --     11.0063                 8.9154                 0.1013

                     40                     41                     42
                      A                      A                      A
 Frequencies --   1005.9632              1020.1643              1042.5626
 Red. masses --      1.6337                 2.8617                 2.0143
 Frc consts  --      0.9741                 1.7547                 1.2900
 IR Inten    --     17.1581                 5.8901                 2.8265

                     43                     44                     45
                      A                      A                      A
 Frequencies --   1048.1377              1114.8946              1129.0119
 Red. masses --      1.9366                 1.6130                 2.9512
 Frc consts  --      1.2535                 1.1813                 2.2164
 IR Inten    --      5.1379                 9.4852                 8.3339

                     46                     47                     48
                      A                      A                      A
 Frequencies --   1148.1351              1160.8981              1173.0263
 Red. masses --      1.5456                 1.4428                 1.3270
 Frc consts  --      1.2004                 1.1456                 1.0758
 IR Inten    --      2.9261                 1.6133                 6.0290

                     49                     50                     51
                      A                      A                      A
 Frequencies --   1175.5946              1192.9312              1219.3772
 Red. masses --      1.6223                 2.6695                 2.2511
 Frc consts  --      1.3210                 2.2382                 1.9720
 IR Inten    --     23.0584                20.5887                28.1830

                     52                     53                     54
                      A                      A                      A
 Frequencies --   1229.3037              1237.0707              1245.6655
 Red. masses --      3.3641                 1.5409                 2.5853
 Frc consts  --      2.9953                 1.3893                 2.3636
 IR Inten    --      9.9406                 3.3504                55.5971

                     55                     56                     57
                      A                      A                      A
 Frequencies --   1278.1058              1289.5338              1318.1412
 Red. masses --      1.3935                 2.3449                 1.3391
 Frc consts  --      1.3411                 2.2974                 1.3708
 IR Inten    --      2.9078                59.8141                 3.5984

                     58                     59                     60
                      A                      A                      A
 Frequencies --   1343.4460              1351.1712              1355.3534
 Red. masses --      1.3045                 1.4209                 2.1761
 Frc consts  --      1.3872                 1.5284                 2.3552
 IR Inten    --      6.0464                 7.8165                 7.5755

                     61                     62                     63
                      A                      A                      A
 Frequencies --   1363.9507              1373.6129              1394.1853
 Red. masses --      2.0417                 1.3608                 1.8329
 Frc consts  --      2.2379                 1.5128                 2.0991
 IR Inten    --     65.2509                10.4492                41.0156

                     64                     65                     66
                      A                      A                      A
 Frequencies --   1404.3342              1420.7809              1442.2192
 Red. masses --      1.5079                 1.3725                 3.2556
 Frc consts  --      1.7521                 1.6324                 3.9897
 IR Inten    --     31.5655                27.6309                15.7299

                     67                     68                     69
                      A                      A                      A
 Frequencies --   1481.0711              1504.5425              1507.4552
 Red. masses --      1.1413                 2.9540                 1.1372
 Frc consts  --      1.4750                 3.9398                 1.5225
 IR Inten    --      1.0458                 2.7777                12.6278

                     70                     71                     72
                      A                      A                      A
 Frequencies --   1516.3037              1518.4333              1521.2177
 Red. masses --      1.0911                 1.1477                 1.1123
 Frc consts  --      1.4781                 1.5591                 1.5165
 IR Inten    --      2.8674                23.8495                 8.2801

                     73                     74                     75
                      A                      A                      A
 Frequencies --   1527.9446              1550.5576              1554.6504
 Red. masses --      1.1048                 1.0703                 1.1840
 Frc consts  --      1.5197                 1.5161                 1.6861
 IR Inten    --      5.1731                 9.6002                34.2012

                     76                     77                     78
                      A                      A                      A
 Frequencies --   1559.5422              1588.7695              1629.9036
 Red. masses --      3.7914                 5.0912                 8.6341
 Frc consts  --      5.4331                 7.5717                13.5143
 IR Inten    --     72.0301               238.0495               881.9519

                     79                     80                     81
                      A                      A                      A
 Frequencies --   1692.9834              3002.2865              3002.8883
 Red. masses --      6.8083                 1.0760                 1.0620
 Frc consts  --     11.4972                 5.7141                 5.6424
 IR Inten    --     45.9694               103.1842                30.5170

                     82                     83                     84
                      A                      A                      A
 Frequencies --   3005.9562              3036.4402              3049.7403
 Red. masses --      1.0684                 1.0716                 1.0686
 Frc consts  --      5.6880                 5.8210                 5.8556
 IR Inten    --     23.1852                62.7385                32.5189

                     85                     86                     87
                      A                      A                      A
 Frequencies --   3064.9306              3070.8506              3113.2526
 Red. masses --      1.0625                 1.0862                 1.0918
 Frc consts  --      5.8809                 6.0349                 6.2348
 IR Inten    --     35.8116                57.8769                28.5225

                     88                     89                     90
                      A                      A                      A
 Frequencies --   3116.9290              3117.6544              3123.4855
 Red. masses --      1.0962                 1.1011                 1.1028
 Frc consts  --      6.2749                 6.3054                 6.3391
 IR Inten    --     28.6515                33.8613                41.9738

                     91                     92                     93
                      A                      A                      A
 Frequencies --   3126.1117              3207.7041              3232.0172
 Red. masses --      1.0939                 1.0883                 1.0906
 Frc consts  --      6.2986                 6.5979                 6.7124
 IR Inten    --      8.4953                 7.8534                 5.3629

                     94                     95                     96
                      A                      A                      A
 Frequencies --   3238.9054              3260.9017              3515.3091
 Red. masses --      1.0946                 1.0958                 1.0736
 Frc consts  --      6.7657                 6.8654                 7.8168
 IR Inten    --      3.9537                 1.8075                 2.9782

 - Thermochemistry -
 -------------------
 Temperature   298.150 Kelvin.  Pressure   1.00000 Atm.
 Atom     1 has atomic number  6 and mass  12.00000

 Molecular mass:   231.14840 amu.
 Principal axes and moments of inertia in atomic units:
                           1         2         3
     Eigenvalues --  1808.728136287.195226993.24398
           X            0.99999   0.00491   0.00011
           Y           -0.00491   0.99999   0.00222
           Z           -0.00010  -0.00222   1.00000
 This molecule is an asymmetric top.
 Rotational symmetry number  1.
 Warning -- assumption of classical behavior for rotation
           may cause significant error
 Rotational temperatures (Kelvin)      0.04789     0.01378     0.01239
 Rotational constants (GHZ):           0.99780     0.28705     0.25807
 Zero-point vibrational energy     765982.2 (Joules/Mol)
                                  183.07413 (Kcal/Mol)
 Warning -- explicit consideration of  21 degrees of freedom as
           vibrations may cause significant error
 Vibrational temperatures:     36.46    72.32    92.18   142.85   160.76
          (Kelvin)            175.07   245.23   332.91   347.08   364.55
                              372.32   423.61   491.24   506.31   557.51
                              595.74   641.70   814.60   828.30   829.96
                              864.94   925.39   942.83  1005.00  1040.32
                             1053.97  1080.99  1093.87  1168.51  1222.03
                             1248.62  1284.19  1305.48  1323.48  1333.68
                             1345.18  1365.40  1390.66  1398.99  1447.36
                             1467.79  1500.02  1508.04  1604.08  1624.40
                             1651.91  1670.27  1687.72  1691.42  1716.36
                             1754.41  1768.69  1779.87  1792.23  1838.91
                             1855.35  1896.51  1932.92  1944.03  1950.05
                             1962.42  1976.32  2005.92  2020.52  2044.19
                             2075.03  2130.93  2164.70  2168.89  2181.62
                             2184.69  2188.69  2198.37  2230.91  2236.80
                             2243.83  2285.88  2345.07  2435.83  4319.62
                             4320.49  4324.90  4368.76  4387.90  4409.75
                             4418.27  4479.28  4484.57  4485.61  4494.00
                             4497.78  4615.17  4650.15  4660.06  4691.71
                             5057.75

 Zero-point correction=                           0.291747 (Hartree/Particle)
 Thermal correction to Energy=                    0.306399
 Thermal correction to Enthalpy=                  0.307344
 Thermal correction to Gibbs Free Energy=         0.248994
 Sum of electronic and zero-point Energies=           -741.029150
 Sum of electronic and thermal Energies=              -741.014498
 Sum of electronic and thermal Enthalpies=            -741.013554
 Sum of electronic and thermal Free Energies=         -741.071904

                     E (Thermal)             CV                S
                      KCal/Mol        Cal/Mol-Kelvin    Cal/Mol-Kelvin
 Total                  192.269             57.295            122.807
 Electronic               0.000              0.000              0.000
 Translational            0.889              2.981             42.216
 Rotational               0.889              2.981             32.742
 Vibrational            190.491             51.334             47.850
 Vibration     1          0.593              1.985              6.165
 Vibration     2          0.595              1.977              4.807
 Vibration     3          0.597              1.971              4.328
 Vibration     4          0.604              1.950              3.468
 Vibration     5          0.607              1.940              3.239
 Vibration     6          0.609              1.931              3.073
 Vibration     7          0.626              1.879              2.431
 Vibration     8          0.653              1.793              1.868
 Vibration     9          0.658              1.777              1.794
 Vibration    10          0.665              1.757              1.707
 Vibration    11          0.668              1.748              1.670
 Vibration    12          0.689              1.684              1.448
 Vibration    13          0.721              1.593              1.205
 Vibration    14          0.728              1.571              1.158
 Vibration    15          0.756              1.497              1.010
 Vibration    16          0.778              1.440              0.912
 Vibration    17          0.805              1.370              0.808
 Vibration    18          0.922              1.104              0.512
 Vibration    19          0.932              1.084              0.493
 Vibration    20          0.933              1.081              0.491
 Vibration    21          0.959              1.029              0.448

                           ! Non-Optimized Parameters !
 Normal termination of Gaussian 16 at Fri Dec 11 12:06:49 2020.

 ----------------------------------------------------------------------
 # B3LYP/6-311++G(d,p) empiricaldispersion=gd3bj scf=xqc pop=npa geom=c
 heck
 ----------------------------------------------------------------------

 ---------------------------------------
 CID_113285368_JID_7164_Energie_neutraal
 ---------------------------------------
 Structure from the checkpoint file:  "JID_7164.chk"
 Charge =  0 Multiplicity = 1

 SCF Done:  E(RB3LYP) =  -741.516656939     A.U. after   15 cycles
 Normal termination of Gaussian 16 at Fri Dec 11 12:13:13 2020.

 ----------------------------------------------------------------------
 # B3LYP/6-311++G(d,p) empiricaldispersion=gd3bj scf=xqc pop=npa geom=c
 heck
 ----------------------------------------------------------------------

 -------------------------------------
 CID_113285368_JID_7164_Energie_kation
 -------------------------------------
 Structure from the checkpoint file:  "JID_7164.chk"
 Charge =  1 Multiplicity = 2

 SCF Done:  E(UB3LYP) =  -741.260563519     A.U. after   23 cycles
 Normal termination of Gaussian 16 at Fri Dec 11 12:27:48 2020.
 Gaussian 16:  ES64L-G16RevA.03 25-Dec-2016

 ----------------------------------------------------------------------
 # B3LYP/6-311++G(d,p) empiricaldispersion=gd3bj scf=xqc pop=npa geom=c
 heck
 ----------------------------------------------------------------------

 ------------------------------------
 CID_113285368_JID_7164_Energie_anion
 ------------------------------------
 Structure from the checkpoint file:  "JID_7164.chk"
 Charge = -1 Multiplicity = 2

                         Standard orientation:
 ---------------------------------------------------------------------
 Center     Atomic      Atomic             Coordinates (Angstroms)
 Number     Number       Type             X           Y           Z
 ---------------------------------------------------------------------
      1          6           0       -1.785521    1.732234    1.839485
      2          7           0       -2.681338    2.053159    0.733600
      3          6           0       -2.247919    1.657917   -0.596626
      4          6           0       -2.178361    0.152284   -0.946184
      5          6           0       -3.505343   -0.601180   -0.740231
      6          6           0       -3.089213   -2.032312   -0.374548
      7          6           0       -1.835522   -1.814227    0.480014
      8          7           0       -1.240733   -0.622168   -0.117943
      9          6           0        0.095923   -0.413278   -0.116399
     10          7           0        0.925987   -1.182609    0.623665
     11          7           0        2.138036   -0.635429    0.327923
     12          6           0        3.337557   -1.042116    0.813252
     13          6           0        4.470441   -0.373004    0.414157
     14          6           0        4.368309    0.715350   -0.485302
     15          6           0        3.141336    1.119798   -0.971922
     16          6           0        1.984357    0.430841   -0.559447
     17          7           0        0.687700    0.575582   -0.846530
     18          1           0       -0.777487    2.074196    1.582235
     19          1           0       -1.711413    0.664712    2.099278
     20          1           0       -2.108488    2.280375    2.732638
     21          1           0       -3.624111    1.727459    0.928334
     22          1           0       -2.931458    2.117390   -1.324478
     23          1           0       -1.257799    2.087403   -0.770981
     24          1           0       -1.862639    0.086625   -1.998651
     25          1           0       -4.055037   -0.156180    0.098998
     26          1           0       -4.146173   -0.544097   -1.624390
     27          1           0       -3.869765   -2.588033    0.153568
     28          1           0       -2.825399   -2.592836   -1.278994
     29          1           0       -2.093340   -1.637634    1.535694
     30          1           0       -1.127570   -2.646606    0.448396
     31          1           0        3.310809   -1.882546    1.494539
     32          1           0        5.433211   -0.690252    0.796975
     33          1           0        5.268322    1.237229   -0.794759
     34          1           0        3.034518    1.949216   -1.660903
 ---------------------------------------------------------------------

 SCF Done:  E(UB3LYP) =  -741.508931171     A.U. after   33 cycles
 SCF Done:  E(UB3LYP) =  -741.508931171     a.u. after    1 cycles

 The electronic state is 2-A.
 Alpha  occ. eigenvalues --  -14.27152 -14.21361 -14.19579 -14.19237 -14.16736
 Alpha  occ. eigenvalues --  -10.13170 -10.11437 -10.09755 -10.09365 -10.08448
 Alpha  occ. eigenvalues --  -10.07967 -10.07943 -10.06874 -10.06677 -10.05928
 Alpha  occ. eigenvalues --  -10.05364 -10.04516  -0.95161  -0.85349  -0.79526
 Alpha  occ. eigenvalues --   -0.78275  -0.74591  -0.69110  -0.65674  -0.64578
 Alpha  occ. eigenvalues --   -0.62777  -0.58427  -0.54386  -0.52416  -0.51157
 Alpha  occ. eigenvalues --   -0.50996  -0.48168  -0.44488  -0.41236  -0.40387
 Alpha  occ. eigenvalues --   -0.38944  -0.38465  -0.37290  -0.35452  -0.34742
 Alpha  occ. eigenvalues --   -0.34102  -0.33413  -0.31965  -0.31657  -0.30147
 Alpha  occ. eigenvalues --   -0.29532  -0.28681  -0.27111  -0.26998  -0.25936
 Alpha  occ. eigenvalues --   -0.25482  -0.24716  -0.23764  -0.23168  -0.22571
 Alpha  occ. eigenvalues --   -0.20690  -0.19824  -0.17152  -0.15631  -0.12043
 Alpha  occ. eigenvalues --   -0.10952  -0.08454   0.04754
 Alpha virt. eigenvalues --    0.06095   0.07806   0.07883   0.08120   0.09132
 Alpha virt. eigenvalues --    0.09389   0.10252   0.10807   0.11122   0.11358
 Alpha virt. eigenvalues --    0.11467   0.11751   0.12885   0.13422   0.13691

  Beta  occ. eigenvalues --  -14.26882 -14.21360 -14.19575 -14.19228 -14.16707
  Beta  occ. eigenvalues --  -10.13165 -10.11483 -10.09752 -10.09357 -10.08165
  Beta  occ. eigenvalues --  -10.07964 -10.07939 -10.06852 -10.06648 -10.06000
  Beta  occ. eigenvalues --  -10.05168 -10.04301  -0.94898  -0.85282  -0.79481
  Beta  occ. eigenvalues --   -0.78129  -0.74430  -0.69019  -0.65455  -0.64434
  Beta  occ. eigenvalues --   -0.62499  -0.58406  -0.54314  -0.52311  -0.50955
  Beta  occ. eigenvalues --   -0.50689  -0.48043  -0.44447  -0.41160  -0.40299
  Beta  occ. eigenvalues --   -0.38828  -0.38345  -0.37178  -0.34841  -0.34610
  Beta  occ. eigenvalues --   -0.34069  -0.33249  -0.31934  -0.31584  -0.30111
  Beta  occ. eigenvalues --   -0.29471  -0.28612  -0.27014  -0.26906  -0.25818
  Beta  occ. eigenvalues --   -0.25441  -0.24674  -0.23440  -0.23108  -0.22380
  Beta  occ. eigenvalues --   -0.19821  -0.19699  -0.16777  -0.15589  -0.11956
  Beta  occ. eigenvalues --   -0.09922  -0.08146
  Beta virt. eigenvalues --    0.06935   0.07745   0.08164   0.08520   0.09257
  Beta virt. eigenvalues --    0.09344   0.09452   0.10330   0.11166   0.11265
  Beta virt. eigenvalues --    0.11358   0.11641   0.11861   0.12897   0.13509

 Mulliken charges and spin densities:
               1          2
     1  C   -0.297658  -0.123401
     2  N   -0.116791  -0.045971
     3  C   -0.131132  -0.490164
     4  C   -0.886518   1.076130
     5  C    0.950462  -1.396625
     6  C   -0.085485  -0.228699
     7  C    0.039517  -0.318478
     8  N    0.196670   0.010607
     9  C   -0.168981  -0.050014
    10  N   -0.048260   0.006043
    11  N    0.088714   0.054232
    12  C   -0.008186   0.257505
    13  C   -0.461438  -0.026277
    14  C   -0.159335   0.094284
    15  C   -0.272297   0.196448
    16  C    0.034997  -0.158337
    17  N   -0.146569   0.017181
    18  H    0.171629   0.000327
    19  H    0.053272   0.058597
    20  H    0.093532   0.050296
    21  H    0.054049   0.157529
    22  H   -0.016579   0.163653
    23  H    0.225840   0.005464
    24  H   -0.004230   0.215153
    25  H   -0.012712   0.114300
    26  H   -0.461600   0.632062
    27  H   -0.436319   0.608136
    28  H    0.064199   0.079017
    29  H    0.136641  -0.014526
    30  H    0.102574   0.071801
    31  H    0.135188  -0.011062
    32  H    0.118163   0.010586
    33  H    0.127509  -0.013197
    34  H    0.121135  -0.002603
 Sum of Mulliken charges =  -1.00000   1.00000

 Dipole moment (field-independent basis, Debye):
    X=              2.7859    Y=              0.6495    Z=              1.7115  Tot=              3.3335
 Quadrupole moment (field-independent basis, Debye-Ang):
   XX=           -170.7782   YY=           -132.4581   ZZ=           -124.6366
   XY=             -3.6035   XZ=             -3.8806   YZ=             -1.6255

 Summary of Natural Population Analysis:

                                       Natural Population
                Natural  -----------------------------------------------
    Atom  No    Charge         Core      Valence    Rydberg      Total
 -----------------------------------------------------------------------
      C    1   -0.18099      0.99966     2.17307    0.00826     3.18099
      N    2   -0.34136      0.99976     2.82989    0.01171     3.84136
      C    3   -0.09495      0.99959     2.08224    0.01312     3.09495
      C    4   -0.00396      0.99960     1.99175    0.01260     3.00396
      C    5   -0.19331      0.99961     2.18444    0.00926     3.19331
      C    6   -0.19296      0.99963     2.18504    0.00828     3.19296
      C    7   -0.07717      0.99963     2.06724    0.01030     3.07717
      N    8   -0.26475      0.99961     2.75407    0.01107     3.76475
      C    9    0.28036      0.99962     1.70085    0.01918     2.71964
      N   10   -0.20889      0.99971     2.69907    0.01011     3.70889
      N   11   -0.06332      0.99959     2.55197    0.01176     3.56332
      C   12    0.07078      0.99958     1.91856    0.01108     2.92922
      C   13   -0.15680      0.99959     2.14813    0.00908     3.15680
      C   14   -0.06442      0.99959     2.05581    0.00901     3.06442
      C   15   -0.09270      0.99953     2.08522    0.00795     3.09270
      C   16    0.17744      0.99959     1.80614    0.01683     2.82256
      N   17   -0.29933      0.99967     2.79141    0.00824     3.79933
      H   18    0.09698      0.00000     0.40212    0.00091     0.40302
      H   19    0.08420      0.00000     0.41445    0.00135     0.41580
      H   20    0.08624      0.00000     0.41299    0.00076     0.41376
      H   21    0.16973      0.00000     0.32805    0.00222     0.33027
      H   22    0.09091      0.00000     0.40804    0.00105     0.40909
      H   23    0.11016      0.00000     0.38855    0.00129     0.38984
      H   24    0.09564      0.00000     0.40230    0.00206     0.40436
      H   25    0.09174      0.00000     0.40635    0.00191     0.40826
      H   26    0.10475      0.00000     0.39347    0.00178     0.39525
      H   27    0.10037      0.00000     0.39842    0.00121     0.39963
      H   28    0.09671      0.00000     0.40211    0.00119     0.40329
      H   29    0.08513      0.00000     0.41353    0.00135     0.41487
      H   30    0.10633      0.00000     0.39222    0.00145     0.39367
      H   31    0.09780      0.00000     0.40134    0.00086     0.40220
      H   32    0.09784      0.00000     0.40126    0.00090     0.40216
      H   33    0.09154      0.00000     0.40755    0.00091     0.40846
      H   34    0.10025      0.00000     0.39851    0.00124     0.39975
 =======================================================================
   * Total *    0.00000     16.99355    44.79616    0.21029    62.00000

 Normal termination of Gaussian 16 at Fri Dec 11 12:55:30 2020.
