 Gaussian 16, Revision A.03,

 -----------------------------------------------------------
 # opt freq B3LYP/6-31G(d) empiricaldispersion=gd3bj scf=xqc
 -----------------------------------------------------------

 ------------------------------
 CID_81183734_JID_7885_neutraal
 ------------------------------
 Symbolic Z-matrix:
 Charge =  0 Multiplicity = 1

 SCF Done:  E(RB3LYP) =  -1482.70582497     A.U. after   15 cycles
 SCF Done:  E(RB3LYP) =  -1482.71332443     A.U. after   13 cycles
 SCF Done:  E(RB3LYP) =  -1482.71136028     A.U. after   14 cycles
 SCF Done:  E(RB3LYP) =  -1482.71473822     A.U. after   12 cycles
 SCF Done:  E(RB3LYP) =  -1482.71536697     A.U. after   12 cycles
 SCF Done:  E(RB3LYP) =  -1482.71682134     A.U. after   13 cycles
 SCF Done:  E(RB3LYP) =  -1482.71933863     A.U. after   14 cycles
 SCF Done:  E(RB3LYP) =  -1482.72321935     A.U. after   13 cycles
 SCF Done:  E(RB3LYP) =  -1482.72928460     A.U. after   13 cycles
 SCF Done:  E(RB3LYP) =  -1482.73245014     A.U. after   13 cycles
 SCF Done:  E(RB3LYP) =  -1482.73438587     A.U. after   11 cycles
 SCF Done:  E(RB3LYP) =  -1482.73439234     A.U. after   10 cycles
 SCF Done:  E(RB3LYP) =  -1482.73439730     A.U. after   10 cycles
 SCF Done:  E(RB3LYP) =  -1482.73439755     A.U. after    8 cycles
 SCF Done:  E(RB3LYP) =  -1482.73439759     A.U. after    8 cycles
 Optimization completed.
    -- Stationary point found.
 Normal termination of Gaussian 16 at Fri Dec 11 13:37:38 2020.

 --------------------------------------------------------------------
 #N Geom=AllCheck Guess=TCheck SCRF=Check GenChk RB3LYP/6-31G(d) Freq
 --------------------------------------------------------------------

 Structure from the checkpoint file:  "JID_7885.chk"
 ------------------------------
 CID_81183734_JID_7885_neutraal
 ------------------------------
 Charge =  0 Multiplicity = 1

 SCF Done:  E(RB3LYP) =  -1482.73439759     A.U. after    1 cycles

  Exact polarizability: 156.867  -8.738 179.857  26.696   9.827 137.480
 Approx polarizability: 237.098 -20.587 312.017  68.529  14.472 255.621

                      1                      2                      3
                      A                      A                      A
 Frequencies --     15.0372                37.1639                41.3305
 Red. masses --      6.9400                 1.1260                 3.3266
 Frc consts  --      0.0009                 0.0009                 0.0033
 IR Inten    --      0.3552                 0.0599                 0.2963

                      4                      5                      6
                      A                      A                      A
 Frequencies --     48.4494                87.8745               114.9051
 Red. masses --      7.7419                 6.2156                 5.5867
 Frc consts  --      0.0107                 0.0283                 0.0435
 IR Inten    --      0.3364                 1.8072                 0.6382

                      7                      8                      9
                      A                      A                      A
 Frequencies --    145.0032               179.7571               210.9388
 Red. masses --      3.9486                 5.5648                 5.5866
 Frc consts  --      0.0489                 0.1059                 0.1465
 IR Inten    --      1.5976                 1.9187                 2.0357

                     10                     11                     12
                      A                      A                      A
 Frequencies --    237.0030               263.2743               296.0050
 Red. masses --      8.6188                 7.4557                 6.4373
 Frc consts  --      0.2852                 0.3045                 0.3323
 IR Inten    --      1.7222                 1.8394                 0.7071

                     13                     14                     15
                      A                      A                      A
 Frequencies --    325.9346               331.7455               348.2910
 Red. masses --      3.0338                 4.8277                 2.6131
 Frc consts  --      0.1899                 0.3130                 0.1868
 IR Inten    --      6.8522                 1.3230                 1.4179

                     16                     17                     18
                      A                      A                      A
 Frequencies --    357.6436               417.4918               459.9729
 Red. masses --      5.4065                 4.4283                 1.3681
 Frc consts  --      0.4074                 0.4548                 0.1705
 IR Inten    --      0.6426                 9.4352                30.6324

                     19                     20                     21
                      A                      A                      A
 Frequencies --    476.2915               478.5949               491.9073
 Red. masses --      2.9815                 3.8353                 4.5447
 Frc consts  --      0.3985                 0.5176                 0.6479
 IR Inten    --     14.4360                 7.0760                 7.2842

                     22                     23                     24
                      A                      A                      A
 Frequencies --    532.7112               540.9056               573.9770
 Red. masses --      3.9957                 5.4874                 4.0356
 Frc consts  --      0.6681                 0.9459                 0.7833
 IR Inten    --     62.1772                55.9089                 8.1500

                     25                     26                     27
                      A                      A                      A
 Frequencies --    605.7810               624.6452               679.3666
 Red. masses --      6.1956                 6.4570                 4.6741
 Frc consts  --      1.3396                 1.4844                 1.2710
 IR Inten    --      3.3515                 5.6536                 2.1533

                     28                     29                     30
                      A                      A                      A
 Frequencies --    682.8039               703.7490               720.0737
 Red. masses --      1.9388                 2.9135                 3.4546
 Frc consts  --      0.5326                 0.8501                 1.0554
 IR Inten    --    120.5484                90.5751                 4.0589

                     31                     32                     33
                      A                      A                      A
 Frequencies --    737.2030               746.4049               780.4053
 Red. masses --      2.1321                 2.3573                 6.7593
 Frc consts  --      0.6827                 0.7738                 2.4255
 IR Inten    --    109.6709                13.2717                 8.5095

                     34                     35                     36
                      A                      A                      A
 Frequencies --    808.3133               830.9235               892.5192
 Red. masses --      3.0928                 1.5547                 4.6637
 Frc consts  --      1.1906                 0.6324                 2.1889
 IR Inten    --     30.9136                53.4312                 0.6665

                     37                     38                     39
                      A                      A                      A
 Frequencies --    897.7118               905.8867               924.1605
 Red. masses --      1.3217                 3.6842                 1.3785
 Frc consts  --      0.6276                 1.7813                 0.6937
 IR Inten    --      1.6618                 3.0544                 6.9143

                     40                     41                     42
                      A                      A                      A
 Frequencies --    925.4247               963.4483              1027.9267
 Red. masses --      2.1990                 1.3070                 1.4775
 Frc consts  --      1.1096                 0.7148                 0.9198
 IR Inten    --     21.8381                 0.6792                 4.5233

                     43                     44                     45
                      A                      A                      A
 Frequencies --   1066.1487              1079.4179              1088.8422
 Red. masses --      3.7946                 1.4876                 1.8956
 Frc consts  --      2.5413                 1.0212                 1.3241
 IR Inten    --     50.7590                 6.4793                12.9377

                     46                     47                     48
                      A                      A                      A
 Frequencies --   1103.1357              1123.2606              1129.5943
 Red. masses --      1.9473                 2.3037                 1.5986
 Frc consts  --      1.3962                 1.7125                 1.2018
 IR Inten    --     41.3142               170.0531                48.5550

                     49                     50                     51
                      A                      A                      A
 Frequencies --   1199.0457              1227.8537              1232.1022
 Red. masses --      1.1960                 2.0442                 1.3548
 Frc consts  --      1.0131                 1.8158                 1.2117
 IR Inten    --     19.3686                 3.6005                 1.2876

                     52                     53                     54
                      A                      A                      A
 Frequencies --   1251.7740              1280.3938              1301.6269
 Red. masses --      2.5883                 2.6805                 2.6908
 Frc consts  --      2.3895                 2.5891                 2.6860
 IR Inten    --      5.0886                87.3635                 1.0117

                     55                     56                     57
                      A                      A                      A
 Frequencies --   1318.2003              1352.4451              1362.0902
 Red. masses --      2.3629                 1.9249                 2.0543
 Frc consts  --      2.4191                 2.0744                 2.2456
 IR Inten    --     58.1761                36.0299                 2.2167

                     58                     59                     60
                      A                      A                      A
 Frequencies --   1378.3356              1445.6637              1463.2475
 Red. masses --      4.0063                 1.2509                 2.8752
 Frc consts  --      4.4843                 1.5403                 3.6270
 IR Inten    --     11.5791                 1.7340                25.5904

                     61                     62                     63
                      A                      A                      A
 Frequencies --   1469.8944              1485.0732              1515.9664
 Red. masses --      1.2228                 4.1595                 1.0449
 Frc consts  --      1.5565                 5.4048                 1.4148
 IR Inten    --     10.3727                 3.3223                 5.1084

                     64                     65                     66
                      A                      A                      A
 Frequencies --   1527.0617              1551.1728              1567.4891
 Red. masses --      1.1225                 2.9488                 6.6001
 Frc consts  --      1.5422                 4.1804                 9.5546
 IR Inten    --      8.0934               100.8568                27.0825

                     67                     68                     69
                      A                      A                      A
 Frequencies --   1623.0935              1674.0903              1697.1792
 Red. masses --      5.3322                 2.7321                 1.4956
 Frc consts  --      8.2764                 4.5112                 2.5382
 IR Inten    --     15.0787                10.7562               136.0281

                     70                     71                     72
                      A                      A                      A
 Frequencies --   3043.4699              3095.2990              3099.7669
 Red. masses --      1.0385                 1.1002                 1.0581
 Frc consts  --      5.6676                 6.2107                 5.9903
 IR Inten    --     37.7637                19.0848                 0.5407

                     73                     74                     75
                      A                      A                      A
 Frequencies --   3130.4782              3167.6289              3175.0902
 Red. masses --      1.1006                 1.1086                 1.0868
 Frc consts  --      6.3548                 6.5540                 6.4551
 IR Inten    --     13.1659                 2.7112                11.0510

                     76                     77                     78
                      A                      A                      A
 Frequencies --   3192.0516              3216.8129              3238.4414
 Red. masses --      1.0945                 1.0904                 1.0914
 Frc consts  --      6.5705                 6.6481                 6.7438
 IR Inten    --     21.7592                 2.1809                 8.0691

                     79                     80                     81
                      A                      A                      A
 Frequencies --   3281.7550              3510.9050              3635.8002
 Red. masses --      1.0980                 1.0524                 1.0949
 Frc consts  --      6.9671                 7.6433                 8.5276
 IR Inten    --      1.2787                63.9885                34.4369

 - Thermochemistry -
 -------------------
 Temperature   298.150 Kelvin.  Pressure   1.00000 Atm.
 Atom     1 has atomic number  6 and mass  12.00000

 Molecular mass:   268.03402 amu.
 Principal axes and moments of inertia in atomic units:
                           1         2         3
     Eigenvalues --  3729.815714655.024676152.32399
           X            0.99850  -0.05461   0.00461
           Y            0.05425   0.99678   0.05906
           Z           -0.00782  -0.05872   0.99824
 This molecule is an asymmetric top.
 Rotational symmetry number  1.
 Warning -- assumption of classical behavior for rotation
           may cause significant error
 Rotational temperatures (Kelvin)      0.02322     0.01861     0.01408
 Rotational constants (GHZ):           0.48387     0.38770     0.29334
 Zero-point vibrational energy     578817.1 (Joules/Mol)
                                  138.34060 (Kcal/Mol)
 Warning -- explicit consideration of  25 degrees of freedom as
           vibrations may cause significant error
 Vibrational temperatures:     21.64    53.47    59.47    69.71   126.43
          (Kelvin)            165.32   208.63   258.63   303.49   340.99
                              378.79   425.89   468.95   477.31   501.11
                              514.57   600.68   661.80   685.28   688.59
                              707.74   766.45   778.24   825.82   871.58
                              898.73   977.46   982.40  1012.54  1036.03
                             1060.67  1073.91  1122.83  1162.98  1195.51
                             1284.14  1291.61  1303.37  1329.66  1331.48
                             1386.19  1478.96  1533.95  1553.04  1566.60
                             1587.17  1616.12  1625.23  1725.16  1766.61
                             1772.72  1801.02  1842.20  1872.75  1896.60
                             1945.87  1959.74  1983.12  2079.99  2105.29
                             2114.85  2136.69  2181.14  2197.10  2231.79
                             2255.27  2335.27  2408.64  2441.86  4378.87
                             4453.44  4459.87  4504.06  4557.51  4568.25
                             4592.65  4628.28  4659.39  4721.71  5051.41
                             5231.11

 Zero-point correction=                           0.220460 (Hartree/Particle)
 Thermal correction to Energy=                    0.236566
 Thermal correction to Enthalpy=                  0.237510
 Thermal correction to Gibbs Free Energy=         0.174603
 Sum of electronic and zero-point Energies=          -1482.513938
 Sum of electronic and thermal Energies=             -1482.497832
 Sum of electronic and thermal Enthalpies=           -1482.496887
 Sum of electronic and thermal Free Energies=        -1482.559794

                     E (Thermal)             CV                S
                      KCal/Mol        Cal/Mol-Kelvin    Cal/Mol-Kelvin
 Total                  148.447             60.972            132.399
 Electronic               0.000              0.000              0.000
 Translational            0.889              2.981             42.657
 Rotational               0.889              2.981             33.035
 Vibrational            146.670             55.011             56.707
 Vibration     1          0.593              1.986              7.201
 Vibration     2          0.594              1.982              5.405
 Vibration     3          0.594              1.981              5.194
 Vibration     4          0.595              1.978              4.880
 Vibration     5          0.601              1.958              3.707
 Vibration     6          0.608              1.937              3.184
 Vibration     7          0.616              1.908              2.737
 Vibration     8          0.629              1.867              2.331
 Vibration     9          0.643              1.824              2.036
 Vibration    10          0.656              1.784              1.825
 Vibration    11          0.670              1.740              1.640
 Vibration    12          0.690              1.681              1.439
 Vibration    13          0.710              1.624              1.280
 Vibration    14          0.714              1.612              1.252
 Vibration    15          0.726              1.579              1.174
 Vibration    16          0.733              1.560              1.132
 Vibration    17          0.781              1.432              0.901
 Vibration    18          0.818              1.339              0.766
 Vibration    19          0.833              1.303              0.720
 Vibration    20          0.835              1.298              0.714
 Vibration    21          0.848              1.268              0.679
 Vibration    22          0.888              1.178              0.581
 Vibration    23          0.896              1.160              0.563
 Vibration    24          0.930              1.088              0.497
 Vibration    25          0.964              1.020              0.440

 Optimization completed.
    -- Stationary point found.
 Normal termination of Gaussian 16 at Fri Dec 11 13:48:09 2020.

 ----------------------------------------------------------------------
 # B3LYP/6-311++G(d,p) empiricaldispersion=gd3bj scf=xqc pop=npa geom=c
 heck
 ----------------------------------------------------------------------

 --------------------------------------
 CID_81183734_JID_7885_Energie_neutraal
 --------------------------------------
 Structure from the checkpoint file:  "JID_7885.chk"
 Charge =  0 Multiplicity = 1

 SCF Done:  E(RB3LYP) =  -1482.97962120     A.U. after   16 cycles
 Normal termination of Gaussian 16 at Fri Dec 11 13:52:32 2020.

 ----------------------------------------------------------------------
 # B3LYP/6-311++G(d,p) empiricaldispersion=gd3bj scf=xqc pop=npa geom=c
 heck
 ----------------------------------------------------------------------

 ------------------------------------
 CID_81183734_JID_7885_Energie_kation
 ------------------------------------
 Structure from the checkpoint file:  "JID_7885.chk"
 Charge =  1 Multiplicity = 2

 SCF Done:  E(UB3LYP) =  -1482.68383402     A.U. after   27 cycles
 Normal termination of Gaussian 16 at Fri Dec 11 14:02:23 2020.
 Gaussian 16:  ES64L-G16RevA.03 25-Dec-2016

 ----------------------------------------------------------------------
 # B3LYP/6-311++G(d,p) empiricaldispersion=gd3bj scf=xqc pop=npa geom=c
 heck
 ----------------------------------------------------------------------

 -----------------------------------
 CID_81183734_JID_7885_Energie_anion
 -----------------------------------
 Structure from the checkpoint file:  "JID_7885.chk"
 Charge = -1 Multiplicity = 2

                         Standard orientation:
 ---------------------------------------------------------------------
 Center     Atomic      Atomic             Coordinates (Angstroms)
 Number     Number       Type             X           Y           Z
 ---------------------------------------------------------------------
      1          6           0        2.196771   -2.913353   -1.600983
      2          6           0        2.055011   -1.698157   -0.718366
      3          6           0        1.250449   -0.623019   -1.083956
      4          6           0        1.134228    0.502195   -0.264099
      5          6           0        1.829853    0.608281    0.958598
      6          6           0        2.627865   -0.490662    1.326167
      7          6           0        2.730207   -1.607847    0.509683
      8          7           0        1.680621    1.703127    1.799590
      9         16           0       -0.023020    1.765578   -0.748324
     10          8           0        0.558266    3.092487   -0.442063
     11          8           0       -0.520490    1.465092   -2.095009
     12          6           0       -1.392989    1.541990    0.466738
     13          6           0       -2.053508    0.214438    0.380077
     14          7           0       -3.116551   -0.022423   -0.338155
     15          6           0       -3.484727   -1.342567   -0.256931
     16          6           0       -2.698433   -2.134201    0.533442
     17         16           0       -1.416572   -1.196187    1.219110
     18          1           0        1.477359   -2.888537   -2.424762
     19          1           0        3.200714   -2.976528   -2.039740
     20          1           0        2.031182   -3.839231   -1.037614
     21          1           0        0.683156   -0.640605   -2.008805
     22          1           0        3.172586   -0.452563    2.266388
     23          1           0        3.358112   -2.435292    0.832002
     24          1           0        2.381109    1.773413    2.526563
     25          1           0        1.509782    2.582961    1.319678
     26          1           0       -0.938561    1.735932    1.441542
     27          1           0       -2.103987    2.333272    0.216834
     28          1           0       -4.356405   -1.681687   -0.804072
     29          1           0       -2.800636   -3.189541    0.743738
 ---------------------------------------------------------------------

 SCF Done:  E(UB3LYP) =  -1482.98209171     A.U. after   33 cycles
 SCF Done:  E(UB3LYP) =  -1482.98209171     a.u. after    1 cycles

 The electronic state is 2-A.
 Alpha  occ. eigenvalues --  -88.90511 -88.74171 -18.98405 -18.98300 -14.20390
 Alpha  occ. eigenvalues --  -14.17487 -10.09971 -10.09418 -10.08217 -10.07133
 Alpha  occ. eigenvalues --  -10.06476 -10.05940 -10.05879 -10.05226 -10.04527
 Alpha  occ. eigenvalues --  -10.04294 -10.04192  -7.97054  -7.82830  -5.93348
 Alpha  occ. eigenvalues --   -5.93195  -5.93144  -5.79101  -5.78753  -5.78459
 Alpha  occ. eigenvalues --   -0.97392  -0.87313  -0.82959  -0.80912  -0.72632
 Alpha  occ. eigenvalues --   -0.67443  -0.66457  -0.64592  -0.63302  -0.58661
 Alpha  occ. eigenvalues --   -0.56480  -0.52790  -0.48705  -0.46357  -0.45525
 Alpha  occ. eigenvalues --   -0.42279  -0.40623  -0.39523  -0.37542  -0.36720
 Alpha  occ. eigenvalues --   -0.35818  -0.33786  -0.33073  -0.32192  -0.31503
 Alpha  occ. eigenvalues --   -0.31055  -0.30806  -0.29379  -0.27417  -0.27243
 Alpha  occ. eigenvalues --   -0.26567  -0.26362  -0.24776  -0.23251  -0.22968
 Alpha  occ. eigenvalues --   -0.20493  -0.19427  -0.19333  -0.17985  -0.16968
 Alpha  occ. eigenvalues --   -0.15540  -0.14463  -0.13832  -0.11612  -0.09452
 Alpha  occ. eigenvalues --    0.04979
 Alpha virt. eigenvalues --    0.07510   0.07904   0.08049   0.08875   0.09739
 Alpha virt. eigenvalues --    0.10471   0.10894   0.11321   0.11882   0.12264
 Alpha virt. eigenvalues --    0.13082   0.13516   0.13956   0.14438   0.14688

  Beta  occ. eigenvalues --  -88.90461 -88.74127 -18.98373 -18.98290 -14.20351
  Beta  occ. eigenvalues --  -14.17378 -10.09923 -10.09162 -10.08172 -10.07151
  Beta  occ. eigenvalues --  -10.06267 -10.05935 -10.05742 -10.05297 -10.04472
  Beta  occ. eigenvalues --  -10.04109 -10.03928  -7.97003  -7.82789  -5.93312
  Beta  occ. eigenvalues --   -5.93135  -5.93037  -5.79083  -5.78736  -5.78306
  Beta  occ. eigenvalues --   -0.97289  -0.87272  -0.82671  -0.80808  -0.72382
  Beta  occ. eigenvalues --   -0.67108  -0.66160  -0.64429  -0.62929  -0.58422
  Beta  occ. eigenvalues --   -0.56289  -0.52340  -0.48528  -0.46027  -0.45353
  Beta  occ. eigenvalues --   -0.42053  -0.40519  -0.39341  -0.37380  -0.36550
  Beta  occ. eigenvalues --   -0.35481  -0.33662  -0.32968  -0.32094  -0.31407
  Beta  occ. eigenvalues --   -0.30995  -0.30674  -0.29120  -0.27182  -0.26806
  Beta  occ. eigenvalues --   -0.26287  -0.26063  -0.24599  -0.22992  -0.22858
  Beta  occ. eigenvalues --   -0.20359  -0.19272  -0.18806  -0.17873  -0.16612
  Beta  occ. eigenvalues --   -0.14679  -0.14258  -0.12661  -0.10630  -0.08902
  Beta virt. eigenvalues --    0.07453   0.08014   0.08793   0.09426   0.09762
  Beta virt. eigenvalues --    0.09820   0.10546   0.10922   0.11406   0.11831
  Beta virt. eigenvalues --    0.12270   0.13101   0.13573   0.13960   0.14470

 Mulliken charges and spin densities:
               1          2
     1  C   -0.446988   0.014601
     2  C    0.121736  -0.060929
     3  C   -0.292888   0.137595
     4  C    0.042760   0.105924
     5  C   -0.143851  -0.017302
     6  C   -0.206016   0.081193
     7  C   -0.688696   0.232251
     8  N   -0.303981   0.031496
     9  S    0.722234  -0.164424
    10  O   -0.226899   0.016422
    11  O   -0.101743  -0.013279
    12  C   -0.950137   0.025740
    13  C   -0.455632   0.172951
    14  N    0.078646   0.049456
    15  C   -0.153963  -0.022939
    16  C   -0.318311   0.174111
    17  S    0.371296   0.090567
    18  H    0.128453   0.000068
    19  H    0.129016   0.010309
    20  H    0.129337   0.000283
    21  H    0.216946  -0.009875
    22  H    0.062098   0.040210
    23  H    0.120103  -0.018546
    24  H    0.181179   0.057745
    25  H    0.236573   0.031583
    26  H    0.198823   0.044151
    27  H    0.241810  -0.006530
    28  H    0.117757   0.005226
    29  H    0.190340  -0.008058
 Sum of Mulliken charges =  -1.00000   1.00000

 Dipole moment (field-independent basis, Debye):
    X=              1.8267    Y=             -2.6252    Z=              2.9321  Tot=              4.3389
 Quadrupole moment (field-independent basis, Debye-Ang):
   XX=           -144.6676   YY=           -136.8337   ZZ=           -132.5436
   XY=              1.5813   XZ=              1.6424   YZ=              9.5035

 Summary of Natural Population Analysis:

                                       Natural Population
                Natural  -----------------------------------------------
    Atom  No    Charge         Core      Valence    Rydberg      Total
 -----------------------------------------------------------------------
      C    1   -0.28607      0.99964     2.28178    0.00465     3.28607
      C    2   -0.05461      0.99951     2.04671    0.00839     3.05461
      C    3   -0.04564      0.99947     2.03751    0.00866     3.04564
      C    4   -0.15169      0.99935     2.13533    0.01701     3.15169
      C    5    0.09436      0.99945     1.89345    0.01274     2.90564
      C    6   -0.11999      0.99953     2.11180    0.00865     3.11999
      C    7   -0.03497      0.99953     2.02713    0.00830     3.03497
      N    8   -0.40602      0.99971     2.89688    0.00943     3.90602
      S    9    1.04950      4.99916     1.85840    0.09294     6.95050
      O   10   -0.48892      0.99991     3.48259    0.00642     4.48892
      O   11   -0.46639      0.99991     3.45951    0.00697     4.46639
      C   12   -0.29994      0.99951     2.28612    0.01431     3.29994
      C   13    0.05202      0.99960     1.92805    0.02032     2.94798
      N   14   -0.22667      0.99965     2.71550    0.01152     3.72667
      C   15   -0.03370      0.99955     2.01972    0.01444     3.03370
      C   16   -0.18329      0.99956     2.17342    0.01032     3.18329
      S   17    0.20654      4.99943     2.77177    0.02226     7.79346
      H   18    0.10011      0.00000     0.39902    0.00087     0.39989
      H   19    0.09486      0.00000     0.40405    0.00109     0.40514
      H   20    0.09624      0.00000     0.40277    0.00099     0.40376
      H   21    0.10962      0.00000     0.38933    0.00104     0.39038
      H   22    0.08952      0.00000     0.40885    0.00163     0.41048
      H   23    0.08829      0.00000     0.41082    0.00089     0.41171
      H   24    0.17967      0.00000     0.31882    0.00150     0.32033
      H   25    0.20234      0.00000     0.29555    0.00211     0.29766
      H   26    0.12054      0.00000     0.37770    0.00176     0.37946
      H   27    0.12169      0.00000     0.37700    0.00131     0.37831
      H   28    0.09063      0.00000     0.40823    0.00115     0.40937
      H   29    0.10193      0.00000     0.39695    0.00112     0.39807
 =======================================================================
   * Total *    0.00000     24.99246    44.71477    0.29277    70.00000

 Normal termination of Gaussian 16 at Fri Dec 11 14:14:29 2020.
