 Gaussian 16, Revision A.03,

 -----------------------------------------------------------
 # opt freq B3LYP/6-31G(d) empiricaldispersion=gd3bj scf=xqc
 -----------------------------------------------------------

 ------------------------------
 CID_79026491_JID_7802_neutraal
 ------------------------------
 Symbolic Z-matrix:
 Charge =  0 Multiplicity = 1

 SCF Done:  E(RB3LYP) =  -1593.98572294     A.U. after   15 cycles
 SCF Done:  E(RB3LYP) =  -1593.99153718     A.U. after   12 cycles
 SCF Done:  E(RB3LYP) =  -1593.99256824     A.U. after   12 cycles
 SCF Done:  E(RB3LYP) =  -1593.99284731     A.U. after   12 cycles
 SCF Done:  E(RB3LYP) =  -1593.99314148     A.U. after   11 cycles
 SCF Done:  E(RB3LYP) =  -1593.99333587     A.U. after   12 cycles
 SCF Done:  E(RB3LYP) =  -1593.99352619     A.U. after   13 cycles
 SCF Done:  E(RB3LYP) =  -1593.99359157     A.U. after   12 cycles
 SCF Done:  E(RB3LYP) =  -1593.99359439     A.U. after   12 cycles
 SCF Done:  E(RB3LYP) =  -1593.99376422     A.U. after   11 cycles
 SCF Done:  E(RB3LYP) =  -1593.99644066     A.U. after    9 cycles
 SCF Done:  E(RB3LYP) =  -1593.99644315     A.U. after   10 cycles
 SCF Done:  E(RB3LYP) =  -1593.99644394     A.U. after    9 cycles
 SCF Done:  E(RB3LYP) =  -1593.99644415     A.U. after    9 cycles
 SCF Done:  E(RB3LYP) =  -1593.99644418     A.U. after    7 cycles
 Optimization completed.
    -- Stationary point found.
 Normal termination of Gaussian 16 at Fri Dec 11 13:20:06 2020.

 --------------------------------------------------------------------
 #N Geom=AllCheck Guess=TCheck SCRF=Check GenChk RB3LYP/6-31G(d) Freq
 --------------------------------------------------------------------

 Structure from the checkpoint file:  "JID_7802.chk"
 ------------------------------
 CID_79026491_JID_7802_neutraal
 ------------------------------
 Charge =  0 Multiplicity = 1

 SCF Done:  E(RB3LYP) =  -1593.99644418     A.U. after    1 cycles

  Exact polarizability: 200.876  -1.503 136.376  -1.357  -9.373  97.459
 Approx polarizability: 264.641  -2.838 243.667 -18.127 -18.539 162.436

                      1                      2                      3
                      A                      A                      A
 Frequencies --     12.5881                36.2161                45.2253
 Red. masses --      6.7396                 3.8935                 8.8277
 Frc consts  --      0.0006                 0.0030                 0.0106
 IR Inten    --      0.1769                 3.8170                 0.3008

                      4                      5                      6
                      A                      A                      A
 Frequencies --     63.7708               105.4116               106.7198
 Red. masses --      4.7919                 3.5356                 4.7924
 Frc consts  --      0.0115                 0.0231                 0.0322
 IR Inten    --      0.8218                 5.7263                 8.1801

                      7                      8                      9
                      A                      A                      A
 Frequencies --    117.0577               139.0334               197.2283
 Red. masses --      1.6535                 7.5408                 5.5138
 Frc consts  --      0.0133                 0.0859                 0.1264
 IR Inten    --     25.7568                 4.6529                 7.1252

                     10                     11                     12
                      A                      A                      A
 Frequencies --    211.5842               220.8509               235.7823
 Red. masses --      4.3088                 4.7895                 6.9082
 Frc consts  --      0.1136                 0.1376                 0.2263
 IR Inten    --      1.8426                 1.7656                 5.1342

                     13                     14                     15
                      A                      A                      A
 Frequencies --    247.9725               315.5925               347.0770
 Red. masses --      6.1723                 4.9916                 4.2075
 Frc consts  --      0.2236                 0.2929                 0.2986
 IR Inten    --      4.5769                 1.4141                 5.3290

                     16                     17                     18
                      A                      A                      A
 Frequencies --    353.3320               373.0431               402.7978
 Red. masses --      4.3018                 6.6417                 3.2196
 Frc consts  --      0.3164                 0.5446                 0.3078
 IR Inten    --      7.7736                 8.6344                 3.6717

                     19                     20                     21
                      A                      A                      A
 Frequencies --    424.0151               440.0506               453.7784
 Red. masses --      3.1195                 4.3975                 6.0400
 Frc consts  --      0.3304                 0.5017                 0.7328
 IR Inten    --      0.4066                22.2104                 8.5699

                     22                     23                     24
                      A                      A                      A
 Frequencies --    464.0255               500.8660               529.0630
 Red. masses --      3.3527                 8.0281                 3.0592
 Frc consts  --      0.4253                 1.1866                 0.5045
 IR Inten    --     22.8715                12.1329                13.0020

                     25                     26                     27
                      A                      A                      A
 Frequencies --    536.7045               570.8344               617.4713
 Red. masses --      4.0691                 5.0168                 2.1440
 Frc consts  --      0.6906                 0.9632                 0.4816
 IR Inten    --     38.8683               180.3464               124.1257

                     28                     29                     30
                      A                      A                      A
 Frequencies --    621.8779               650.1862               671.5270
 Red. masses --      2.0633                 6.1067                 2.7353
 Frc consts  --      0.4701                 1.5210                 0.7267
 IR Inten    --    120.2747                 4.5922               234.2504

                     31                     32                     33
                      A                      A                      A
 Frequencies --    690.4922               694.3005               738.5035
 Red. masses --      3.1076                 3.1565                 4.0962
 Frc consts  --      0.8729                 0.8965                 1.3163
 IR Inten    --     54.0859                53.7285                15.9526

                     34                     35                     36
                      A                      A                      A
 Frequencies --    835.7605               855.8351               866.9012
 Red. masses --      1.5170                 3.0842                 2.2268
 Frc consts  --      0.6243                 1.3310                 0.9860
 IR Inten    --     27.7346                 4.1852                 1.6619

                     37                     38                     39
                      A                      A                      A
 Frequencies --    876.3099               885.3801               916.6189
 Red. masses --      1.4061                 2.5732                 1.7338
 Frc consts  --      0.6362                 1.1885                 0.8583
 IR Inten    --     21.5969               220.9984                39.2909

                     40                     41                     42
                      A                      A                      A
 Frequencies --    951.6045               969.3170              1017.9912
 Red. masses --      1.8279                 1.3273                 1.2992
 Frc consts  --      0.9753                 0.7348                 0.7933
 IR Inten    --     69.1415                 1.4712                 6.2682

                     43                     44                     45
                      A                      A                      A
 Frequencies --   1041.5532              1053.2303              1097.2353
 Red. masses --      3.4805                 1.8679                 3.9981
 Frc consts  --      2.2246                 1.2208                 2.8360
 IR Inten    --      5.3199                13.3244               132.0008

                     46                     47                     48
                      A                      A                      A
 Frequencies --   1098.7880              1107.3655              1127.2815
 Red. masses --      4.3259                 1.2751                 9.0685
 Frc consts  --      3.0772                 0.9213                 6.7897
 IR Inten    --     21.4071                 4.4164               186.8766

                     49                     50                     51
                      A                      A                      A
 Frequencies --   1147.0149              1149.7776              1209.6410
 Red. masses --      1.3363                 5.8917                 1.2403
 Frc consts  --      1.0359                 4.5890                 1.0692
 IR Inten    --     10.5150               186.5278                 7.1069

                     52                     53                     54
                      A                      A                      A
 Frequencies --   1216.5490              1236.6447              1252.4149
 Red. masses --      1.1824                 1.6050                 2.0173
 Frc consts  --      1.0311                 1.4461                 1.8643
 IR Inten    --      3.1733                15.7592                21.4495

                     55                     56                     57
                      A                      A                      A
 Frequencies --   1304.8509              1332.4979              1345.8080
 Red. masses --      1.9717                 1.9558                 2.1595
 Frc consts  --      1.9779                 2.0460                 2.3044
 IR Inten    --     46.9815                69.6429                29.7117

                     58                     59                     60
                      A                      A                      A
 Frequencies --   1351.6871              1356.2318              1395.7100
 Red. masses --      2.6665                 4.5076                 1.9476
 Frc consts  --      2.8705                 4.8850                 2.2354
 IR Inten    --     59.4384               153.7908                33.6755

                     61                     62                     63
                      A                      A                      A
 Frequencies --   1422.3423              1464.1849              1468.3198
 Red. masses --      1.2956                 1.1226                 2.2379
 Frc consts  --      1.5443                 1.4180                 2.8428
 IR Inten    --      7.1075                 4.4502                37.8483

                     64                     65                     66
                      A                      A                      A
 Frequencies --   1484.4328              1531.0919              1543.3966
 Red. masses --      1.1909                 1.0901                 2.2565
 Frc consts  --      1.5461                 1.5057                 3.1669
 IR Inten    --     41.8125                 0.9220                31.7831

                     67                     68                     69
                      A                      A                      A
 Frequencies --   1618.5763              1641.6341              1656.5174
 Red. masses --      1.0975                 6.6831                 5.5436
 Frc consts  --      1.6940                10.6117                 8.9626
 IR Inten    --     29.5354                 4.4707                22.9299

                     70                     71                     72
                      A                      A                      A
 Frequencies --   3042.3268              3092.5290              3112.3323
 Red. masses --      1.0667                 1.0618                 1.0973
 Frc consts  --      5.8168                 5.9831                 6.2627
 IR Inten    --     41.0582                 1.8051                20.4061

                     73                     74                     75
                      A                      A                      A
 Frequencies --   3156.5947              3209.5623              3215.4945
 Red. masses --      1.1055                 1.0903                 1.0911
 Frc consts  --      6.4902                 6.6175                 6.6468
 IR Inten    --      1.5024                 3.8711                 4.1509

                     76                     77                     78
                      A                      A                      A
 Frequencies --   3234.8505              3235.5324              3490.4738
 Red. masses --      1.0928                 1.0940                 1.0746
 Frc consts  --      6.7373                 6.7478                 7.7139
 IR Inten    --      0.3728                 0.9291                32.9027

                     79                     80                     81
                      A                      A                      A
 Frequencies --   3497.2158              3609.2694              3627.1910
 Red. masses --      1.0467                 1.0983                 1.0659
 Frc consts  --      7.5424                 8.4299                 8.2623
 IR Inten    --     45.4959                37.2698               138.4581

 - Thermochemistry -
 -------------------
 Temperature   298.150 Kelvin.  Pressure   1.00000 Atm.
 Atom     1 has atomic number  6 and mass  12.00000

 Molecular mass:   280.01877 amu.
 Principal axes and moments of inertia in atomic units:
                           1         2         3
     Eigenvalues --  1923.21297********************
           X            0.99993  -0.00845   0.00791
           Y            0.00868   0.99951  -0.03009
           Z           -0.00765   0.03016   0.99952
 This molecule is an asymmetric top.
 Rotational symmetry number  1.
 Warning -- assumption of classical behavior for rotation
           may cause significant error
 Rotational temperatures (Kelvin)      0.04504     0.00832     0.00771
 Rotational constants (GHZ):           0.93840     0.17346     0.16058
 Zero-point vibrational energy     571150.1 (Joules/Mol)
                                  136.50816 (Kcal/Mol)
 Warning -- explicit consideration of  27 degrees of freedom as
           vibrations may cause significant error
 Vibrational temperatures:     18.11    52.11    65.07    91.75   151.66
          (Kelvin)            153.55   168.42   200.04   283.77   304.42
                              317.76   339.24   356.78   454.07   499.37
                              508.37   536.73   579.54   610.06   633.13
                              652.89   667.63   720.63   761.20   772.20
                              821.30   888.40   894.74   935.47   966.18
                              993.46   998.94  1062.54  1202.47  1231.36
                             1247.28  1260.81  1273.86  1318.81  1369.15
                             1394.63  1464.66  1498.56  1515.36  1578.68
                             1580.91  1593.25  1621.91  1650.30  1654.27
                             1740.40  1750.34  1779.26  1801.95  1877.39
                             1917.17  1936.32  1944.78  1951.32  2008.12
                             2046.43  2106.64  2112.58  2135.77  2202.90
                             2220.60  2328.77  2361.95  2383.36  4377.23
                             4449.46  4477.95  4541.64  4617.84  4626.38
                             4654.23  4655.21  5022.01  5031.71  5192.93
                             5218.72

 Zero-point correction=                           0.217540 (Hartree/Particle)
 Thermal correction to Energy=                    0.234610
 Thermal correction to Enthalpy=                  0.235555
 Thermal correction to Gibbs Free Energy=         0.170414
 Sum of electronic and zero-point Energies=          -1593.778905
 Sum of electronic and thermal Energies=             -1593.761834
 Sum of electronic and thermal Enthalpies=           -1593.760890
 Sum of electronic and thermal Free Energies=        -1593.826030

                     E (Thermal)             CV                S
                      KCal/Mol        Cal/Mol-Kelvin    Cal/Mol-Kelvin
 Total                  147.220             63.646            137.099
 Electronic               0.000              0.000              0.000
 Translational            0.889              2.981             42.787
 Rotational               0.889              2.981             33.774
 Vibrational            145.443             57.685             60.537
 Vibration     1          0.593              1.987              7.554
 Vibration     2          0.594              1.982              5.456
 Vibration     3          0.595              1.979              5.016
 Vibration     4          0.597              1.972              4.337
 Vibration     5          0.605              1.945              3.352
 Vibration     6          0.606              1.944              3.328
 Vibration     7          0.608              1.935              3.148
 Vibration     8          0.615              1.914              2.817
 Vibration     9          0.637              1.844              2.159
 Vibration    10          0.643              1.823              2.030
 Vibration    11          0.648              1.809              1.952
 Vibration    12          0.655              1.786              1.834
 Vibration    13          0.662              1.766              1.745
 Vibration    14          0.703              1.644              1.333
 Vibration    15          0.725              1.581              1.179
 Vibration    16          0.730              1.568              1.151
 Vibration    17          0.744              1.527              1.067
 Vibration    18          0.768              1.464              0.952
 Vibration    19          0.786              1.418              0.878
 Vibration    20          0.800              1.383              0.826
 Vibration    21          0.812              1.353              0.784
 Vibration    22          0.822              1.330              0.754
 Vibration    23          0.856              1.248              0.656
 Vibration    24          0.884              1.186              0.589
 Vibration    25          0.892              1.169              0.572
 Vibration    26          0.927              1.094              0.503
 Vibration    27          0.977              0.995              0.421

 Optimization completed.
    -- Stationary point found.
 Normal termination of Gaussian 16 at Fri Dec 11 13:29:09 2020.

 ----------------------------------------------------------------------
 # B3LYP/6-311++G(d,p) empiricaldispersion=gd3bj scf=xqc pop=npa geom=c
 heck
 ----------------------------------------------------------------------

 --------------------------------------
 CID_79026491_JID_7802_Energie_neutraal
 --------------------------------------
 Structure from the checkpoint file:  "JID_7802.chk"
 Charge =  0 Multiplicity = 1

 SCF Done:  E(RB3LYP) =  -1594.29696252     A.U. after   16 cycles
 Normal termination of Gaussian 16 at Fri Dec 11 13:33:08 2020.

 ----------------------------------------------------------------------
 # B3LYP/6-311++G(d,p) empiricaldispersion=gd3bj scf=xqc pop=npa geom=c
 heck
 ----------------------------------------------------------------------

 ------------------------------------
 CID_79026491_JID_7802_Energie_kation
 ------------------------------------
 Structure from the checkpoint file:  "JID_7802.chk"
 Charge =  1 Multiplicity = 2

 SCF Done:  E(UB3LYP) =  -1593.95476575     A.U. after   29 cycles
 Normal termination of Gaussian 16 at Fri Dec 11 13:42:47 2020.
 Gaussian 16:  ES64L-G16RevA.03 25-Dec-2016

 ----------------------------------------------------------------------
 # B3LYP/6-311++G(d,p) empiricaldispersion=gd3bj scf=xqc pop=npa geom=c
 heck
 ----------------------------------------------------------------------

 -----------------------------------
 CID_79026491_JID_7802_Energie_anion
 -----------------------------------
 Structure from the checkpoint file:  "JID_7802.chk"
 Charge = -1 Multiplicity = 2

                         Standard orientation:
 ---------------------------------------------------------------------
 Center     Atomic      Atomic             Coordinates (Angstroms)
 Number     Number       Type             X           Y           Z
 ---------------------------------------------------------------------
      1          6           0        0.264440   -1.381365    0.798627
      2          6           0        1.617858   -1.275820    0.495691
      3          6           0        2.124798   -0.043211    0.083837
      4          6           0        1.307766    1.079307   -0.037519
      5          6           0       -0.043364    0.973068    0.282876
      6          6           0       -0.560761   -0.256012    0.703012
      7          7           0       -1.961077   -0.334851    1.022189
      8         16           0       -3.021283   -0.846921   -0.265574
      9          8           0       -2.326785   -1.760352   -1.172914
     10          8           0       -4.240180   -1.251416    0.440374
     11          6           0       -3.308893    0.713537   -1.133975
     12          6           0       -3.926180    1.798210   -0.245528
     13          8           0       -3.019863    2.330006    0.700171
     14         16           0        3.865416    0.097547   -0.304429
     15          8           0        4.347006   -1.233888   -0.680165
     16          8           0        4.029281    1.270943   -1.166540
     17          7           0        4.563187    0.462691    1.198104
     18          1           0       -0.159285   -2.337601    1.089054
     19          1           0        2.270904   -2.139516    0.547971
     20          1           0        1.727402    2.018632   -0.379209
     21          1           0       -0.702052    1.833376    0.223325
     22          1           0       -2.155581   -0.992343    1.779214
     23          1           0       -2.347655    1.021903   -1.552807
     24          1           0       -3.978025    0.431738   -1.953666
     25          1           0       -4.224818    2.628582   -0.892545
     26          1           0       -4.832500    1.399902    0.231340
     27          1           0       -2.727708    1.581778    1.255423
     28          1           0        5.271230   -0.236361    1.413408
     29          1           0        4.967560    1.396378    1.166973
 ---------------------------------------------------------------------

 SCF Done:  E(UB3LYP) =  -1594.29739075     A.U. after   33 cycles
 SCF Done:  E(UB3LYP) =  -1594.29739075     a.u. after    1 cycles

 The electronic state is 2-A.
 Alpha  occ. eigenvalues --  -88.97887 -88.97178 -19.03979 -19.03911 -19.03886
 Alpha  occ. eigenvalues --  -19.02588 -19.02523 -14.26748 -14.24931 -10.15045
 Alpha  occ. eigenvalues --  -10.13213 -10.12743 -10.10909 -10.08268 -10.08026
 Alpha  occ. eigenvalues --  -10.07801 -10.07708  -8.04180  -8.03355  -6.00463
 Alpha  occ. eigenvalues --   -6.00409  -6.00238  -5.99657  -5.99606  -5.99412
 Alpha  occ. eigenvalues --   -1.03883  -1.02816  -0.94601  -0.93094  -0.92042
 Alpha  occ. eigenvalues --   -0.85107  -0.81770  -0.76496  -0.71562  -0.66969
 Alpha  occ. eigenvalues --   -0.66116  -0.59992  -0.57637  -0.52894  -0.52800
 Alpha  occ. eigenvalues --   -0.49794  -0.45044  -0.44507  -0.44096  -0.43881
 Alpha  occ. eigenvalues --   -0.43568  -0.41227  -0.40590  -0.38585  -0.38024
 Alpha  occ. eigenvalues --   -0.37070  -0.35625  -0.35253  -0.34323  -0.33401
 Alpha  occ. eigenvalues --   -0.33130  -0.31636  -0.28934  -0.28316  -0.26804
 Alpha  occ. eigenvalues --   -0.26690  -0.26298  -0.24687  -0.23844  -0.23427
 Alpha  occ. eigenvalues --   -0.22999  -0.22652  -0.22045  -0.21292  -0.20392
 Alpha  occ. eigenvalues --   -0.20056  -0.17042  -0.16143   0.03680
 Alpha virt. eigenvalues --    0.04786   0.05259   0.06000   0.07110   0.08640
 Alpha virt. eigenvalues --    0.08899   0.09013   0.10009   0.10235   0.11390
 Alpha virt. eigenvalues --    0.12204   0.12212   0.13148   0.13513   0.13859

  Beta  occ. eigenvalues --  -88.97887 -88.97175 -19.03976 -19.03909 -19.03888
  Beta  occ. eigenvalues --  -19.02584 -19.02509 -14.26716 -14.24888 -10.15025
  Beta  occ. eigenvalues --  -10.13179 -10.12781 -10.10950 -10.08119 -10.07834
  Beta  occ. eigenvalues --  -10.07638 -10.07596  -8.04180  -8.03350  -6.00463
  Beta  occ. eigenvalues --   -6.00409  -6.00238  -5.99653  -5.99603  -5.99409
  Beta  occ. eigenvalues --   -1.03877  -1.02793  -0.94594  -0.93094  -0.92018
  Beta  occ. eigenvalues --   -0.85042  -0.81690  -0.76267  -0.71508  -0.66837
  Beta  occ. eigenvalues --   -0.65722  -0.59945  -0.57525  -0.52746  -0.52467
  Beta  occ. eigenvalues --   -0.49710  -0.44926  -0.44475  -0.44059  -0.43826
  Beta  occ. eigenvalues --   -0.43475  -0.41206  -0.40552  -0.38533  -0.37945
  Beta  occ. eigenvalues --   -0.37039  -0.35506  -0.35203  -0.34252  -0.33313
  Beta  occ. eigenvalues --   -0.33062  -0.31532  -0.28533  -0.28166  -0.26778
  Beta  occ. eigenvalues --   -0.26667  -0.26182  -0.24655  -0.23816  -0.23407
  Beta  occ. eigenvalues --   -0.22941  -0.22625  -0.22028  -0.21237  -0.20314
  Beta  occ. eigenvalues --   -0.20021  -0.15865  -0.15784
  Beta virt. eigenvalues --    0.05028   0.06081   0.06264   0.07577   0.08000
  Beta virt. eigenvalues --    0.08839   0.09012   0.09339   0.10372   0.10488
  Beta virt. eigenvalues --    0.11403   0.12240   0.12289   0.13068   0.13641

 Mulliken charges and spin densities:
               1          2
     1  C   -0.576262   0.380645
     2  C   -0.333926   0.231460
     3  C    0.143632  -0.239607
     4  C   -0.254696   0.103059
     5  C   -0.444106   0.236372
     6  C   -0.130951  -0.006236
     7  N   -0.336913  -0.045096
     8  S    0.864090  -0.407468
     9  O   -0.105471   0.015396
    10  O   -0.227750   0.007831
    11  C   -0.873814   0.240653
    12  C    0.355118  -0.754404
    13  O   -0.206969   0.006325
    14  S    1.521457  -1.284093
    15  O   -0.289130   0.036768
    16  O   -0.222581  -0.008457
    17  N   -0.307507   0.021765
    18  H   -0.011339   0.168589
    19  H    0.115867   0.110568
    20  H    0.083782   0.144351
    21  H    0.139223   0.032238
    22  H    0.065278   0.294876
    23  H    0.292829  -0.019851
    24  H   -0.292053   0.532627
    25  H   -0.322363   0.501405
    26  H    0.179482   0.009328
    27  H    0.253050   0.020994
    28  H   -0.005525   0.302579
    29  H   -0.072453   0.367383
 Sum of Mulliken charges =  -1.00000   1.00000

 Dipole moment (field-independent basis, Debye):
    X=             -1.7328    Y=              0.1984    Z=              1.3420  Tot=              2.2007
 Quadrupole moment (field-independent basis, Debye-Ang):
   XX=           -206.2500   YY=           -148.4718   ZZ=           -142.3318
   XY=             -2.6130   XZ=              1.6856   YZ=             -2.0550

 Summary of Natural Population Analysis:

                                       Natural Population
                Natural  -----------------------------------------------
    Atom  No    Charge         Core      Valence    Rydberg      Total
 -----------------------------------------------------------------------
      C    1   -0.07321      0.99951     2.06376    0.00995     3.07321
      C    2   -0.06602      0.99950     2.05660    0.00992     3.06602
      C    3   -0.14145      0.99937     2.12746    0.01462     3.14145
      C    4   -0.05814      0.99951     2.04891    0.00972     3.05814
      C    5   -0.09154      0.99950     2.08350    0.00854     3.09154
      C    6    0.05856      0.99945     1.92822    0.01376     2.94144
      N    7   -0.44070      0.99972     2.92653    0.01445     3.94070
      S    8    1.08031      4.99930     1.82279    0.09760     6.91969
      O    9   -0.44960      0.99991     3.44443    0.00527     4.44960
      O   10   -0.46475      0.99991     3.45919    0.00565     4.46475
      C   11   -0.30472      0.99958     2.29315    0.01199     3.30472
      C   12   -0.02187      0.99959     2.00769    0.01458     3.02187
      O   13   -0.37497      0.99990     3.36801    0.00707     4.37497
      S   14    1.09415      4.99924     1.80498    0.10163     6.90585
      O   15   -0.46631      0.99991     3.46080    0.00560     4.46631
      O   16   -0.46489      0.99991     3.45935    0.00563     4.46489
      N   17   -0.51483      0.99978     3.00448    0.01056     4.01483
      H   18    0.10326      0.00000     0.39558    0.00116     0.39674
      H   19    0.11040      0.00000     0.38860    0.00100     0.38960
      H   20    0.11124      0.00000     0.38773    0.00103     0.38876
      H   21    0.11106      0.00000     0.38689    0.00205     0.38894
      H   22    0.20265      0.00000     0.29379    0.00356     0.29735
      H   23    0.12383      0.00000     0.37495    0.00123     0.37617
      H   24    0.12239      0.00000     0.37568    0.00193     0.37761
      H   25    0.09422      0.00000     0.40419    0.00159     0.40578
      H   26    0.08695      0.00000     0.41174    0.00131     0.41305
      H   27    0.24183      0.00000     0.25502    0.00316     0.25817
      H   28    0.19606      0.00000     0.30105    0.00289     0.30394
      H   29    0.19610      0.00000     0.30113    0.00278     0.30390
 =======================================================================
   * Total *   -0.00000     24.99358    47.63619    0.37023    73.00000

 Normal termination of Gaussian 16 at Fri Dec 11 13:53:52 2020.
