 Gaussian 16, Revision A.03,

 -----------------------------------------------------------
 # opt freq B3LYP/6-31G(d) empiricaldispersion=gd3bj scf=xqc
 -----------------------------------------------------------

 -------------------------------
 CID_115659602_JID_6580_neutraal
 -------------------------------
 Symbolic Z-matrix:
 Charge =  0 Multiplicity = 1

 SCF Done:  E(RB3LYP) =  -1088.19064614     A.U. after   15 cycles
 SCF Done:  E(RB3LYP) =  -1088.14284026     A.U. after   16 cycles
 SCF Done:  E(RB3LYP) =  -1088.19126991     A.U. after   13 cycles
 SCF Done:  E(RB3LYP) =  -1088.19464713     A.U. after   11 cycles
 SCF Done:  E(RB3LYP) =  -1088.19737581     A.U. after   13 cycles
 SCF Done:  E(RB3LYP) =  -1088.19793011     A.U. after   13 cycles
 SCF Done:  E(RB3LYP) =  -1088.19390752     A.U. after   13 cycles
 SCF Done:  E(RB3LYP) =  -1088.19845064     A.U. after   12 cycles
 SCF Done:  E(RB3LYP) =  -1088.19871532     A.U. after   12 cycles
 SCF Done:  E(RB3LYP) =  -1088.19885163     A.U. after   12 cycles
 SCF Done:  E(RB3LYP) =  -1088.19900491     A.U. after    8 cycles
 SCF Done:  E(RB3LYP) =  -1088.19900595     A.U. after    8 cycles
 SCF Done:  E(RB3LYP) =  -1088.19900692     A.U. after    9 cycles
 SCF Done:  E(RB3LYP) =  -1088.19900757     A.U. after    8 cycles
 SCF Done:  E(RB3LYP) =  -1088.19900787     A.U. after    8 cycles
 Optimization completed.
    -- Stationary point found.
 Normal termination of Gaussian 16 at Thu Dec 10 23:58:09 2020.

 --------------------------------------------------------------------
 #N Geom=AllCheck Guess=TCheck SCRF=Check GenChk RB3LYP/6-31G(d) Freq
 --------------------------------------------------------------------

 Structure from the checkpoint file:  "JID_6580.chk"
 -------------------------------
 CID_115659602_JID_6580_neutraal
 -------------------------------
 Charge =  0 Multiplicity = 1

 SCF Done:  E(RB3LYP) =  -1088.19900787     A.U. after    1 cycles

  Exact polarizability: 168.636  -3.330 133.778  -3.326  -0.811 123.428
 Approx polarizability: 215.790  -6.279 226.269 -10.453  -8.611 192.438

                      1                      2                      3
                      A                      A                      A
 Frequencies --     53.9110                66.4377                75.3100
 Red. masses --      3.4634                 4.1634                 2.5175
 Frc consts  --      0.0059                 0.0108                 0.0084
 IR Inten    --      1.4869                 2.2181                 1.7926

                      4                      5                      6
                      A                      A                      A
 Frequencies --     87.9046               111.8119               128.7651
 Red. masses --      4.5321                 5.3555                 5.3547
 Frc consts  --      0.0206                 0.0394                 0.0523
 IR Inten    --      0.7159                 0.8905                 4.3772

                      7                      8                      9
                      A                      A                      A
 Frequencies --    134.9993               147.9455               153.9100
 Red. masses --      5.7722                 5.2116                 5.4011
 Frc consts  --      0.0620                 0.0672                 0.0754
 IR Inten    --      7.1530                 6.9601                 5.0731

                     10                     11                     12
                      A                      A                      A
 Frequencies --    182.0684               191.8585               227.5760
 Red. masses --      3.1507                 4.4153                 4.5369
 Frc consts  --      0.0615                 0.0958                 0.1384
 IR Inten    --      0.2888                 9.3879                 1.2205

                     13                     14                     15
                      A                      A                      A
 Frequencies --    252.1089               257.6770               289.6086
 Red. masses --      3.3610                 4.2704                 1.2005
 Frc consts  --      0.1259                 0.1671                 0.0593
 IR Inten    --      2.5973                 0.2208                 0.5805

                     16                     17                     18
                      A                      A                      A
 Frequencies --    325.7047               349.2677               367.6377
 Red. masses --      2.4987                 2.2846                 3.5626
 Frc consts  --      0.1562                 0.1642                 0.2837
 IR Inten    --      1.7593                 2.8111                 5.7792

                     19                     20                     21
                      A                      A                      A
 Frequencies --    380.4834               422.4373               469.1098
 Red. masses --      4.2722                 2.8713                 1.2011
 Frc consts  --      0.3644                 0.3019                 0.1557
 IR Inten    --      8.3704                 4.2306               198.0182

                     22                     23                     24
                      A                      A                      A
 Frequencies --    502.3906               509.7395               552.3156
 Red. masses --      2.9255                 4.0701                 6.3888
 Frc consts  --      0.4350                 0.6231                 1.1483
 IR Inten    --     23.8453                25.6179                 7.7573

                     25                     26                     27
                      A                      A                      A
 Frequencies --    573.6255               588.0183               653.1987
 Red. masses --      3.6964                 3.6035                 2.9248
 Frc consts  --      0.7166                 0.7341                 0.7352
 IR Inten    --      9.1359                 1.6060                10.4052

                     28                     29                     30
                      A                      A                      A
 Frequencies --    658.7958               693.5628               696.9276
 Red. masses --      3.0422                 2.2191                 1.7781
 Frc consts  --      0.7779                 0.6289                 0.5088
 IR Inten    --      0.4509                 4.3243               101.5697

                     31                     32                     33
                      A                      A                      A
 Frequencies --    759.5371               794.6646               808.9943
 Red. masses --      3.5882                 5.4364                 1.4939
 Frc consts  --      1.2196                 2.0227                 0.5761
 IR Inten    --     12.8709                14.4057                 4.7005

                     34                     35                     36
                      A                      A                      A
 Frequencies --    842.6915               864.0140               878.1034
 Red. masses --      1.6995                 2.9034                 3.5837
 Frc consts  --      0.7110                 1.2770                 1.6281
 IR Inten    --      1.2428                 3.2703                 2.2889

                     37                     38                     39
                      A                      A                      A
 Frequencies --    903.9215               928.8125               943.8487
 Red. masses --      2.9275                 1.9722                 2.3230
 Frc consts  --      1.4093                 1.0024                 1.2193
 IR Inten    --      1.5108                 2.1361                 0.1674

                     40                     41                     42
                      A                      A                      A
 Frequencies --    953.4605               985.6785              1006.7081
 Red. masses --      1.5827                 2.2129                 1.5437
 Frc consts  --      0.8477                 1.2667                 0.9218
 IR Inten    --      0.4480                 1.9204                31.9299

                     43                     44                     45
                      A                      A                      A
 Frequencies --   1021.8090              1062.4916              1078.7496
 Red. masses --      1.7337                 1.9160                 1.9626
 Frc consts  --      1.0665                 1.2744                 1.3456
 IR Inten    --      4.1136                 4.9597                 0.4890

                     46                     47                     48
                      A                      A                      A
 Frequencies --   1079.6944              1104.7456              1121.8026
 Red. masses --      1.7881                 2.3974                 1.7307
 Frc consts  --      1.2282                 1.7239                 1.2832
 IR Inten    --     13.4375                 0.6465                18.2896

                     49                     50                     51
                      A                      A                      A
 Frequencies --   1158.2643              1182.6263              1188.4355
 Red. masses --      2.5181                 1.8884                 1.6389
 Frc consts  --      1.9904                 1.5561                 1.3638
 IR Inten    --     32.9207                16.3955                50.8049

                     52                     53                     54
                      A                      A                      A
 Frequencies --   1238.2743              1252.0333              1255.5712
 Red. masses --      1.2987                 1.5925                 1.2463
 Frc consts  --      1.1733                 1.4708                 1.1576
 IR Inten    --      2.1903                18.9594                16.3613

                     55                     56                     57
                      A                      A                      A
 Frequencies --   1273.4561              1279.9479              1285.1999
 Red. masses --      1.3019                 1.3404                 1.4380
 Frc consts  --      1.2439                 1.2938                 1.3995
 IR Inten    --      1.8712                13.7171                 4.7467

                     58                     59                     60
                      A                      A                      A
 Frequencies --   1295.4799              1321.1060              1343.8084
 Red. masses --      1.3156                 1.2977                 1.3937
 Frc consts  --      1.3008                 1.3345                 1.4829
 IR Inten    --      1.6682                 0.6239                 1.6034

                     61                     62                     63
                      A                      A                      A
 Frequencies --   1354.4490              1363.3097              1376.7242
 Red. masses --      1.2683                 1.3800                 1.5459
 Frc consts  --      1.3709                 1.5112                 1.7263
 IR Inten    --      5.6440                 2.2643                 3.9553

                     64                     65                     66
                      A                      A                      A
 Frequencies --   1395.7791              1411.4303              1441.5245
 Red. masses --      1.2673                 3.3608                 1.2255
 Frc consts  --      1.4546                 3.9447                 1.5004
 IR Inten    --     32.4318               198.8382                14.9928

                     67                     68                     69
                      A                      A                      A
 Frequencies --   1452.9257              1490.6275              1493.6414
 Red. masses --      1.2473                 1.1400                 1.4987
 Frc consts  --      1.5513                 1.4924                 1.9700
 IR Inten    --     28.7535                13.5633                40.0251

                     70                     71                     72
                      A                      A                      A
 Frequencies --   1514.9079              1523.5405              1524.5427
 Red. masses --      1.0767                 1.0893                 1.0573
 Frc consts  --      1.4558                 1.4897                 1.4479
 IR Inten    --      1.7151                 3.0862                 6.0362

                     73                     74                     75
                      A                      A                      A
 Frequencies --   1529.2708              1532.4365              1549.3942
 Red. masses --      1.0810                 1.0672                 1.0999
 Frc consts  --      1.4895                 1.4765                 1.5558
 IR Inten    --      0.6954                 6.3698                 2.9759

                     76                     77                     78
                      A                      A                      A
 Frequencies --   1556.9325              1751.8327              2357.0506
 Red. masses --      1.0494                 6.5636                12.7021
 Frc consts  --      1.4987                11.8681                41.5778
 IR Inten    --      2.4004               332.6274                 2.8868

                     79                     80                     81
                      A                      A                      A
 Frequencies --   2971.5219              3051.5872              3055.2393
 Red. masses --      1.0733                 1.0548                 1.0674
 Frc consts  --      5.5839                 5.7873                 5.8702
 IR Inten    --     94.4337                16.3233                31.4405

                     82                     83                     84
                      A                      A                      A
 Frequencies --   3066.2686              3073.2443              3081.3713
 Red. masses --      1.0629                 1.0663                 1.0605
 Frc consts  --      5.8879                 5.9337                 5.9328
 IR Inten    --     10.4040                22.4858                18.7914

                     85                     86                     87
                      A                      A                      A
 Frequencies --   3090.4925              3112.6175              3113.5201
 Red. masses --      1.0625                 1.0766                 1.0865
 Frc consts  --      5.9789                 6.1455                 6.2057
 IR Inten    --     33.7390                 2.8840                11.6623

                     88                     89                     90
                      A                      A                      A
 Frequencies --   3120.7896              3122.9551              3136.7727
 Red. masses --      1.0986                 1.1050                 1.1056
 Frc consts  --      6.3043                 6.3498                 6.4094
 IR Inten    --     16.7084                 3.6649                36.9743

                     91                     92                     93
                      A                      A                      A
 Frequencies --   3138.8437              3142.5720              3158.4608
 Red. masses --      1.0910                 1.1030                 1.0995
 Frc consts  --      6.3329                 6.4177                 6.4623
 IR Inten    --      7.8369                 6.8158                12.2248

                     94                     95                     96
                      A                      A                      A
 Frequencies --   3167.7815              3563.0539              3730.5300
 Red. masses --      1.1057                 1.0750                 1.0663
 Frc consts  --      6.5370                 8.0405                 8.7431
 IR Inten    --      3.6287                22.3230                25.6920

 - Thermochemistry -
 -------------------
 Temperature   298.150 Kelvin.  Pressure   1.00000 Atm.
 Atom     1 has atomic number  6 and mass  12.00000

 Molecular mass:   242.10890 amu.
 Principal axes and moments of inertia in atomic units:
                           1         2         3
     Eigenvalues --  2129.609365383.227715532.11137
           X            0.99996  -0.00715  -0.00498
           Y            0.00775   0.99107   0.13314
           Z            0.00398  -0.13318   0.99108
 This molecule is an asymmetric top.
 Rotational symmetry number  1.
 Warning -- assumption of classical behavior for rotation
           may cause significant error
 Rotational temperatures (Kelvin)      0.04067     0.01609     0.01566
 Rotational constants (GHZ):           0.84745     0.33525     0.32623
 Zero-point vibrational energy     758653.6 (Joules/Mol)
                                  181.32257 (Kcal/Mol)
 Warning -- explicit consideration of  26 degrees of freedom as
           vibrations may cause significant error
 Vibrational temperatures:     77.57    95.59   108.35   126.48   160.87
          (Kelvin)            185.26   194.23   212.86   221.44   261.96
                              276.04   327.43   362.73   370.74   416.68
                              468.62   502.52   528.95   547.43   607.79
                              674.94   722.83   733.40   794.66   825.32
                              846.03   939.81   947.86   997.88  1002.72
                             1092.80  1143.35  1163.96  1212.45  1243.12
                             1263.39  1300.54  1336.35  1357.99  1371.82
                             1418.17  1448.43  1470.16  1528.69  1552.08
                             1553.44  1589.48  1614.02  1666.48  1701.54
                             1709.89  1781.60  1801.40  1806.49  1832.22
                             1841.56  1849.12  1863.91  1900.78  1933.44
                             1948.75  1961.50  1980.80  2008.21  2030.73
                             2074.03  2090.44  2144.68  2149.02  2179.61
                             2192.03  2193.48  2200.28  2204.83  2229.23
                             2240.08  2520.50  3391.27  4275.36  4390.55
                             4395.81  4411.68  4421.71  4433.41  4446.53
                             4478.36  4479.66  4490.12  4493.24  4513.12
                             4516.10  4521.46  4544.32  4557.73  5126.44
                             5367.40

 Zero-point correction=                           0.288956 (Hartree/Particle)
 Thermal correction to Energy=                    0.305921
 Thermal correction to Enthalpy=                  0.306866
 Thermal correction to Gibbs Free Energy=         0.244906
 Sum of electronic and zero-point Energies=          -1087.910052
 Sum of electronic and thermal Energies=             -1087.893086
 Sum of electronic and thermal Enthalpies=           -1087.892142
 Sum of electronic and thermal Free Energies=        -1087.954102

                     E (Thermal)             CV                S
                      KCal/Mol        Cal/Mol-Kelvin    Cal/Mol-Kelvin
 Total                  191.969             63.945            130.405
 Electronic               0.000              0.000              0.000
 Translational            0.889              2.981             42.354
 Rotational               0.889              2.981             32.517
 Vibrational            190.191             57.984             55.535
 Vibration     1          0.596              1.976              4.669
 Vibration     2          0.598              1.970              4.256
 Vibration     3          0.599              1.965              4.010
 Vibration     4          0.601              1.958              3.706
 Vibration     5          0.607              1.940              3.237
 Vibration     6          0.611              1.924              2.964
 Vibration     7          0.613              1.918              2.874
 Vibration     8          0.617              1.905              2.698
 Vibration     9          0.619              1.898              2.623
 Vibration    10          0.630              1.864              2.307
 Vibration    11          0.634              1.851              2.210
 Vibration    12          0.651              1.799              1.898
 Vibration    13          0.664              1.759              1.716
 Vibration    14          0.667              1.750              1.677
 Vibration    15          0.686              1.693              1.476
 Vibration    16          0.710              1.624              1.281
 Vibration    17          0.727              1.577              1.169
 Vibration    18          0.740              1.539              1.090
 Vibration    19          0.750              1.512              1.037
 Vibration    20          0.785              1.421              0.884
 Vibration    21          0.826              1.319              0.740
 Vibration    22          0.858              1.245              0.652
 Vibration    23          0.865              1.228              0.634
 Vibration    24          0.908              1.135              0.539
 Vibration    25          0.930              1.088              0.497
 Vibration    26          0.945              1.057              0.471

 Optimization completed.
    -- Stationary point found.
 Normal termination of Gaussian 16 at Fri Dec 11 00:12:07 2020.

 ----------------------------------------------------------------------
 # B3LYP/6-311++G(d,p) empiricaldispersion=gd3bj scf=xqc pop=npa geom=c
 heck
 ----------------------------------------------------------------------

 ---------------------------------------
 CID_115659602_JID_6580_Energie_neutraal
 ---------------------------------------
 Structure from the checkpoint file:  "JID_6580.chk"
 Charge =  0 Multiplicity = 1

 SCF Done:  E(RB3LYP) =  -1088.43177646     A.U. after   15 cycles
 Normal termination of Gaussian 16 at Fri Dec 11 00:19:09 2020.

 ----------------------------------------------------------------------
 # B3LYP/6-311++G(d,p) empiricaldispersion=gd3bj scf=xqc pop=npa geom=c
 heck
 ----------------------------------------------------------------------

 -------------------------------------
 CID_115659602_JID_6580_Energie_kation
 -------------------------------------
 Structure from the checkpoint file:  "JID_6580.chk"
 Charge =  1 Multiplicity = 2

 SCF Done:  E(UB3LYP) =  -1088.12331764     A.U. after   23 cycles
 Normal termination of Gaussian 16 at Fri Dec 11 00:34:16 2020.
 Gaussian 16:  ES64L-G16RevA.03 25-Dec-2016

 ----------------------------------------------------------------------
 # B3LYP/6-311++G(d,p) empiricaldispersion=gd3bj scf=xqc pop=npa geom=c
 heck
 ----------------------------------------------------------------------

 ------------------------------------
 CID_115659602_JID_6580_Energie_anion
 ------------------------------------
 Structure from the checkpoint file:  "JID_6580.chk"
 Charge = -1 Multiplicity = 2

                         Standard orientation:
 ---------------------------------------------------------------------
 Center     Atomic      Atomic             Coordinates (Angstroms)
 Number     Number       Type             X           Y           Z
 ---------------------------------------------------------------------
      1          6           0       -3.801920   -0.288436   -0.286522
      2          6           0       -2.772335    0.810336   -0.559951
      3          6           0       -2.338814    1.577197    0.698324
      4          8           0       -1.621917    0.818890    1.653104
      5         16           0       -1.345116    0.222989   -1.589662
      6          6           0       -0.952558   -1.447248   -0.937417
      7          6           0       -0.556509   -1.508832    0.526311
      8          8           0       -1.331120   -1.995947    1.349138
      9          7           0        0.680765   -1.080410    0.937755
     10          6           0        1.655589   -0.188562    0.316076
     11          6           0        2.113609   -0.560380   -1.114910
     12          6           0        3.492250    0.119321   -1.276479
     13          6           0        4.041321    0.336608    0.163018
     14          6           0        2.994989   -0.293959    1.095859
     15          6           0        1.225937    1.232042    0.355307
     16          7           0        1.006314    2.370461    0.403833
     17          1           0       -3.398508   -1.079246    0.352478
     18          1           0       -4.141764   -0.747152   -1.219869
     19          1           0       -4.674145    0.145309    0.217612
     20          1           0       -3.227218    1.551525   -1.229841
     21          1           0       -1.671968    2.395705    0.419908
     22          1           0       -3.250356    2.013883    1.143699
     23          1           0       -2.104313    0.000009    1.851244
     24          1           0       -1.808365   -2.112635   -1.054015
     25          1           0       -0.150353   -1.807402   -1.584999
     26          1           0        0.712306   -1.063165    1.952043
     27          1           0        2.205607   -1.651791   -1.146009
     28          1           0        1.406130   -0.244722   -1.882014
     29          1           0        3.382215    1.078265   -1.790277
     30          1           0        4.157009   -0.497602   -1.887495
     31          1           0        4.139661    1.405126    0.374088
     32          1           0        5.026061   -0.115134    0.310466
     33          1           0        2.939147    0.182056    2.079487
     34          1           0        3.186107   -1.363286    1.241340
 ---------------------------------------------------------------------

 SCF Done:  E(UB3LYP) =  -1088.42341773     A.U. after   33 cycles
 SCF Done:  E(UB3LYP) =  -1088.42341773     a.u. after    1 cycles

 The electronic state is 2-A.
 Alpha  occ. eigenvalues --  -88.74865 -19.02651 -18.99740 -14.24864 -14.21080
 Alpha  occ. eigenvalues --  -10.18134 -10.16625 -10.12495 -10.11934 -10.11195
 Alpha  occ. eigenvalues --  -10.10955 -10.08942 -10.08443 -10.08054 -10.07664
 Alpha  occ. eigenvalues --  -10.07500  -7.83475  -5.79893  -5.79500  -5.78807
 Alpha  occ. eigenvalues --   -0.95192  -0.92958  -0.84934  -0.80404  -0.74866
 Alpha  occ. eigenvalues --   -0.72993  -0.67532  -0.63891  -0.63281  -0.60153
 Alpha  occ. eigenvalues --   -0.57644  -0.53179  -0.50933  -0.48578  -0.47616
 Alpha  occ. eigenvalues --   -0.44620  -0.41547  -0.41177  -0.39769  -0.37657
 Alpha  occ. eigenvalues --   -0.37278  -0.35943  -0.34836  -0.34397  -0.33790
 Alpha  occ. eigenvalues --   -0.32502  -0.31532  -0.30039  -0.29813  -0.28662
 Alpha  occ. eigenvalues --   -0.28393  -0.27723  -0.26603  -0.25699  -0.25379
 Alpha  occ. eigenvalues --   -0.25338  -0.24053  -0.23729  -0.23545  -0.22479
 Alpha  occ. eigenvalues --   -0.22129  -0.18542  -0.17942  -0.16903  -0.13441
 Alpha  occ. eigenvalues --    0.04115
 Alpha virt. eigenvalues --    0.05724   0.06811   0.07510   0.08102   0.08530
 Alpha virt. eigenvalues --    0.08635   0.08884   0.09989   0.10673   0.11067
 Alpha virt. eigenvalues --    0.11166   0.11458   0.12006   0.12043   0.12536

  Beta  occ. eigenvalues --  -88.74855 -19.02648 -18.99662 -14.24866 -14.21050
  Beta  occ. eigenvalues --  -10.18011 -10.16621 -10.12488 -10.11925 -10.11190
  Beta  occ. eigenvalues --  -10.10956 -10.08915 -10.08408 -10.08041 -10.07645
  Beta  occ. eigenvalues --  -10.07477  -7.83463  -5.79880  -5.79491  -5.78798
  Beta  occ. eigenvalues --   -0.95038  -0.92943  -0.84888  -0.80359  -0.74813
  Beta  occ. eigenvalues --   -0.72956  -0.67459  -0.63832  -0.63221  -0.60127
  Beta  occ. eigenvalues --   -0.57564  -0.53108  -0.50846  -0.48517  -0.47539
  Beta  occ. eigenvalues --   -0.44561  -0.41497  -0.41137  -0.39657  -0.37592
  Beta  occ. eigenvalues --   -0.37231  -0.35899  -0.34803  -0.34344  -0.33596
  Beta  occ. eigenvalues --   -0.32372  -0.31497  -0.29998  -0.29770  -0.28583
  Beta  occ. eigenvalues --   -0.28270  -0.27691  -0.26552  -0.25646  -0.25302
  Beta  occ. eigenvalues --   -0.25278  -0.24013  -0.23677  -0.23479  -0.22438
  Beta  occ. eigenvalues --   -0.22091  -0.18501  -0.17787  -0.16831  -0.13407
  Beta virt. eigenvalues --    0.06063   0.07030   0.07417   0.07954   0.08647
  Beta virt. eigenvalues --    0.08834   0.09052   0.09275   0.10179   0.10847
  Beta virt. eigenvalues --    0.11321   0.11514   0.11601   0.12103   0.12367

 Mulliken charges and spin densities:
               1          2
     1  C   -0.045505  -0.590970
     2  C   -0.453140   0.379066
     3  C   -0.083929  -0.338138
     4  O   -0.107816   0.002474
     5  S    0.712441  -0.609159
     6  C   -0.110338  -0.058091
     7  C   -0.374590  -0.067721
     8  O   -0.310799   0.027916
     9  N   -0.040835   0.061183
    10  C    0.324186   0.985713
    11  C   -0.630421   0.071656
    12  C    1.171369  -1.607929
    13  C   -0.061452  -0.420676
    14  C   -0.063538  -0.222051
    15  C    0.523634  -1.325773
    16  N   -0.268948   0.045485
    17  H    0.169989   0.003473
    18  H   -0.050687   0.208984
    19  H    0.008011   0.122194
    20  H   -0.176619   0.423416
    21  H    0.216485  -0.055933
    22  H   -0.022188   0.148688
    23  H    0.217751   0.027908
    24  H    0.107978   0.178953
    25  H   -0.306030   0.560389
    26  H    0.254146   0.023950
    27  H   -0.312384   0.522247
    28  H   -0.102616   0.240181
    29  H    0.178232  -0.013244
    30  H   -0.548849   0.729702
    31  H    0.117302   0.045159
    32  H   -0.514704   0.700796
    33  H    0.095593   0.074016
    34  H   -0.511730   0.726133
 Sum of Mulliken charges =  -1.00000   1.00000

 Dipole moment (field-independent basis, Debye):
    X=             -5.1364    Y=              2.7169    Z=              1.9278  Tot=              6.1221
 Quadrupole moment (field-independent basis, Debye-Ang):
   XX=           -180.2174   YY=           -151.0123   ZZ=           -140.7383
   XY=             12.7960   XZ=              3.8590   YZ=             -3.2858

 Summary of Natural Population Analysis:

                                       Natural Population
                Natural  -----------------------------------------------
    Atom  No    Charge         Core      Valence    Rydberg      Total
 -----------------------------------------------------------------------
      C    1   -0.30331      0.99963     2.29658    0.00710     3.30331
      C    2   -0.17912      0.99957     2.16652    0.01303     3.17912
      C    3   -0.01650      0.99954     2.00254    0.01442     3.01650
      O    4   -0.37099      0.99990     3.36334    0.00776     4.37099
      S    5    0.10370      4.99961     2.87973    0.01696     7.89630
      C    6   -0.29927      0.99953     2.28881    0.01092     3.29927
      C    7    0.36249      0.99964     1.61442    0.02344     2.63751
      O    8   -0.33127      0.99987     3.32600    0.00540     4.33127
      N    9   -0.31278      0.99964     2.80184    0.01130     3.81278
      C   10    0.00974      0.99944     1.97581    0.01501     2.99026
      C   11   -0.18975      0.99960     2.17958    0.01057     3.18975
      C   12   -0.19228      0.99964     2.18398    0.00867     3.19228
      C   13   -0.19570      0.99964     2.18723    0.00883     3.19570
      C   14   -0.17979      0.99961     2.17047    0.00971     3.17979
      C   15    0.16651      0.99960     1.81257    0.02133     2.83349
      N   16   -0.17996      0.99979     2.66946    0.01072     3.67996
      H   17    0.10962      0.00000     0.38900    0.00138     0.39038
      H   18    0.10563      0.00000     0.39347    0.00091     0.39437
      H   19    0.10038      0.00000     0.39860    0.00102     0.39962
      H   20    0.10737      0.00000     0.39126    0.00136     0.39263
      H   21    0.09954      0.00000     0.39872    0.00175     0.40046
      H   22    0.07322      0.00000     0.42552    0.00126     0.42678
      H   23    0.23570      0.00000     0.26138    0.00293     0.26430
      H   24    0.11415      0.00000     0.38449    0.00136     0.38585
      H   25    0.12311      0.00000     0.37506    0.00183     0.37689
      H   26    0.19543      0.00000     0.30227    0.00230     0.30457
      H   27    0.10963      0.00000     0.38662    0.00375     0.39037
      H   28    0.10950      0.00000     0.38838    0.00211     0.39050
      H   29    0.09893      0.00000     0.39988    0.00119     0.40107
      H   30    0.10748      0.00000     0.39030    0.00222     0.39252
      H   31    0.09915      0.00000     0.39969    0.00116     0.40085
      H   32    0.10703      0.00000     0.39105    0.00192     0.39297
      H   33    0.10309      0.00000     0.39576    0.00115     0.39691
      H   34    0.10931      0.00000     0.38850    0.00219     0.39069
 =======================================================================
   * Total *    0.00000     19.99425    44.77882    0.22694    65.00000

 Normal termination of Gaussian 16 at Fri Dec 11 00:56:08 2020.
