 Gaussian 16, Revision A.03,

 -----------------------------------------------------------
 # opt freq B3LYP/6-31G(d) empiricaldispersion=gd3bj scf=xqc
 -----------------------------------------------------------

 -------------------------------
 CID_109739115_JID_9760_neutraal
 -------------------------------
 Symbolic Z-matrix:
 Charge =  0 Multiplicity = 1

 SCF Done:  E(RB3LYP) =  -1508.03629438     A.U. after   15 cycles
 SCF Done:  E(RB3LYP) =  -1508.04504090     A.U. after   13 cycles
 SCF Done:  E(RB3LYP) =  -1508.04653500     A.U. after   12 cycles
 SCF Done:  E(RB3LYP) =  -1508.04673551     A.U. after   11 cycles
 SCF Done:  E(RB3LYP) =  -1508.04675763     A.U. after   12 cycles
 SCF Done:  E(RB3LYP) =  -1508.04702058     A.U. after   11 cycles
 SCF Done:  E(RB3LYP) =  -1508.04713572     A.U. after   11 cycles
 SCF Done:  E(RB3LYP) =  -1508.04725751     A.U. after   12 cycles
 SCF Done:  E(RB3LYP) =  -1508.04733910     A.U. after   11 cycles
 SCF Done:  E(RB3LYP) =  -1508.04751332     A.U. after   11 cycles
 SCF Done:  E(RB3LYP) =  -1508.04773086     A.U. after   10 cycles
 SCF Done:  E(RB3LYP) =  -1508.04773426     A.U. after    9 cycles
 SCF Done:  E(RB3LYP) =  -1508.04773426     A.U. after    8 cycles
 SCF Done:  E(RB3LYP) =  -1508.04773453     A.U. after    7 cycles
 SCF Done:  E(RB3LYP) =  -1508.04773455     A.U. after    6 cycles
 Optimization completed.
    -- Stationary point found.
 Normal termination of Gaussian 16 at Sat Dec 12 10:11:56 2020.

 --------------------------------------------------------------------
 #N Geom=AllCheck Guess=TCheck SCRF=Check GenChk RB3LYP/6-31G(d) Freq
 --------------------------------------------------------------------

 Structure from the checkpoint file:  "JID_9760.chk"
 -------------------------------
 CID_109739115_JID_9760_neutraal
 -------------------------------
 Charge =  0 Multiplicity = 1

 SCF Done:  E(RB3LYP) =  -1508.04773455     A.U. after    1 cycles

  Exact polarizability: 224.501  -2.056 184.554   9.634   5.513 167.709
 Approx polarizability: 292.489  -3.294 307.116  24.271  14.077 272.386

                      1                      2                      3
                      A                      A                      A
 Frequencies --     21.0889                31.7730                35.5091
 Red. masses --      6.0121                 4.2051                 3.9067
 Frc consts  --      0.0016                 0.0025                 0.0029
 IR Inten    --      0.0220                 0.3663                 0.2260

                      4                      5                      6
                      A                      A                      A
 Frequencies --     47.8141                53.6225                62.3917
 Red. masses --      3.3759                 3.4333                 3.5567
 Frc consts  --      0.0045                 0.0058                 0.0082
 IR Inten    --      0.0395                 0.7737                 0.2708

                      7                      8                      9
                      A                      A                      A
 Frequencies --     75.5464               107.0252               114.9293
 Red. masses --      3.9247                 2.3782                 4.3675
 Frc consts  --      0.0132                 0.0160                 0.0340
 IR Inten    --      0.1036                 1.1349                 2.9098

                     10                     11                     12
                      A                      A                      A
 Frequencies --    167.2353               188.8914               209.0497
 Red. masses --      4.5568                 4.6130                 2.4205
 Frc consts  --      0.0751                 0.0970                 0.0623
 IR Inten    --      3.3319                 1.0699                 3.1825

                     13                     14                     15
                      A                      A                      A
 Frequencies --    226.2153               248.7610               259.1424
 Red. masses --      4.6479                 2.6482                 2.2784
 Frc consts  --      0.1401                 0.0966                 0.0901
 IR Inten    --      2.8980                 0.9666                 1.3007

                     16                     17                     18
                      A                      A                      A
 Frequencies --    260.7056               283.9809               298.0238
 Red. masses --      1.1052                 1.4235                 2.7192
 Frc consts  --      0.0443                 0.0676                 0.1423
 IR Inten    --      0.0964                 0.9705                 1.0887

                     19                     20                     21
                      A                      A                      A
 Frequencies --    306.6909               322.3898               352.8134
 Red. masses --      2.2157                 2.7022                 3.5124
 Frc consts  --      0.1228                 0.1655                 0.2576
 IR Inten    --      1.4653                 3.5066                 0.8898

                     22                     23                     24
                      A                      A                      A
 Frequencies --    371.0277               407.3848               450.9689
 Red. masses --      2.4600                 3.4924                 4.0209
 Frc consts  --      0.1995                 0.3415                 0.4818
 IR Inten    --      1.2345                 0.7341                 2.1612

                     25                     26                     27
                      A                      A                      A
 Frequencies --    462.5052               488.8800               533.9936
 Red. masses --      4.6786                 3.0454                 3.1886
 Frc consts  --      0.5897                 0.4288                 0.5357
 IR Inten    --      0.4380                 1.5661                14.9811

                     28                     29                     30
                      A                      A                      A
 Frequencies --    543.8941               573.9347               600.9967
 Red. masses --      2.8842                 4.9726                 3.2916
 Frc consts  --      0.5027                 0.9651                 0.7005
 IR Inten    --      1.6335                 3.6535                10.7063

                     31                     32                     33
                      A                      A                      A
 Frequencies --    625.3576               653.3412               685.4048
 Red. masses --      3.5259                 5.0080                 3.9082
 Frc consts  --      0.8124                 1.2595                 1.0817
 IR Inten    --      2.5361                 8.4566                 4.1049

                     34                     35                     36
                      A                      A                      A
 Frequencies --    687.4296               692.8335               703.9753
 Red. masses --      1.2383                 2.1356                 3.0543
 Frc consts  --      0.3448                 0.6040                 0.8918
 IR Inten    --      9.4510                72.8454                25.8312

                     37                     38                     39
                      A                      A                      A
 Frequencies --    783.2939               795.5401               799.0930
 Red. masses --      3.8844                 1.3982                 1.9152
 Frc consts  --      1.4042                 0.5214                 0.7206
 IR Inten    --     21.0846                50.3543                16.4641

                     40                     41                     42
                      A                      A                      A
 Frequencies --    829.6283               831.4399               843.9340
 Red. masses --      1.2058                 1.6401                 4.0674
 Frc consts  --      0.4890                 0.6680                 1.7068
 IR Inten    --      2.0106               112.1567                11.5226

                     43                     44                     45
                      A                      A                      A
 Frequencies --    872.7878               877.6148               887.8384
 Red. masses --      4.1853                 1.3930                 1.2747
 Frc consts  --      1.8784                 0.6321                 0.5920
 IR Inten    --      4.0355                 3.3689                 0.7211

                     46                     47                     48
                      A                      A                      A
 Frequencies --    897.6256               914.5076               951.8699
 Red. masses --      2.0855                 2.3140                 1.9472
 Frc consts  --      0.9901                 1.1402                 1.0395
 IR Inten    --      7.3898                 1.5624                 0.6052

                     49                     50                     51
                      A                      A                      A
 Frequencies --    953.6198               963.6920               970.9817
 Red. masses --      2.1260                 2.1705                 2.4610
 Frc consts  --      1.1391                 1.1876                 1.3670
 IR Inten    --     13.8837                 5.3675                 2.8227

                     52                     53                     54
                      A                      A                      A
 Frequencies --    998.3205              1019.1706              1027.9083
 Red. masses --      1.5656                 2.2395                 1.8808
 Frc consts  --      0.9193                 1.3706                 1.1708
 IR Inten    --      0.0994                 3.2268                 3.8250

                     55                     56                     57
                      A                      A                      A
 Frequencies --   1043.7462              1059.9844              1076.4068
 Red. masses --      1.7769                 3.0266                 1.5915
 Frc consts  --      1.1405                 2.0035                 1.0865
 IR Inten    --      4.8120                30.2396                 7.4623

                     58                     59                     60
                      A                      A                      A
 Frequencies --   1096.4846              1115.9153              1145.0455
 Red. masses --      2.0875                 1.1168                 1.8128
 Frc consts  --      1.4787                 0.8194                 1.4004
 IR Inten    --      6.3166                 6.4199                32.0180

                     61                     62                     63
                      A                      A                      A
 Frequencies --   1165.4098              1170.7879              1174.5250
 Red. masses --      2.3566                 2.0141                 1.6793
 Frc consts  --      1.8858                 1.6266                 1.3649
 IR Inten    --     17.5221                 8.3231                 4.3141

                     64                     65                     66
                      A                      A                      A
 Frequencies --   1184.1064              1197.7584              1206.7110
 Red. masses --      1.6135                 1.8335                 2.2453
 Frc consts  --      1.3329                 1.5498                 1.9263
 IR Inten    --     22.8754                13.9868                50.6849

                     67                     68                     69
                      A                      A                      A
 Frequencies --   1233.1328              1241.6907              1272.3137
 Red. masses --      1.4140                 2.0405                 1.3070
 Frc consts  --      1.2668                 1.8536                 1.2466
 IR Inten    --      6.5548                 2.8023                27.7659

                     70                     71                     72
                      A                      A                      A
 Frequencies --   1285.3961              1297.6834              1316.9628
 Red. masses --      1.2828                 1.2569                 1.1996
 Frc consts  --      1.2488                 1.2471                 1.2258
 IR Inten    --      1.7445                32.9289                 8.4045

                     73                     74                     75
                      A                      A                      A
 Frequencies --   1322.1947              1355.3276              1361.7594
 Red. masses --      1.2442                 1.4471                 1.4502
 Frc consts  --      1.2815                 1.5662                 1.5844
 IR Inten    --     11.8445                67.2040                 1.6445

                     76                     77                     78
                      A                      A                      A
 Frequencies --   1379.1056              1387.0929              1393.2233
 Red. masses --      1.4592                 1.4017                 1.3314
 Frc consts  --      1.6352                 1.5890                 1.5227
 IR Inten    --     97.1464                26.4978                17.9872

                     79                     80                     81
                      A                      A                      A
 Frequencies --   1426.1906              1437.4918              1440.9510
 Red. masses --      2.6543                 2.2611                 1.3618
 Frc consts  --      3.1809                 2.7528                 1.6660
 IR Inten    --      9.0455               134.3404                25.7107

                     82                     83                     84
                      A                      A                      A
 Frequencies --   1443.6519              1467.9719              1482.2816
 Red. masses --      1.3004                 5.7866                 1.4840
 Frc consts  --      1.5968                 7.3469                 1.9211
 IR Inten    --      4.0964                11.2590                65.1887

                     85                     86                     87
                      A                      A                      A
 Frequencies --   1502.8435              1510.3343              1512.6562
 Red. masses --      1.2983                 1.0810                 1.0788
 Frc consts  --      1.7277                 1.4528                 1.4543
 IR Inten    --      3.4544                 5.0516                 2.4861

                     88                     89                     90
                      A                      A                      A
 Frequencies --   1520.8071              1524.0822              1526.1524
 Red. masses --      1.0613                 1.0433                 1.0587
 Frc consts  --      1.4463                 1.4279                 1.4529
 IR Inten    --      0.9728                 0.9362                 6.7232

                     91                     92                     93
                      A                      A                      A
 Frequencies --   1530.4656              1534.4516              1536.5247
 Red. masses --      1.0794                 1.0710                 1.0854
 Frc consts  --      1.4896                 1.4857                 1.5099
 IR Inten    --      0.9220                 0.8607                 5.8041

                     94                     95                     96
                      A                      A                      A
 Frequencies --   1549.0086              1558.5421              1598.2925
 Red. masses --      1.1477                 1.1156                 4.4870
 Frc consts  --      1.6226                 1.5966                 6.7533
 IR Inten    --      2.8700                 2.9434                 3.8817

                     97                     98                     99
                      A                      A                      A
 Frequencies --   1724.7559              2959.0376              3002.3548
 Red. masses --      4.5162                 1.0755                 1.0735
 Frc consts  --      7.9155                 5.5485                 5.7012
 IR Inten    --    584.4280                63.6537                52.6618

                    100                    101                    102
                      A                      A                      A
 Frequencies --   3038.5210              3039.3912              3051.4269
 Red. masses --      1.0633                 1.0433                 1.0359
 Frc consts  --      5.7838                 5.6782                 5.6827
 IR Inten    --     24.2648                30.6362                24.6584

                    103                    104                    105
                      A                      A                      A
 Frequencies --   3052.8034              3053.9744              3060.3021
 Red. masses --      1.0857                 1.0603                 1.0606
 Frc consts  --      5.9615                 5.8263                 5.8522
 IR Inten    --     37.7474                20.9659                35.2015

                    106                    107                    108
                      A                      A                      A
 Frequencies --   3074.3244              3078.4627              3095.0250
 Red. masses --      1.0653                 1.0990                 1.1004
 Frc consts  --      5.9324                 6.1362                 6.2103
 IR Inten    --     18.9846                35.3786                21.4626

                    109                    110                    111
                      A                      A                      A
 Frequencies --   3110.0923              3114.2670              3120.4191
 Red. masses --      1.0945                 1.1018                 1.0908
 Frc consts  --      6.2374                 6.2962                 6.2576
 IR Inten    --     16.3443                24.0193                18.3898

                    112                    113                    114
                      A                      A                      A
 Frequencies --   3122.0640              3131.0019              3135.7199
 Red. masses --      1.1025                 1.1015                 1.1065
 Frc consts  --      6.3314                 6.3622                 6.4103
 IR Inten    --     39.5868                22.1798                14.6097

                    115                    116                    117
                      A                      A                      A
 Frequencies --   3138.0571              3209.7781              3270.1761
 Red. masses --      1.1023                 1.0909                 1.0962
 Frc consts  --      6.3954                 6.6217                 6.9066
 IR Inten    --     24.5013                 6.1462                 1.1620

                    118                    119                    120
                      A                      A                      A
 Frequencies --   3280.0651              3546.3529              3593.4438
 Red. masses --      1.0935                 1.0739                 1.0740
 Frc consts  --      6.9318                 7.9573                 8.1711
 IR Inten    --      0.9390                25.6167                10.6108

 - Thermochemistry -
 -------------------
 Temperature   298.150 Kelvin.  Pressure   1.00000 Atm.
 Atom     1 has atomic number  6 and mass  12.00000

 Molecular mass:   297.13334 amu.
 Principal axes and moments of inertia in atomic units:
                           1         2         3
     Eigenvalues --  2944.27306********************
           X            0.99992   0.01212   0.00324
           Y           -0.01165   0.99299  -0.11760
           Z           -0.00465   0.11755   0.99306
 This molecule is an asymmetric top.
 Rotational symmetry number  1.
 Warning -- assumption of classical behavior for rotation
           may cause significant error
 Rotational temperatures (Kelvin)      0.02942     0.00700     0.00692
 Rotational constants (GHZ):           0.61297     0.14583     0.14427
 Zero-point vibrational energy     950802.0 (Joules/Mol)
                                  227.24712 (Kcal/Mol)
 Warning -- explicit consideration of  30 degrees of freedom as
           vibrations may cause significant error
 Vibrational temperatures:     30.34    45.71    51.09    68.79    77.15
          (Kelvin)             89.77   108.69   153.99   165.36   240.61
                              271.77   300.78   325.47   357.91   372.85
                              375.10   408.59   428.79   441.26   463.85
                              507.62   533.83   586.14   648.84   665.44
                              703.39   768.30   782.54   825.76   864.70
                              899.75   940.01   986.14   989.06   996.83
                             1012.86  1126.99  1144.60  1149.72  1193.65
                             1196.26  1214.23  1255.75  1262.69  1277.40
                             1291.48  1315.77  1369.53  1372.05  1386.54
                             1397.03  1436.36  1466.36  1478.93  1501.72
                             1525.08  1548.71  1577.60  1605.55  1647.47
                             1676.76  1684.50  1689.88  1703.66  1723.31
                             1736.19  1774.20  1786.52  1830.58  1849.40
                             1867.08  1894.82  1902.34  1950.01  1959.27
                             1984.23  1995.72  2004.54  2051.97  2068.23
                             2073.21  2077.09  2112.08  2132.67  2162.26
                             2173.03  2176.37  2188.10  2192.81  2195.79
                             2202.00  2207.73  2210.72  2228.68  2242.39
                             2299.59  2481.54  4257.40  4319.72  4371.75
                             4373.01  4390.32  4392.30  4393.99  4403.09
                             4423.27  4429.22  4453.05  4474.73  4480.74
                             4489.59  4491.95  4504.81  4511.60  4514.96
                             4618.15  4705.05  4719.28  5102.41  5170.16

 Zero-point correction=                           0.362141 (Hartree/Particle)
 Thermal correction to Energy=                    0.382363
 Thermal correction to Enthalpy=                  0.383307
 Thermal correction to Gibbs Free Energy=         0.310936
 Sum of electronic and zero-point Energies=          -1507.685593
 Sum of electronic and thermal Energies=             -1507.665372
 Sum of electronic and thermal Enthalpies=           -1507.664428
 Sum of electronic and thermal Free Energies=        -1507.736798

                     E (Thermal)             CV                S
                      KCal/Mol        Cal/Mol-Kelvin    Cal/Mol-Kelvin
 Total                  239.936             76.440            152.317
 Electronic               0.000              0.000              0.000
 Translational            0.889              2.981             42.964
 Rotational               0.889              2.981             34.476
 Vibrational            238.159             70.478             74.876
 Vibration     1          0.593              1.985              6.529
 Vibration     2          0.594              1.983              5.716
 Vibration     3          0.594              1.982              5.495
 Vibration     4          0.595              1.978              4.906
 Vibration     5          0.596              1.976              4.679
 Vibration     6          0.597              1.972              4.380
 Vibration     7          0.599              1.965              4.003
 Vibration     8          0.606              1.944              3.322
 Vibration     9          0.608              1.937              3.184
 Vibration    10          0.624              1.883              2.466
 Vibration    11          0.633              1.855              2.239
 Vibration    12          0.642              1.827              2.052
 Vibration    13          0.650              1.801              1.909
 Vibration    14          0.662              1.765              1.739
 Vibration    15          0.668              1.747              1.668
 Vibration    16          0.669              1.745              1.657
 Vibration    17          0.682              1.703              1.510
 Vibration    18          0.691              1.677              1.428
 Vibration    19          0.697              1.661              1.380
 Vibration    20          0.707              1.631              1.298
 Vibration    21          0.729              1.569              1.154
 Vibration    22          0.743              1.532              1.076
 Vibration    23          0.772              1.454              0.936
 Vibration    24          0.810              1.359              0.793
 Vibration    25          0.820              1.333              0.759
 Vibration    26          0.845              1.275              0.687
 Vibration    27          0.889              1.175              0.578
 Vibration    28          0.899              1.153              0.557
 Vibration    29          0.930              1.088              0.497
 Vibration    30          0.959              1.030              0.448

                           ! Non-Optimized Parameters !
 Normal termination of Gaussian 16 at Sat Dec 12 10:32:42 2020.

 ----------------------------------------------------------------------
 # B3LYP/6-311++G(d,p) empiricaldispersion=gd3bj scf=xqc pop=npa geom=c
 heck
 ----------------------------------------------------------------------

 ---------------------------------------
 CID_109739115_JID_9760_Energie_neutraal
 ---------------------------------------
 Structure from the checkpoint file:  "JID_9760.chk"
 Charge =  0 Multiplicity = 1

 SCF Done:  E(RB3LYP) =  -1508.29937264     A.U. after   16 cycles
 Normal termination of Gaussian 16 at Sat Dec 12 10:42:23 2020.

 ----------------------------------------------------------------------
 # B3LYP/6-311++G(d,p) empiricaldispersion=gd3bj scf=xqc pop=npa geom=c
 heck
 ----------------------------------------------------------------------

 -------------------------------------
 CID_109739115_JID_9760_Energie_kation
 -------------------------------------
 Structure from the checkpoint file:  "JID_9760.chk"
 Charge =  1 Multiplicity = 2

 SCF Done:  E(UB3LYP) =  -1508.02205458     A.U. after   28 cycles
 Normal termination of Gaussian 16 at Sat Dec 12 11:05:21 2020.
 Gaussian 16:  ES64L-G16RevA.03 25-Dec-2016

 ----------------------------------------------------------------------
 # B3LYP/6-311++G(d,p) empiricaldispersion=gd3bj scf=xqc pop=npa geom=c
 heck
 ----------------------------------------------------------------------

 ------------------------------------
 CID_109739115_JID_9760_Energie_anion
 ------------------------------------
 Structure from the checkpoint file:  "JID_9760.chk"
 Charge = -1 Multiplicity = 2

                         Standard orientation:
 ---------------------------------------------------------------------
 Center     Atomic      Atomic             Coordinates (Angstroms)
 Number     Number       Type             X           Y           Z
 ---------------------------------------------------------------------
      1          6           0       -1.814308    1.620435   -2.300799
      2          6           0       -0.726726    1.012890   -1.422475
      3          7           0       -0.876793   -0.452777   -1.388801
      4          6           0       -0.367122   -1.157457   -0.296986
      5          7           0       -0.989240   -2.024216    0.426305
      6          6           0       -2.421174   -2.187212    0.219827
      7          6           0       -3.250798   -0.930828    0.429070
      8          6           0       -2.894318    0.100296    1.257394
      9         16           0       -4.059909    1.385708    1.245375
     10          6           0       -5.054368    0.529631    0.110241
     11          6           0       -4.501615   -0.675518   -0.226527
     12          7           0        0.947873   -0.840642    0.034280
     13          6           0        1.987965   -0.859601   -0.989238
     14          6           0        3.243740   -0.080768   -0.563306
     15          6           0        2.921051    1.384075   -0.202753
     16          6           0        3.901021    1.856730    0.872984
     17          6           0        3.907890    0.765186    1.944584
     18         16           0        3.941464   -0.826629    1.016516
     19          6           0        4.298282   -0.182890   -1.669907
     20          1           0       -1.770014    1.211499   -3.316655
     21          1           0       -1.694421    2.706550   -2.363339
     22          1           0       -2.807225    1.413469   -1.884507
     23          1           0        0.262165    1.274593   -1.814169
     24          1           0       -0.793126    1.428783   -0.408580
     25          1           0       -1.840624   -0.707541   -1.562031
     26          1           0       -2.649604   -2.592659   -0.782125
     27          1           0       -2.762771   -2.957596    0.922582
     28          1           0       -1.999600    0.175042    1.858687
     29          1           0       -5.981617    0.963410   -0.238538
     30          1           0       -4.961523   -1.367912   -0.924596
     31          1           0        1.222592   -1.367654    0.858445
     32          1           0        2.274909   -1.890621   -1.249516
     33          1           0        1.586781   -0.408585   -1.900608
     34          1           0        2.963389    2.009743   -1.102626
     35          1           0        1.901222    1.425320    0.192947
     36          1           0        3.606512    2.824820    1.295348
     37          1           0        4.907817    1.968982    0.454110
     38          1           0        3.005424    0.812629    2.562006
     39          1           0        4.782965    0.811256    2.597580
     40          1           0        4.606672   -1.221285   -1.829074
     41          1           0        3.893920    0.201803   -2.615846
     42          1           0        5.191276    0.394320   -1.414910
 ---------------------------------------------------------------------

 SCF Done:  E(UB3LYP) =  -1508.28850934     A.U. after   33 cycles
 SCF Done:  E(UB3LYP) =  -1508.28850934     a.u. after    1 cycles

 The electronic state is 2-A.
 Alpha  occ. eigenvalues --  -88.79013 -88.74576 -14.23332 -14.22844 -14.18607
 Alpha  occ. eigenvalues --  -10.17204 -10.12870 -10.11894 -10.11380 -10.11349
 Alpha  occ. eigenvalues --  -10.11181 -10.11159 -10.10511 -10.09613 -10.09058
 Alpha  occ. eigenvalues --  -10.08823 -10.08207 -10.08076 -10.07422  -7.87614
 Alpha  occ. eigenvalues --   -7.83240  -5.83892  -5.83526  -5.83236  -5.79611
 Alpha  occ. eigenvalues --   -5.79281  -5.78614  -0.89563  -0.81456  -0.79974
 Alpha  occ. eigenvalues --   -0.78422  -0.76127  -0.69147  -0.66982  -0.65709
 Alpha  occ. eigenvalues --   -0.64096  -0.63469  -0.60897  -0.58219  -0.56800
 Alpha  occ. eigenvalues --   -0.53628  -0.50800  -0.49704  -0.48398  -0.45918
 Alpha  occ. eigenvalues --   -0.45170  -0.42786  -0.41620  -0.40072  -0.39203
 Alpha  occ. eigenvalues --   -0.38415  -0.37705  -0.36866  -0.35497  -0.34950
 Alpha  occ. eigenvalues --   -0.34124  -0.33643  -0.33266  -0.31568  -0.31217
 Alpha  occ. eigenvalues --   -0.30554  -0.29851  -0.29591  -0.29506  -0.28895
 Alpha  occ. eigenvalues --   -0.28423  -0.27618  -0.26825  -0.26229  -0.25896
 Alpha  occ. eigenvalues --   -0.25351  -0.24484  -0.23854  -0.21576  -0.17271
 Alpha  occ. eigenvalues --   -0.16891  -0.15953  -0.14920  -0.13995  -0.13641
 Alpha  occ. eigenvalues --    0.03821
 Alpha virt. eigenvalues --    0.05205   0.05919   0.06236   0.06854   0.06955
 Alpha virt. eigenvalues --    0.07848   0.07951   0.08582   0.08954   0.09154
 Alpha virt. eigenvalues --    0.09638   0.10045   0.10268   0.10287   0.10691

  Beta  occ. eigenvalues --  -88.79007 -88.74572 -14.23318 -14.22843 -14.18608
  Beta  occ. eigenvalues --  -10.17199 -10.12870 -10.11889 -10.11374 -10.11339
  Beta  occ. eigenvalues --  -10.11166 -10.11102 -10.10478 -10.09614 -10.09044
  Beta  occ. eigenvalues --  -10.08798 -10.08190 -10.08055 -10.07395  -7.87608
  Beta  occ. eigenvalues --   -7.83235  -5.83890  -5.83523  -5.83220  -5.79604
  Beta  occ. eigenvalues --   -5.79278  -5.78610  -0.89551  -0.81443  -0.79942
  Beta  occ. eigenvalues --   -0.78398  -0.76109  -0.69124  -0.66953  -0.65677
  Beta  occ. eigenvalues --   -0.64024  -0.63435  -0.60864  -0.58180  -0.56775
  Beta  occ. eigenvalues --   -0.53576  -0.50772  -0.49649  -0.48310  -0.45880
  Beta  occ. eigenvalues --   -0.45138  -0.42753  -0.41603  -0.40053  -0.39170
  Beta  occ. eigenvalues --   -0.38375  -0.37683  -0.36842  -0.35468  -0.34922
  Beta  occ. eigenvalues --   -0.34101  -0.33616  -0.33228  -0.31543  -0.31187
  Beta  occ. eigenvalues --   -0.30528  -0.29818  -0.29566  -0.29475  -0.28825
  Beta  occ. eigenvalues --   -0.28378  -0.27562  -0.26783  -0.26193  -0.25871
  Beta  occ. eigenvalues --   -0.25316  -0.24459  -0.23832  -0.21558  -0.17227
  Beta  occ. eigenvalues --   -0.16861  -0.15852  -0.14804  -0.13977  -0.13619
  Beta virt. eigenvalues --    0.05838   0.06144   0.06270   0.06651   0.07187
  Beta virt. eigenvalues --    0.07456   0.08000   0.08292   0.08818   0.09133
  Beta virt. eigenvalues --    0.09390   0.09910   0.10105   0.10375   0.10431

 Mulliken charges and spin densities:
               1          2
     1  C   -0.225138  -0.505562
     2  C    0.027773  -0.148783
     3  N    0.061090   0.000376
     4  C   -0.347999   0.014104
     5  N   -0.012116   0.015027
     6  C    0.438505  -1.111634
     7  C    0.056017  -0.518453
     8  C   -0.808686   1.306310
     9  S    0.531617  -0.646860
    10  C    0.352061  -0.868419
    11  C   -0.444330   0.474353
    12  N   -0.057895   0.025611
    13  C   -0.409231  -0.578648
    14  C   -0.034556   1.322767
    15  C   -0.811275   0.005533
    16  C    0.890617  -1.121488
    17  C   -0.449236  -0.337853
    18  S   -0.235799   0.118005
    19  C    0.804745  -1.030298
    20  H   -0.190656   0.349610
    21  H   -0.225548   0.378454
    22  H    0.056821   0.044488
    23  H    0.067868   0.090709
    24  H    0.006728   0.139495
    25  H    0.337296  -0.097780
    26  H    0.052433   0.126126
    27  H    0.156304   0.020808
    28  H    0.116880   0.201562
    29  H   -0.529660   0.785465
    30  H   -0.420595   0.599433
    31  H    0.284533   0.012562
    32  H    0.136338   0.021786
    33  H    0.208767  -0.019827
    34  H   -0.493530   0.666607
    35  H    0.576093  -0.357744
    36  H   -0.428809   0.609633
    37  H    0.002481   0.149534
    38  H    0.139683   0.040699
    39  H   -0.060638   0.269736
    40  H    0.075691   0.063713
    41  H   -0.161261   0.316174
    42  H   -0.033381   0.174671
 Sum of Mulliken charges =  -1.00000   1.00000

 Dipole moment (field-independent basis, Debye):
    X=              0.3861    Y=             -3.2524    Z=              1.8929  Tot=              3.7828
 Quadrupole moment (field-independent basis, Debye-Ang):
   XX=           -242.3933   YY=           -180.3230   ZZ=           -174.1170
   XY=             -7.5047   XZ=             -5.5429   YZ=              7.5035

 Summary of Natural Population Analysis:

                                       Natural Population
                Natural  -----------------------------------------------
    Atom  No    Charge         Core      Valence    Rydberg      Total
 -----------------------------------------------------------------------
      C    1   -0.29145      0.99966     2.28642    0.00537     3.29145
      C    2   -0.08794      0.99963     2.07745    0.01086     3.08794
      N    3   -0.33706      0.99967     2.82810    0.00929     3.83706
      C    4    0.32248      0.99959     1.66126    0.01668     2.67752
      N    5   -0.29995      0.99966     2.79066    0.00963     3.79995
      C    6   -0.10661      0.99956     2.09525    0.01180     3.10661
      C    7   -0.05749      0.99947     2.04636    0.01166     3.05749
      C    8   -0.19121      0.99944     2.18161    0.01016     3.19121
      S    9    0.20271      4.99945     2.77686    0.02098     7.79729
      C   10   -0.18570      0.99954     2.17386    0.01230     3.18570
      C   11   -0.13001      0.99948     2.11918    0.01134     3.13001
      N   12   -0.33361      0.99967     2.82416    0.00979     3.83361
      C   13   -0.09109      0.99952     2.07996    0.01161     3.09109
      C   14   -0.08349      0.99955     2.06827    0.01567     3.08349
      C   15   -0.20184      0.99956     2.19016    0.01212     3.20184
      C   16   -0.19423      0.99962     2.18516    0.00945     3.19423
      C   17   -0.24172      0.99960     2.23217    0.00995     3.24172
      S   18    0.07176      4.99959     2.91388    0.01477     7.92824
      C   19   -0.28994      0.99959     2.28207    0.00827     3.28994
      H   20    0.09870      0.00000     0.40029    0.00102     0.40130
      H   21    0.10519      0.00000     0.39374    0.00107     0.39481
      H   22    0.10184      0.00000     0.39630    0.00186     0.39816
      H   23    0.09069      0.00000     0.40699    0.00232     0.40931
      H   24    0.08997      0.00000     0.40801    0.00202     0.41003
      H   25    0.18960      0.00000     0.30672    0.00368     0.31040
      H   26    0.08759      0.00000     0.41066    0.00174     0.41241
      H   27    0.10263      0.00000     0.39607    0.00130     0.39737
      H   28    0.11635      0.00000     0.38244    0.00121     0.38365
      H   29    0.11141      0.00000     0.38720    0.00138     0.38859
      H   30    0.10841      0.00000     0.39036    0.00123     0.39159
      H   31    0.19646      0.00000     0.30012    0.00343     0.30354
      H   32    0.08955      0.00000     0.40935    0.00110     0.41045
      H   33    0.10588      0.00000     0.39237    0.00175     0.39412
      H   34    0.10787      0.00000     0.38999    0.00214     0.39213
      H   35    0.10928      0.00000     0.38851    0.00222     0.39072
      H   36    0.10584      0.00000     0.39283    0.00133     0.39416
      H   37    0.09830      0.00000     0.40024    0.00146     0.40170
      H   38    0.09800      0.00000     0.40055    0.00145     0.40200
      H   39    0.10488      0.00000     0.39398    0.00114     0.39512
      H   40    0.10098      0.00000     0.39813    0.00089     0.39902
      H   41    0.10117      0.00000     0.39770    0.00113     0.39883
      H   42    0.10580      0.00000     0.39298    0.00122     0.39420
 =======================================================================
   * Total *   -0.00000     26.99186    52.74834    0.25980    80.00000

 Normal termination of Gaussian 16 at Sat Dec 12 11:32:32 2020.
