 Gaussian 16, Revision A.03,

 -----------------------------------------------------------
 # opt freq B3LYP/6-31G(d) empiricaldispersion=gd3bj scf=xqc
 -----------------------------------------------------------

 ------------------------------
 CID_66229905_JID_4563_neutraal
 ------------------------------
 Symbolic Z-matrix:
 Charge =  0 Multiplicity = 1

 SCF Done:  E(RB3LYP) =  -990.875215902     A.U. after   15 cycles
 SCF Done:  E(RB3LYP) =  -990.879555775     A.U. after   12 cycles
 SCF Done:  E(RB3LYP) =  -990.880508700     A.U. after   12 cycles
 SCF Done:  E(RB3LYP) =  -990.880479163     A.U. after   13 cycles
 SCF Done:  E(RB3LYP) =  -990.882184725     A.U. after   14 cycles
 SCF Done:  E(RB3LYP) =  -990.883410814     A.U. after   12 cycles
 SCF Done:  E(RB3LYP) =  -990.884689501     A.U. after   13 cycles
 SCF Done:  E(RB3LYP) =  -990.885065671     A.U. after   13 cycles
 SCF Done:  E(RB3LYP) =  -990.885187136     A.U. after   11 cycles
 SCF Done:  E(RB3LYP) =  -990.885363167     A.U. after   11 cycles
 SCF Done:  E(RB3LYP) =  -990.886108257     A.U. after   11 cycles
 SCF Done:  E(RB3LYP) =  -990.886108215     A.U. after    8 cycles
 SCF Done:  E(RB3LYP) =  -990.886108964     A.U. after    9 cycles
 SCF Done:  E(RB3LYP) =  -990.886108966     A.U. after    6 cycles
 SCF Done:  E(RB3LYP) =  -990.886108960     A.U. after    7 cycles
 Optimization completed.
    -- Stationary point found.
 Normal termination of Gaussian 16 at Thu Dec 10 10:21:07 2020.

 --------------------------------------------------------------------
 #N Geom=AllCheck Guess=TCheck SCRF=Check GenChk RB3LYP/6-31G(d) Freq
 --------------------------------------------------------------------

 Structure from the checkpoint file:  "JID_4563.chk"
 ------------------------------
 CID_66229905_JID_4563_neutraal
 ------------------------------
 Charge =  0 Multiplicity = 1

 SCF Done:  E(RB3LYP) =  -990.886108960     A.U. after    1 cycles

  Exact polarizability: 151.841   0.621 137.133   1.696  -3.133 102.864
 Approx polarizability: 211.595  -3.864 203.186   3.038  -8.600 156.550

                      1                      2                      3
                      A                      A                      A
 Frequencies --     24.3187                40.4483                50.3396
 Red. masses --      2.5762                 4.0947                 3.8293
 Frc consts  --      0.0009                 0.0039                 0.0057
 IR Inten    --      0.1898                 0.4298                 0.3049

                      4                      5                      6
                      A                      A                      A
 Frequencies --     53.5827                90.9762               117.1901
 Red. masses --      3.7872                 3.9269                 5.6741
 Frc consts  --      0.0064                 0.0191                 0.0459
 IR Inten    --      0.8297                 0.9979                 0.2462

                      7                      8                      9
                      A                      A                      A
 Frequencies --    147.2398               181.3728               188.6973
 Red. masses --      3.2861                 1.9620                 1.9019
 Frc consts  --      0.0420                 0.0380                 0.0399
 IR Inten    --      0.6757                 0.9994                 0.6551

                     10                     11                     12
                      A                      A                      A
 Frequencies --    210.7045               234.3481               255.2946
 Red. masses --      2.1429                 2.3917                 1.3931
 Frc consts  --      0.0561                 0.0774                 0.0535
 IR Inten    --      0.3710                 0.1528                23.7359

                     13                     14                     15
                      A                      A                      A
 Frequencies --    266.1747               284.1022               297.9348
 Red. masses --      1.8624                 1.4126                 2.2385
 Frc consts  --      0.0777                 0.0672                 0.1171
 IR Inten    --      3.5122                23.2016                 6.0242

                     16                     17                     18
                      A                      A                      A
 Frequencies --    344.4450               371.3756               383.6972
 Red. masses --      2.2708                 3.8800                 5.1901
 Frc consts  --      0.1587                 0.3153                 0.4502
 IR Inten    --      4.6465                11.4063                11.3712

                     19                     20                     21
                      A                      A                      A
 Frequencies --    426.6818               455.2248               559.9642
 Red. masses --      2.2720                 4.5127                 2.2116
 Frc consts  --      0.2437                 0.5510                 0.4086
 IR Inten    --      1.5790                 1.1348                 8.0877

                     22                     23                     24
                      A                      A                      A
 Frequencies --    615.9668               652.0448               690.3247
 Red. masses --      4.9485                 3.7399                 4.1564
 Frc consts  --      1.1062                 0.9368                 1.1670
 IR Inten    --      4.0008                 0.4529                 1.8338

                     25                     26                     27
                      A                      A                      A
 Frequencies --    730.4929               762.7054               782.9871
 Red. masses --      3.9045                 3.6486                 3.0184
 Frc consts  --      1.2276                 1.2505                 1.0903
 IR Inten    --      6.9284                 7.4179                18.9293

                     28                     29                     30
                      A                      A                      A
 Frequencies --    791.3554               801.1370               817.0701
 Red. masses --      2.9930                 1.4181                 1.5821
 Frc consts  --      1.1043                 0.5362                 0.6223
 IR Inten    --      5.4056                24.8423                 8.5044

                     31                     32                     33
                      A                      A                      A
 Frequencies --    871.7829               908.2500               918.0537
 Red. masses --      1.7164                 2.4353                 3.6719
 Frc consts  --      0.7686                 1.1836                 1.8234
 IR Inten    --     27.6952                63.3978                47.7891

                     34                     35                     36
                      A                      A                      A
 Frequencies --    952.1079               972.4219               987.9524
 Red. masses --      1.7589                 2.1867                 2.1486
 Frc consts  --      0.9394                 1.2183                 1.2356
 IR Inten    --     31.2089                17.2417                 6.7348

                     37                     38                     39
                      A                      A                      A
 Frequencies --   1019.4687              1034.3412              1062.3949
 Red. masses --      1.5281                 6.5396                 5.0732
 Frc consts  --      0.9357                 4.1222                 3.3737
 IR Inten    --      5.3569                 1.7437                 4.1792

                     40                     41                     42
                      A                      A                      A
 Frequencies --   1078.6478              1092.5380              1110.6798
 Red. masses --      1.3839                 2.1891                 2.3045
 Frc consts  --      0.9487                 1.5396                 1.6750
 IR Inten    --      4.1684                15.2358                 3.6613

                     43                     44                     45
                      A                      A                      A
 Frequencies --   1128.2470              1170.1140              1188.3096
 Red. masses --      1.5680                 1.4963                 1.5353
 Frc consts  --      1.1760                 1.2070                 1.2773
 IR Inten    --      0.1058                10.1902                 1.7853

                     46                     47                     48
                      A                      A                      A
 Frequencies --   1203.2561              1251.7477              1257.0170
 Red. masses --      1.2201                 1.3735                 2.8963
 Frc consts  --      1.0408                 1.2680                 2.6963
 IR Inten    --     19.5781                 3.1119                32.5135

                     49                     50                     51
                      A                      A                      A
 Frequencies --   1291.8122              1298.5199              1313.3396
 Red. masses --      1.2637                 1.1632                 1.1498
 Frc consts  --      1.2425                 1.1556                 1.1685
 IR Inten    --      3.9027                 0.2031                 2.2455

                     52                     53                     54
                      A                      A                      A
 Frequencies --   1327.5913              1375.2733              1386.4749
 Red. masses --      1.3567                 1.5370                 2.9601
 Frc consts  --      1.4088                 1.7128                 3.3526
 IR Inten    --      4.8270                 2.9684                76.1086

                     55                     56                     57
                      A                      A                      A
 Frequencies --   1405.9640              1419.8517              1431.3286
 Red. masses --      1.2643                 2.5200                 1.3749
 Frc consts  --      1.4724                 2.9932                 1.6596
 IR Inten    --      5.2633                22.3732                 5.9752

                     58                     59                     60
                      A                      A                      A
 Frequencies --   1447.6912              1451.5174              1482.9017
 Red. masses --      1.2718                 1.2618                 1.1442
 Frc consts  --      1.5705                 1.5664                 1.4824
 IR Inten    --      2.0770                 9.3612                14.2212

                     61                     62                     63
                      A                      A                      A
 Frequencies --   1501.4801              1503.7651              1524.9660
 Red. masses --      1.1017                 1.0835                 1.0438
 Frc consts  --      1.4634                 1.4436                 1.4302
 IR Inten    --      7.9118                 1.5403                 9.9883

                     64                     65                     66
                      A                      A                      A
 Frequencies --   1525.5157              1531.7072              1541.2372
 Red. masses --      1.0760                 1.0749                 1.0411
 Frc consts  --      1.4754                 1.4859                 1.4571
 IR Inten    --      3.3605                 8.0179                 3.4219

                     67                     68                     69
                      A                      A                      A
 Frequencies --   1549.8848              1568.1385              1632.7482
 Red. masses --      1.0596                 7.5794                 8.5457
 Frc consts  --      1.4996                10.9813                13.4225
 IR Inten    --      2.0814                 8.4411               127.4276

                     70                     71                     72
                      A                      A                      A
 Frequencies --   1695.0274              3030.8178              3047.7231
 Red. masses --      1.0905                 1.0670                 1.0397
 Frc consts  --      1.8459                 5.7746                 5.6899
 IR Inten    --     19.6444                25.5756                28.5995

                     73                     74                     75
                      A                      A                      A
 Frequencies --   3052.5570              3054.0991              3070.8055
 Red. masses --      1.0615                 1.0827                 1.0948
 Frc consts  --      5.8279                 5.9501                 6.0828
 IR Inten    --     10.8883                35.8032                24.5279

                     76                     77                     78
                      A                      A                      A
 Frequencies --   3071.3509              3082.4656              3090.4108
 Red. masses --      1.0359                 1.1008                 1.0592
 Frc consts  --      5.7574                 6.1624                 5.9600
 IR Inten    --     22.2396                 4.4354                 8.7371

                     79                     80                     81
                      A                      A                      A
 Frequencies --   3103.8850              3107.4502              3126.9437
 Red. masses --      1.0587                 1.0995                 1.1023
 Frc consts  --      6.0096                 6.2551                 6.3501
 IR Inten    --      5.3923                38.6429                18.4912

                     82                     83                     84
                      A                      A                      A
 Frequencies --   3142.7089              3143.0410              3147.2139
 Red. masses --      1.1057                 1.1038                 1.1033
 Frc consts  --      6.4342                 6.4243                 6.4388
 IR Inten    --      1.8112                26.4298                18.6927

                     85                     86                     87
                      A                      A                      A
 Frequencies --   3159.6793              3453.4309              3539.6604
 Red. masses --      1.1068                 1.0491                 1.0920
 Frc consts  --      6.5105                 7.3715                 8.0610
 IR Inten    --      1.1069                 2.7630                 0.8890

 - Thermochemistry -
 -------------------
 Temperature   298.150 Kelvin.  Pressure   1.00000 Atm.
 Atom     1 has atomic number  6 and mass  12.00000

 Molecular mass:   215.10923 amu.
 Principal axes and moments of inertia in atomic units:
                           1         2         3
     Eigenvalues --  2244.716314703.228745928.41889
           X            0.99978   0.01541  -0.01391
           Y           -0.01555   0.99983  -0.00974
           Z            0.01376   0.00996   0.99986
 This molecule is an asymmetric top.
 Rotational symmetry number  1.
 Warning -- assumption of classical behavior for rotation
           may cause significant error
 Rotational temperatures (Kelvin)      0.03859     0.01842     0.01461
 Rotational constants (GHZ):           0.80400     0.38372     0.30442
 Zero-point vibrational energy     696624.4 (Joules/Mol)
                                  166.49723 (Kcal/Mol)
 Warning -- explicit consideration of  22 degrees of freedom as
           vibrations may cause significant error
 Vibrational temperatures:     34.99    58.20    72.43    77.09   130.89
          (Kelvin)            168.61   211.85   260.95   271.49   303.16
                              337.17   367.31   382.97   408.76   428.66
                              495.58   534.33   552.05   613.90   654.97
                              805.66   886.24   938.15   993.22  1051.02
                             1097.36  1126.54  1138.58  1152.66  1175.58
                             1254.30  1306.77  1320.87  1369.87  1399.10
                             1421.44  1466.79  1488.19  1528.55  1551.93
                             1571.92  1598.02  1623.30  1683.53  1709.71
                             1731.22  1800.99  1808.57  1858.63  1868.28
                             1889.60  1910.11  1978.71  1994.83  2022.87
                             2042.85  2059.36  2082.90  2088.41  2133.56
                             2160.29  2163.58  2194.09  2194.88  2203.79
                             2217.50  2229.94  2256.20  2349.16  2438.77
                             4360.67  4384.99  4391.95  4394.17  4418.20
                             4418.99  4434.98  4446.41  4465.80  4470.93
                             4498.97  4521.66  4522.13  4528.14  4546.07
                             4968.72  5092.78

 Zero-point correction=                           0.265330 (Hartree/Particle)
 Thermal correction to Energy=                    0.281065
 Thermal correction to Enthalpy=                  0.282009
 Thermal correction to Gibbs Free Energy=         0.220561
 Sum of electronic and zero-point Energies=           -990.620779
 Sum of electronic and thermal Energies=              -990.605044
 Sum of electronic and thermal Enthalpies=            -990.604100
 Sum of electronic and thermal Free Energies=         -990.665548

                     E (Thermal)             CV                S
                      KCal/Mol        Cal/Mol-Kelvin    Cal/Mol-Kelvin
 Total                  176.371             57.083            129.330
 Electronic               0.000              0.000              0.000
 Translational            0.889              2.981             42.001
 Rotational               0.889              2.981             32.504
 Vibrational            174.594             51.122             54.825
 Vibration     1          0.593              1.985              6.246
 Vibration     2          0.594              1.981              5.237
 Vibration     3          0.595              1.977              4.804
 Vibration     4          0.596              1.976              4.681
 Vibration     5          0.602              1.956              3.639
 Vibration     6          0.608              1.935              3.146
 Vibration     7          0.617              1.906              2.708
 Vibration     8          0.630              1.865              2.314
 Vibration     9          0.633              1.855              2.241
 Vibration    10          0.643              1.824              2.038
 Vibration    11          0.654              1.788              1.845
 Vibration    12          0.666              1.754              1.694
 Vibration    13          0.672              1.735              1.621
 Vibration    14          0.683              1.703              1.509
 Vibration    15          0.691              1.678              1.428
 Vibration    16          0.723              1.587              1.191
 Vibration    17          0.743              1.531              1.074
 Vibration    18          0.753              1.505              1.025
 Vibration    19          0.788              1.412              0.870
 Vibration    20          0.814              1.349              0.780
 Vibration    21          0.916              1.118              0.524
 Vibration    22          0.976              0.998              0.423

 Optimization completed.
    -- Stationary point found.
 Normal termination of Gaussian 16 at Thu Dec 10 10:30:32 2020.

 ----------------------------------------------------------------------
 # B3LYP/6-311++G(d,p) empiricaldispersion=gd3bj scf=xqc pop=npa geom=c
 heck
 ----------------------------------------------------------------------

 --------------------------------------
 CID_66229905_JID_4563_Energie_neutraal
 --------------------------------------
 Structure from the checkpoint file:  "JID_4563.chk"
 Charge =  0 Multiplicity = 1

 SCF Done:  E(RB3LYP) =  -991.083198106     A.U. after   15 cycles
 Normal termination of Gaussian 16 at Thu Dec 10 10:35:23 2020.

 ----------------------------------------------------------------------
 # B3LYP/6-311++G(d,p) empiricaldispersion=gd3bj scf=xqc pop=npa geom=c
 heck
 ----------------------------------------------------------------------

 ------------------------------------
 CID_66229905_JID_4563_Energie_kation
 ------------------------------------
 Structure from the checkpoint file:  "JID_4563.chk"
 Charge =  1 Multiplicity = 2

 SCF Done:  E(UB3LYP) =  -990.778962735     A.U. after   23 cycles
 Normal termination of Gaussian 16 at Thu Dec 10 10:46:05 2020.
 Gaussian 16:  ES64L-G16RevA.03 25-Dec-2016

 ----------------------------------------------------------------------
 # B3LYP/6-311++G(d,p) empiricaldispersion=gd3bj scf=xqc pop=npa geom=c
 heck
 ----------------------------------------------------------------------

 -----------------------------------
 CID_66229905_JID_4563_Energie_anion
 -----------------------------------
 Structure from the checkpoint file:  "JID_4563.chk"
 Charge = -1 Multiplicity = 2

                         Standard orientation:
 ---------------------------------------------------------------------
 Center     Atomic      Atomic             Coordinates (Angstroms)
 Number     Number       Type             X           Y           Z
 ---------------------------------------------------------------------
      1          6           0        2.542044    2.732616   -0.387684
      2          6           0        3.407579    1.473478   -0.309132
      3          6           0        2.607489    0.248338   -0.018460
      4          7           0        1.334625    0.150829    0.241599
      5          6           0        1.163469   -1.210102    0.423137
      6          7           0        2.258920   -1.915482    0.294682
      7          8           0        3.235798   -0.939328   -0.005041
      8          6           0       -0.156994   -1.829371    0.724420
      9         16           0       -1.286837   -1.906960   -0.730069
     10          6           0       -1.670206   -0.143245   -1.073746
     11          6           0       -2.934708    0.402338   -0.393129
     12          6           0       -2.858590    0.438987    1.147209
     13          6           0       -1.800609    1.388047    1.720637
     14          7           0       -3.228658    1.698532   -1.026419
     15          1           0        1.795179    2.644039   -1.181878
     16          1           0        3.167431    3.605976   -0.594663
     17          1           0        2.009134    2.899716    0.552443
     18          1           0        3.952846    1.311494   -1.247320
     19          1           0        4.174873    1.575065    0.469504
     20          1           0       -0.007777   -2.870697    1.018375
     21          1           0       -0.637699   -1.300267    1.549884
     22          1           0       -0.786360    0.455465   -0.836488
     23          1           0       -1.818086   -0.089975   -2.155626
     24          1           0       -3.761107   -0.267077   -0.663394
     25          1           0       -3.847666    0.734087    1.524761
     26          1           0       -2.693755   -0.581707    1.514902
     27          1           0       -1.996845    2.424991    1.422105
     28          1           0       -1.811099    1.361851    2.815781
     29          1           0       -0.788230    1.135446    1.388243
     30          1           0       -4.096561    2.073296   -0.643957
     31          1           0       -2.502334    2.370612   -0.779768
 ---------------------------------------------------------------------

 SCF Done:  E(UB3LYP) =  -991.074082021     A.U. after   33 cycles
 SCF Done:  E(UB3LYP) =  -991.074082021     a.u. after    1 cycles

 The electronic state is 2-A.
 Alpha  occ. eigenvalues --  -88.74329 -19.10634 -14.25360 -14.21416 -14.19398
 Alpha  occ. eigenvalues --  -10.16721 -10.13476 -10.11591 -10.10140 -10.09674
 Alpha  occ. eigenvalues --  -10.09063 -10.06929 -10.06629 -10.05617  -7.82919
 Alpha  occ. eigenvalues --   -5.79329  -5.78949  -5.78274  -1.05548  -0.83521
 Alpha  occ. eigenvalues --   -0.79325  -0.77728  -0.70523  -0.68284  -0.66471
 Alpha  occ. eigenvalues --   -0.63380  -0.57021  -0.56007  -0.53137  -0.49836
 Alpha  occ. eigenvalues --   -0.48989  -0.45762  -0.40816  -0.40174  -0.39283
 Alpha  occ. eigenvalues --   -0.37274  -0.35729  -0.35122  -0.34774  -0.33473
 Alpha  occ. eigenvalues --   -0.32429  -0.31909  -0.30684  -0.29437  -0.28931
 Alpha  occ. eigenvalues --   -0.27660  -0.27325  -0.26582  -0.24911  -0.24364
 Alpha  occ. eigenvalues --   -0.23738  -0.23375  -0.22616  -0.21167  -0.19494
 Alpha  occ. eigenvalues --   -0.18081  -0.14940  -0.13074   0.04269
 Alpha virt. eigenvalues --    0.06052   0.06158   0.07769   0.08177   0.08940
 Alpha virt. eigenvalues --    0.09129   0.09301   0.09719   0.10881   0.11355
 Alpha virt. eigenvalues --    0.11530   0.11838   0.12579   0.13206   0.13410

  Beta  occ. eigenvalues --  -88.74318 -19.10512 -14.25177 -14.21448 -14.19366
  Beta  occ. eigenvalues --  -10.16575 -10.13415 -10.11590 -10.10132 -10.09668
  Beta  occ. eigenvalues --  -10.09047 -10.06894 -10.06613 -10.05594  -7.82908
  Beta  occ. eigenvalues --   -5.79297  -5.78944  -5.78268  -1.05331  -0.83423
  Beta  occ. eigenvalues --   -0.79272  -0.77475  -0.70465  -0.68203  -0.66413
  Beta  occ. eigenvalues --   -0.63318  -0.56925  -0.55888  -0.53042  -0.49740
  Beta  occ. eigenvalues --   -0.48857  -0.45703  -0.40694  -0.39851  -0.39128
  Beta  occ. eigenvalues --   -0.37227  -0.35675  -0.34950  -0.34701  -0.33400
  Beta  occ. eigenvalues --   -0.32375  -0.31794  -0.30616  -0.29346  -0.28893
  Beta  occ. eigenvalues --   -0.27578  -0.27237  -0.26479  -0.24852  -0.24307
  Beta  occ. eigenvalues --   -0.23634  -0.23235  -0.22411  -0.21034  -0.19408
  Beta  occ. eigenvalues --   -0.17317  -0.14905  -0.13026
  Beta virt. eigenvalues --    0.06564   0.07068   0.07596   0.07995   0.08613
  Beta virt. eigenvalues --    0.09174   0.09582   0.09671   0.10046   0.10999
  Beta virt. eigenvalues --    0.11684   0.11769   0.12131   0.12886   0.13312

 Mulliken charges and spin densities:
               1          2
     1  C    0.396842  -0.945414
     2  C   -1.013322   0.380246
     3  C    0.241584  -0.583932
     4  N   -0.030707  -0.019519
     5  C   -0.090414   0.192863
     6  N   -0.366256   0.087486
     7  O    0.180972   0.032741
     8  C    0.336600  -0.176282
     9  S    0.232780  -0.066665
    10  C   -0.234209   0.010834
    11  C    0.489014  -0.903369
    12  C   -0.770982   0.484629
    13  C    0.201457  -0.801988
    14  N   -0.298357   0.022397
    15  H    0.009063   0.150276
    16  H   -0.681581   0.839950
    17  H   -0.035743   0.191724
    18  H   -0.244934   0.429406
    19  H    0.082280   0.082721
    20  H    0.237467   0.036513
    21  H    0.108256   0.035271
    22  H    0.329372  -0.219914
    23  H    0.140724   0.152860
    24  H    0.003257   0.169836
    25  H   -0.334935   0.507719
    26  H    0.088090   0.045108
    27  H   -0.109775   0.246530
    28  H   -0.243355   0.379363
    29  H    0.436014  -0.278809
    30  H   -0.098074   0.328088
    31  H    0.038870   0.189331
 Sum of Mulliken charges =  -1.00000   1.00000

 Dipole moment (field-independent basis, Debye):
    X=              0.3864    Y=             -4.3484    Z=              1.7081  Tot=              4.6878
 Quadrupole moment (field-independent basis, Debye-Ang):
   XX=           -166.2269   YY=           -146.3293   ZZ=           -124.0976
   XY=              2.8475   XZ=              6.7729   YZ=              0.9211

 Summary of Natural Population Analysis:

                                       Natural Population
                Natural  -----------------------------------------------
    Atom  No    Charge         Core      Valence    Rydberg      Total
 -----------------------------------------------------------------------
      C    1   -0.28227      0.99967     2.27720    0.00540     3.28227
      C    2   -0.22098      0.99960     2.21332    0.00807     3.22098
      C    3    0.31386      0.99963     1.66700    0.01951     2.68614
      N    4   -0.28994      0.99966     2.78146    0.00882     3.78994
      C    5    0.17020      0.99963     1.81144    0.01874     2.82980
      N    6   -0.07166      0.99966     2.56002    0.01198     3.57166
      O    7   -0.16452      0.99985     3.15678    0.00790     4.16452
      C    8   -0.26594      0.99952     2.25672    0.00970     3.26594
      S    9    0.09311      4.99964     2.89068    0.01658     7.90689
      C   10   -0.26033      0.99954     2.24959    0.01120     3.26033
      C   11   -0.01877      0.99958     2.00516    0.01403     3.01877
      C   12   -0.20030      0.99962     2.19081    0.00987     3.20030
      C   13   -0.29981      0.99966     2.29354    0.00662     3.29981
      N   14   -0.42305      0.99977     2.91272    0.01056     3.92305
      H   15    0.10296      0.00000     0.39580    0.00124     0.39704
      H   16    0.10076      0.00000     0.39761    0.00163     0.39924
      H   17    0.10325      0.00000     0.39540    0.00135     0.39675
      H   18    0.11397      0.00000     0.38396    0.00207     0.38603
      H   19    0.10857      0.00000     0.39035    0.00107     0.39143
      H   20    0.11633      0.00000     0.38250    0.00117     0.38367
      H   21    0.11149      0.00000     0.38684    0.00168     0.38851
      H   22    0.11764      0.00000     0.38033    0.00203     0.38236
      H   23    0.11136      0.00000     0.38746    0.00119     0.38864
      H   24    0.09034      0.00000     0.40764    0.00203     0.40966
      H   25    0.09610      0.00000     0.40225    0.00164     0.40390
      H   26    0.09666      0.00000     0.40200    0.00134     0.40334
      H   27    0.09603      0.00000     0.40252    0.00146     0.40397
      H   28    0.09873      0.00000     0.40035    0.00092     0.40127
      H   29    0.10672      0.00000     0.39101    0.00227     0.39328
      H   30    0.17606      0.00000     0.32173    0.00221     0.32394
      H   31    0.17344      0.00000     0.32454    0.00202     0.32656
 =======================================================================
   * Total *   -0.00000     17.99500    39.81872    0.18628    58.00000

 Normal termination of Gaussian 16 at Thu Dec 10 11:00:55 2020.
