 Gaussian 16, Revision A.03,

 -----------------------------------------------------------
 # opt freq B3LYP/6-31G(d) empiricaldispersion=gd3bj scf=xqc
 -----------------------------------------------------------

 ------------------------------
 CID_130481153_JID_411_neutraal
 ------------------------------
 Symbolic Z-matrix:
 Charge =  0 Multiplicity = 1

 SCF Done:  E(RB3LYP) =  -768.093684304     A.U. after   14 cycles
 SCF Done:  E(RB3LYP) =  -768.095335030     A.U. after   12 cycles
 SCF Done:  E(RB3LYP) =  -768.095850165     A.U. after   13 cycles
 SCF Done:  E(RB3LYP) =  -768.096082716     A.U. after   12 cycles
 SCF Done:  E(RB3LYP) =  -768.096235705     A.U. after   11 cycles
 SCF Done:  E(RB3LYP) =  -768.096265588     A.U. after   12 cycles
 SCF Done:  E(RB3LYP) =  -768.096280643     A.U. after   10 cycles
 SCF Done:  E(RB3LYP) =  -768.096284436     A.U. after    8 cycles
 SCF Done:  E(RB3LYP) =  -768.096285347     A.U. after    9 cycles
 SCF Done:  E(RB3LYP) =  -768.096285575     A.U. after    8 cycles
 Optimization completed.
    -- Stationary point found.
 Normal termination of Gaussian 16 at Tue Dec  8 10:34:16 2020.

 --------------------------------------------------------------------
 #N Geom=AllCheck Guess=TCheck SCRF=Check GenChk RB3LYP/6-31G(d) Freq
 --------------------------------------------------------------------

 Structure from the checkpoint file:  "JID_411.chk"
 ------------------------------
 CID_130481153_JID_411_neutraal
 ------------------------------
 Charge =  0 Multiplicity = 1

 SCF Done:  E(RB3LYP) =  -768.096285575     A.U. after    1 cycles

  Exact polarizability: 107.956   6.319 100.087  -4.202  -4.284 113.029
 Approx polarizability: 135.017  12.538 141.274 -10.126 -14.893 193.596

                      1                      2                      3
                      A                      A                      A
 Frequencies --     34.2299                42.9736                71.3847
 Red. masses --      5.9805                 2.7496                 3.4383
 Frc consts  --      0.0041                 0.0030                 0.0103
 IR Inten    --     10.0317                 0.9229                 1.9402

                      4                      5                      6
                      A                      A                      A
 Frequencies --    102.4763               145.5735               180.0557
 Red. masses --      2.4816                 3.1451                 2.7315
 Frc consts  --      0.0154                 0.0393                 0.0522
 IR Inten    --      1.1417                 2.2524                 0.0515

                      7                      8                      9
                      A                      A                      A
 Frequencies --    232.8352               236.3934               257.9770
 Red. masses --      1.1220                 1.1522                 1.1604
 Frc consts  --      0.0358                 0.0379                 0.0455
 IR Inten    --      0.0491                 0.0591                 0.0877

                     10                     11                     12
                      A                      A                      A
 Frequencies --    292.9523               330.3114               344.9851
 Red. masses --      2.0431                 1.2110                 2.4570
 Frc consts  --      0.1033                 0.0778                 0.1723
 IR Inten    --      0.2163               207.6106                 0.1503

                     13                     14                     15
                      A                      A                      A
 Frequencies --    350.9163               399.9055               420.4235
 Red. masses --      2.4924                 2.8780                 2.1982
 Frc consts  --      0.1808                 0.2712                 0.2289
 IR Inten    --      0.7958                 1.8216                 0.4063

                     16                     17                     18
                      A                      A                      A
 Frequencies --    453.1836               459.6477               472.6408
 Red. masses --      2.4962                 1.9435                 2.9740
 Frc consts  --      0.3021                 0.2419                 0.3914
 IR Inten    --      0.6526                 0.2373                 2.2201

                     19                     20                     21
                      A                      A                      A
 Frequencies --    623.5497               648.9983               762.8621
 Red. masses --      2.2717                 1.4823                 3.9037
 Frc consts  --      0.5204                 0.3678                 1.3385
 IR Inten    --      6.2587                13.1724                12.8262

                     22                     23                     24
                      A                      A                      A
 Frequencies --    817.9089               838.8377               895.0827
 Red. masses --      2.4254                 2.1748                 1.4858
 Frc consts  --      0.9560                 0.9016                 0.7013
 IR Inten    --      0.2604                 1.9903                 0.4548

                     25                     26                     27
                      A                      A                      A
 Frequencies --    927.9674               943.9919               956.0175
 Red. masses --      1.6049                 1.1887                 1.8105
 Frc consts  --      0.8142                 0.6241                 0.9749
 IR Inten    --      0.6424                 1.0064                 4.7474

                     28                     29                     30
                      A                      A                      A
 Frequencies --    979.2013               987.8530              1009.2336
 Red. masses --      1.5665                 1.6754                 1.8711
 Frc consts  --      0.8849                 0.9633                 1.1229
 IR Inten    --      1.4842                 5.8625                 9.8002

                     31                     32                     33
                      A                      A                      A
 Frequencies --   1052.6573              1085.9937              1141.6882
 Red. masses --      1.4210                 2.3866                 1.5714
 Frc consts  --      0.9277                 1.6584                 1.2068
 IR Inten    --      1.3920                 6.8066                11.9140

                     34                     35                     36
                      A                      A                      A
 Frequencies --   1156.3651              1196.4304              1208.4193
 Red. masses --      2.1168                 1.9291                 1.7583
 Frc consts  --      1.6677                 1.6270                 1.5128
 IR Inten    --      3.5119                13.3956                 3.7208

                     37                     38                     39
                      A                      A                      A
 Frequencies --   1227.4024              1305.2815              1317.0636
 Red. masses --      1.6037                 1.3730                 1.3259
 Frc consts  --      1.4235                 1.3783                 1.3551
 IR Inten    --     10.4281                 1.5906                 4.4735

                     40                     41                     42
                      A                      A                      A
 Frequencies --   1337.4805              1342.0486              1372.6864
 Red. masses --      1.2823                 2.5150                 1.4160
 Frc consts  --      1.3515                 2.6688                 1.5720
 IR Inten    --      5.4393                51.9675                10.4026

                     43                     44                     45
                      A                      A                      A
 Frequencies --   1382.8726              1405.6414              1420.7131
 Red. masses --      1.4183                 1.3273                 1.5528
 Frc consts  --      1.5980                 1.5451                 1.8466
 IR Inten    --      5.2888                 4.2249                15.1795

                     46                     47                     48
                      A                      A                      A
 Frequencies --   1430.9241              1439.0755              1441.7735
 Red. masses --      1.2890                 2.0736                 1.2685
 Frc consts  --      1.5550                 2.5302                 1.5536
 IR Inten    --      0.2157               122.0218                 5.7701

                     49                     50                     51
                      A                      A                      A
 Frequencies --   1450.8235              1507.6917              1511.3060
 Red. masses --      1.2413                 1.0916                 1.1162
 Frc consts  --      1.5394                 1.4620                 1.5021
 IR Inten    --     10.1113                 1.5610                 4.8084

                     52                     53                     54
                      A                      A                      A
 Frequencies --   1519.3810              1524.7448              1530.6739
 Red. masses --      1.0532                 1.0587                 1.0598
 Frc consts  --      1.4325                 1.4501                 1.4630
 IR Inten    --      1.1010                 4.4565                 1.7818

                     55                     56                     57
                      A                      A                      A
 Frequencies --   1533.4072              1535.9696              1542.3868
 Red. masses --      1.0471                 1.0555                 1.0473
 Frc consts  --      1.4506                 1.4671                 1.4680
 IR Inten    --      8.0933                 2.9032                11.8933

                     58                     59                     60
                      A                      A                      A
 Frequencies --   1664.0528              3000.9335              3020.6143
 Red. masses --      1.2691                 1.0657                 1.0678
 Frc consts  --      2.0705                 5.6545                 5.7403
 IR Inten    --    166.1196                24.4674                34.7146

                     61                     62                     63
                      A                      A                      A
 Frequencies --   3023.6811              3036.6429              3041.6145
 Red. masses --      1.0814                 1.0356                 1.0410
 Frc consts  --      5.8252                 5.6265                 5.6742
 IR Inten    --      6.1997                33.6698                34.2112

                     64                     65                     66
                      A                      A                      A
 Frequencies --   3045.2839              3057.1082              3078.6274
 Red. masses --      1.0375                 1.0929                 1.0848
 Frc consts  --      5.6687                 6.0178                 6.0580
 IR Inten    --     11.2162                25.0176                16.0657

                     67                     68                     69
                      A                      A                      A
 Frequencies --   3100.5702              3100.9409              3106.7090
 Red. masses --      1.0962                 1.1013                 1.1023
 Frc consts  --      6.2093                 6.2396                 6.2684
 IR Inten    --      1.6966                25.1380                14.5774

                     70                     71                     72
                      A                      A                      A
 Frequencies --   3108.4336              3111.4948              3120.2396
 Red. masses --      1.0980                 1.1015                 1.1004
 Frc consts  --      6.2509                 6.2830                 6.3121
 IR Inten    --     46.0007                68.7001                51.0213

                     73                     74                     75
                      A                      A                      A
 Frequencies --   3125.1938              3566.6377              3692.9755
 Red. masses --      1.1001                 1.0445                 1.1052
 Frc consts  --      6.3303                 7.8287                 8.8808
 IR Inten    --     29.9643                43.3036                30.0590

 - Thermochemistry -
 -------------------
 Temperature   298.150 Kelvin.  Pressure   1.00000 Atm.
 Atom     1 has atomic number  6 and mass  12.00000

 Molecular mass:   159.10817 amu.
 Principal axes and moments of inertia in atomic units:
                           1         2         3
     Eigenvalues --  1243.738373015.853823220.31179
           X            0.99957  -0.02351   0.01759
           Y            0.02219   0.99717   0.07177
           Z           -0.01922  -0.07135   0.99727
 This molecule is an asymmetric top.
 Rotational symmetry number  1.
 Warning -- assumption of classical behavior for rotation
           may cause significant error
 Rotational temperatures (Kelvin)      0.06964     0.02872     0.02690
 Rotational constants (GHZ):           1.45106     0.59842     0.56042
 Zero-point vibrational energy     640857.6 (Joules/Mol)
                                  153.16864 (Kcal/Mol)
 Warning -- explicit consideration of  18 degrees of freedom as
           vibrations may cause significant error
 Vibrational temperatures:     49.25    61.83   102.71   147.44   209.45
          (Kelvin)            259.06   335.00   340.12   371.17   421.49
                              475.24   496.36   504.89   575.37   604.90
                              652.03   661.33   680.02   897.15   933.76
                             1097.59  1176.79  1206.90  1287.82  1335.14
                             1358.19  1375.50  1408.85  1421.30  1452.06
                             1514.54  1562.50  1642.63  1663.75  1721.40
                             1738.65  1765.96  1878.01  1894.96  1924.34
                             1930.91  1974.99  1989.65  2022.40  2044.09
                             2058.78  2070.51  2074.39  2087.41  2169.23
                             2174.43  2186.05  2193.77  2202.30  2206.23
                             2209.92  2219.15  2394.20  4317.67  4345.99
                             4350.40  4369.05  4376.20  4381.48  4398.50
                             4429.46  4461.03  4461.56  4469.86  4472.34
                             4476.75  4489.33  4496.46  5131.60  5313.37

 Zero-point correction=                           0.244090 (Hartree/Particle)
 Thermal correction to Energy=                    0.256898
 Thermal correction to Enthalpy=                  0.257843
 Thermal correction to Gibbs Free Energy=         0.204311
 Sum of electronic and zero-point Energies=           -767.852196
 Sum of electronic and thermal Energies=              -767.839387
 Sum of electronic and thermal Enthalpies=            -767.838443
 Sum of electronic and thermal Free Energies=         -767.891975

                     E (Thermal)             CV                S
                      KCal/Mol        Cal/Mol-Kelvin    Cal/Mol-Kelvin
 Total                  161.206             46.762            112.667
 Electronic               0.000              0.000              0.000
 Translational            0.889              2.981             41.102
 Rotational               0.889              2.981             30.869
 Vibrational            159.429             40.800             40.695
 Vibration     1          0.594              1.983              5.568
 Vibration     2          0.595              1.980              5.117
 Vibration     3          0.598              1.968              4.115
 Vibration     4          0.605              1.947              3.407
 Vibration     5          0.617              1.907              2.729
 Vibration     6          0.629              1.867              2.328
 Vibration     7          0.654              1.791              1.857
 Vibration     8          0.655              1.785              1.830
 Vibration     9          0.667              1.749              1.675
 Vibration    10          0.688              1.687              1.457
 Vibration    11          0.713              1.615              1.259
 Vibration    12          0.723              1.585              1.189
 Vibration    13          0.728              1.573              1.162
 Vibration    14          0.766              1.470              0.963
 Vibration    15          0.783              1.426              0.891
 Vibration    16          0.812              1.354              0.786
 Vibration    17          0.818              1.340              0.767
 Vibration    18          0.830              1.311              0.730

                           ! Non-Optimized Parameters !
 Normal termination of Gaussian 16 at Tue Dec  8 10:41:21 2020.

 ----------------------------------------------------------------------
 # B3LYP/6-311++G(d,p) empiricaldispersion=gd3bj scf=xqc pop=npa geom=c
 heck
 ----------------------------------------------------------------------

 --------------------------------------
 CID_130481153_JID_411_Energie_neutraal
 --------------------------------------
 Structure from the checkpoint file:  "JID_411.chk"
 Charge =  0 Multiplicity = 1

 SCF Done:  E(RB3LYP) =  -768.233827552     A.U. after   15 cycles
 Normal termination of Gaussian 16 at Tue Dec  8 10:46:01 2020.

 ----------------------------------------------------------------------
 # B3LYP/6-311++G(d,p) empiricaldispersion=gd3bj scf=xqc pop=npa geom=c
 heck
 ----------------------------------------------------------------------

 ------------------------------------
 CID_130481153_JID_411_Energie_kation
 ------------------------------------
 Structure from the checkpoint file:  "JID_411.chk"
 Charge =  1 Multiplicity = 2

 SCF Done:  E(UB3LYP) =  -767.934269577     A.U. after   20 cycles
 Normal termination of Gaussian 16 at Tue Dec  8 10:54:31 2020.
 Gaussian 16:  ES64L-G16RevA.03 25-Dec-2016

 ----------------------------------------------------------------------
 # B3LYP/6-311++G(d,p) empiricaldispersion=gd3bj scf=xqc pop=npa geom=c
 heck
 ----------------------------------------------------------------------

 -----------------------------------
 CID_130481153_JID_411_Energie_anion
 -----------------------------------
 Structure from the checkpoint file:  "JID_411.chk"
 Charge = -1 Multiplicity = 2

                         Standard orientation:
 ---------------------------------------------------------------------
 Center     Atomic      Atomic             Coordinates (Angstroms)
 Number     Number       Type             X           Y           Z
 ---------------------------------------------------------------------
      1          6           0        2.398263   -0.690571    1.418912
      2          6           0        2.404004   -0.249754   -0.050272
      3          6           0        3.097548   -1.300551   -0.926748
      4          6           0        0.983042    0.014868   -0.578151
      5          6           0        0.158683    1.063820    0.185563
      6          6           0        0.829180    2.441435    0.200453
      7          6           0       -1.258947    1.181613   -0.416268
      8          6           0       -2.040758   -0.113776   -0.341663
      9         16           0       -2.481761   -0.818541    1.100647
     10          7           0       -2.336004   -0.669434   -1.531355
     11          1           0        1.771736   -1.581272    1.553694
     12          1           0        2.009189    0.089601    2.081214
     13          1           0        3.411523   -0.937639    1.756037
     14          1           0        2.983933    0.680785   -0.127110
     15          1           0        2.567171   -2.260188   -0.875995
     16          1           0        3.125327   -0.989362   -1.977959
     17          1           0        4.129078   -1.472729   -0.598681
     18          1           0        1.051668    0.323517   -1.633538
     19          1           0        0.436399   -0.938152   -0.568778
     20          1           0        0.023539    0.723620    1.218120
     21          1           0        1.008584    2.805165   -0.819819
     22          1           0        0.202623    3.178851    0.714973
     23          1           0        1.794267    2.410069    0.715504
     24          1           0       -1.819481    1.940150    0.139482
     25          1           0       -1.184231    1.527641   -1.457895
     26          1           0       -2.040921   -0.251773   -2.403039
     27          1           0       -2.836285   -1.548094   -1.558038
 ---------------------------------------------------------------------

 SCF Done:  E(UB3LYP) =  -768.221335096     A.U. after   33 cycles
 SCF Done:  E(UB3LYP) =  -768.225675789     a.u. after   15 cycles

 The electronic state is 2-A.
 Alpha  occ. eigenvalues --  -88.67437 -14.23060 -10.13723 -10.07450 -10.06910
 Alpha  occ. eigenvalues --  -10.06601 -10.06202 -10.06142 -10.05672 -10.05487
 Alpha  occ. eigenvalues --   -7.76228  -5.72579  -5.72129  -5.71753  -0.83170
 Alpha  occ. eigenvalues --   -0.72378  -0.68582  -0.63310  -0.58896  -0.57924
 Alpha  occ. eigenvalues --   -0.57567  -0.49483  -0.46623  -0.44302  -0.42198
 Alpha  occ. eigenvalues --   -0.38229  -0.35865  -0.34822  -0.33373  -0.31430
 Alpha  occ. eigenvalues --   -0.31218  -0.29624  -0.29060  -0.27346  -0.26168
 Alpha  occ. eigenvalues --   -0.25003  -0.24989  -0.23944  -0.23279  -0.21610
 Alpha  occ. eigenvalues --   -0.21189  -0.20713  -0.11672  -0.09642   0.04497
 Alpha virt. eigenvalues --    0.06490   0.07386   0.07970   0.08516   0.09644
 Alpha virt. eigenvalues --    0.09943   0.10500   0.11271   0.11559   0.12405
 Alpha virt. eigenvalues --    0.12755   0.13126   0.13925   0.14312   0.14720

  Beta  occ. eigenvalues --  -88.67433 -14.22953 -10.13535 -10.07444 -10.06905
  Beta  occ. eigenvalues --  -10.06583 -10.06196 -10.06125 -10.05650 -10.05467
  Beta  occ. eigenvalues --   -7.76224  -5.72582  -5.72117  -5.71748  -0.82928
  Beta  occ. eigenvalues --   -0.72346  -0.68523  -0.63108  -0.58872  -0.57869
  Beta  occ. eigenvalues --   -0.57504  -0.49379  -0.46485  -0.44201  -0.42083
  Beta  occ. eigenvalues --   -0.38189  -0.35799  -0.34709  -0.33329  -0.31359
  Beta  occ. eigenvalues --   -0.31081  -0.29569  -0.29042  -0.27293  -0.26057
  Beta  occ. eigenvalues --   -0.24944  -0.24823  -0.23757  -0.23188  -0.21554
  Beta  occ. eigenvalues --   -0.21148  -0.20635  -0.11441  -0.09617
  Beta virt. eigenvalues --    0.06587   0.07826   0.08317   0.08500   0.08837
  Beta virt. eigenvalues --    0.09927   0.10619   0.10939   0.11452   0.11881
  Beta virt. eigenvalues --    0.12769   0.12897   0.13519   0.14149   0.14349

 Mulliken charges and spin densities:
               1          2
     1  C   -0.569263  -0.123724
     2  C   -0.604771   0.957773
     3  C    0.196665  -0.821314
     4  C    0.344659  -1.143381
     5  C   -1.237096   2.163514
     6  C    0.366643  -1.069458
     7  C    2.390797  -3.052310
     8  C   -0.337988   0.682175
     9  S   -0.681925   0.028066
    10  N   -0.144356  -0.032574
    11  H    0.099915   0.047512
    12  H    0.108325   0.036188
    13  H    0.066042   0.062120
    14  H    0.102576   0.037750
    15  H    0.065360   0.066619
    16  H   -0.255098   0.394214
    17  H   -0.058422   0.189633
    18  H   -0.032892   0.187271
    19  H    0.339207  -0.168885
    20  H    0.054681   0.042108
    21  H   -0.206352   0.369246
    22  H   -0.056607   0.195091
    23  H    0.048053   0.074242
    24  H    0.066358   0.105736
    25  H   -0.403496   0.553554
    26  H   -0.501054   0.789299
    27  H   -0.159959   0.429533
 Sum of Mulliken charges =  -1.00000   1.00000

 Dipole moment (field-independent basis, Debye):
    X=              4.7650    Y=             -0.3132    Z=              4.7098  Tot=              6.7071
 Quadrupole moment (field-independent basis, Debye-Ang):
   XX=           -125.4859   YY=           -102.8297   ZZ=           -118.7460
   XY=             -1.7805   XZ=             -0.5262   YZ=              3.8317

 Summary of Natural Population Analysis:

                                       Natural Population
                Natural  -----------------------------------------------
    Atom  No    Charge         Core      Valence    Rydberg      Total
 -----------------------------------------------------------------------
      C    1   -0.28573      0.99965     2.28126    0.00482     3.28573
      C    2   -0.11374      0.99962     2.10577    0.00836     3.11374
      C    3   -0.28211      0.99965     2.27638    0.00608     3.28211
      C    4   -0.19036      0.99960     2.17987    0.01090     3.19036
      C    5   -0.11144      0.99959     2.10218    0.00967     3.11144
      C    6   -0.28414      0.99965     2.27891    0.00558     3.28414
      C    7   -0.21850      0.99954     2.20633    0.01263     3.21850
      C    8    0.09456      0.99964     1.88374    0.02206     2.90544
      S    9   -0.13272      4.99951     3.12036    0.01285     8.13272
      N   10   -0.36553      0.99965     2.85281    0.01306     3.86553
      H   11    0.09925      0.00000     0.39997    0.00078     0.40075
      H   12    0.09955      0.00000     0.39973    0.00072     0.40045
      H   13    0.09437      0.00000     0.40487    0.00076     0.40563
      H   14    0.09053      0.00000     0.40761    0.00186     0.40947
      H   15    0.09570      0.00000     0.40348    0.00081     0.40430
      H   16    0.10138      0.00000     0.39773    0.00089     0.39862
      H   17    0.09454      0.00000     0.40472    0.00075     0.40546
      H   18    0.09918      0.00000     0.39911    0.00171     0.40082
      H   19    0.10196      0.00000     0.39651    0.00154     0.39804
      H   20    0.10388      0.00000     0.39405    0.00208     0.39612
      H   21    0.09919      0.00000     0.39976    0.00104     0.40081
      H   22    0.09886      0.00000     0.40037    0.00077     0.40114
      H   23    0.09629      0.00000     0.40289    0.00082     0.40371
      H   24    0.11441      0.00000     0.38443    0.00116     0.38559
      H   25    0.10186      0.00000     0.39479    0.00335     0.39814
      H   26    0.20179      0.00000     0.28208    0.01613     0.29821
      H   27    0.19696      0.00000     0.30060    0.00244     0.30304
 =======================================================================
   * Total *    0.00000     13.99609    29.86030    0.14360    44.00000

 Normal termination of Gaussian 16 at Tue Dec  8 12:17:31 2020.
