 Gaussian 16, Revision A.03,

 -----------------------------------------------------------
 # opt freq B3LYP/6-31G(d) empiricaldispersion=gd3bj scf=xqc
 -----------------------------------------------------------

 -------------------------------
 CID_115550945_JID_5084_neutraal
 -------------------------------
 Symbolic Z-matrix:
 Charge =  0 Multiplicity = 1

 SCF Done:  E(RB3LYP) =  -993.293235070     A.U. after   15 cycles
 SCF Done:  E(RB3LYP) =  -993.298821732     A.U. after   12 cycles
 SCF Done:  E(RB3LYP) =  -993.299507528     A.U. after   13 cycles
 SCF Done:  E(RB3LYP) =  -993.301541509     A.U. after   12 cycles
 SCF Done:  E(RB3LYP) =  -993.302620535     A.U. after   13 cycles
 SCF Done:  E(RB3LYP) =  -993.303423599     A.U. after   12 cycles
 SCF Done:  E(RB3LYP) =  -993.304104000     A.U. after   12 cycles
 SCF Done:  E(RB3LYP) =  -993.304587638     A.U. after   12 cycles
 SCF Done:  E(RB3LYP) =  -993.304864935     A.U. after   12 cycles
 SCF Done:  E(RB3LYP) =  -993.304962253     A.U. after   11 cycles
 SCF Done:  E(RB3LYP) =  -993.305029027     A.U. after    9 cycles
 SCF Done:  E(RB3LYP) =  -993.305028997     A.U. after    9 cycles
 SCF Done:  E(RB3LYP) =  -993.305028970     A.U. after    8 cycles
 SCF Done:  E(RB3LYP) =  -993.305028962     A.U. after    8 cycles
 Optimization completed.
    -- Stationary point found.
 Normal termination of Gaussian 16 at Thu Dec 10 14:50:57 2020.

 --------------------------------------------------------------------
 #N Geom=AllCheck Guess=TCheck SCRF=Check GenChk RB3LYP/6-31G(d) Freq
 --------------------------------------------------------------------

 Structure from the checkpoint file:  "JID_5084.chk"
 -------------------------------
 CID_115550945_JID_5084_neutraal
 -------------------------------
 Charge =  0 Multiplicity = 1

 SCF Done:  E(RB3LYP) =  -993.305028962     A.U. after    1 cycles

  Exact polarizability: 118.886  -2.645 161.933   8.018   2.094 134.374
 Approx polarizability: 163.286  -6.741 292.278  11.017   9.836 238.551

                      1                      2                      3
                      A                      A                      A
 Frequencies --     11.1746                43.4723                79.9675
 Red. masses --      6.3220                 5.2454                 4.4070
 Frc consts  --      0.0005                 0.0058                 0.0166
 IR Inten    --      0.2757                 0.2533                 1.1428

                      4                      5                      6
                      A                      A                      A
 Frequencies --    116.5391               123.9356               180.4858
 Red. masses --      4.5537                 4.6280                 1.7153
 Frc consts  --      0.0364                 0.0419                 0.0329
 IR Inten    --      1.2597                 1.3800                 0.7282

                      7                      8                      9
                      A                      A                      A
 Frequencies --    187.4243               236.2107               272.9905
 Red. masses --      1.6190                 3.3246                 2.7467
 Frc consts  --      0.0335                 0.1093                 0.1206
 IR Inten    --      0.9509                 0.4445                 1.3335

                     10                     11                     12
                      A                      A                      A
 Frequencies --    296.6330               314.4667               329.7675
 Red. masses --      2.9198                 3.1111                 3.4054
 Frc consts  --      0.1514                 0.1813                 0.2182
 IR Inten    --     15.2928                 1.7791                 9.2446

                     13                     14                     15
                      A                      A                      A
 Frequencies --    360.7157               410.5452               491.9469
 Red. masses --      1.2594                 4.9953                 5.0043
 Frc consts  --      0.0965                 0.4961                 0.7136
 IR Inten    --     27.8760                 2.3313                 2.3204

                     16                     17                     18
                      A                      A                      A
 Frequencies --    496.3847               501.2054               545.0477
 Red. masses --      4.0212                 5.8014                 3.5846
 Frc consts  --      0.5838                 0.8586                 0.6274
 IR Inten    --      1.6329                 4.6782                 6.9922

                     19                     20                     21
                      A                      A                      A
 Frequencies --    562.9925               566.2444               575.8259
 Red. masses --      4.9591                 3.7968                 3.6002
 Frc consts  --      0.9261                 0.7173                 0.7033
 IR Inten    --      4.3676                 5.2674                 3.5496

                     22                     23                     24
                      A                      A                      A
 Frequencies --    621.4317               674.2478               703.5257
 Red. masses --      5.9089                 4.6397                 1.7850
 Frc consts  --      1.3445                 1.2427                 0.5205
 IR Inten    --      1.8574                25.4196                44.7848

                     25                     26                     27
                      A                      A                      A
 Frequencies --    707.0915               735.3011               753.0755
 Red. masses --      1.3469                 2.0136                 6.2309
 Frc consts  --      0.3968                 0.6414                 2.0820
 IR Inten    --    153.3351                48.3118                 1.6374

                     28                     29                     30
                      A                      A                      A
 Frequencies --    778.8912               784.5919               827.0866
 Red. masses --      1.4558                 3.8866                 3.7346
 Frc consts  --      0.5203                 1.4096                 1.5052
 IR Inten    --     79.3619                 9.0522                18.5715

                     31                     32                     33
                      A                      A                      A
 Frequencies --    846.5043               862.5033               869.1640
 Red. masses --      1.5374                 1.4144                 3.8415
 Frc consts  --      0.6491                 0.6200                 1.7099
 IR Inten    --     18.2025                 3.2672                10.5584

                     34                     35                     36
                      A                      A                      A
 Frequencies --    912.7990               945.2848               971.5644
 Red. masses --      1.3452                 1.2379                 2.3915
 Frc consts  --      0.6604                 0.6517                 1.3300
 IR Inten    --      3.2233                 0.2383                 9.8619

                     37                     38                     39
                      A                      A                      A
 Frequencies --    986.6283              1009.2269              1047.6244
 Red. masses --      2.5710                 3.2974                 1.9837
 Frc consts  --      1.4745                 1.9788                 1.2827
 IR Inten    --     40.3956                73.1356                14.4633

                     40                     41                     42
                      A                      A                      A
 Frequencies --   1074.3100              1082.8931              1113.9924
 Red. masses --      1.4958                 1.5275                 1.6827
 Frc consts  --      1.0171                 1.0553                 1.2303
 IR Inten    --      4.0891                 3.5256                16.8429

                     43                     44                     45
                      A                      A                      A
 Frequencies --   1115.2911              1159.3370              1180.2758
 Red. masses --      1.2789                 1.4114                 3.3168
 Frc consts  --      0.9372                 1.1177                 2.7223
 IR Inten    --      3.4584                 2.7640                12.0317

                     46                     47                     48
                      A                      A                      A
 Frequencies --   1201.4683              1223.1309              1264.6751
 Red. masses --      1.1996                 3.4173                 1.3731
 Frc consts  --      1.0203                 3.0121                 1.2940
 IR Inten    --      1.5602               118.6599                22.6641

                     49                     50                     51
                      A                      A                      A
 Frequencies --   1299.5791              1311.1211              1345.8770
 Red. masses --      1.7110                 1.2448                 3.3133
 Frc consts  --      1.7025                 1.2608                 3.5361
 IR Inten    --      1.5975                13.5152                42.1428

                     52                     53                     54
                      A                      A                      A
 Frequencies --   1376.0647              1403.5154              1429.6883
 Red. masses --      4.0337                 2.2200                 1.3804
 Frc consts  --      4.5002                 2.5766                 1.6624
 IR Inten    --      6.6591                 6.7861                13.3919

                     55                     56                     57
                      A                      A                      A
 Frequencies --   1437.8450              1491.3672              1507.4427
 Red. masses --      1.2716                 6.1551                 1.4977
 Frc consts  --      1.5489                 8.0660                 2.0052
 IR Inten    --      1.6791                 9.0234                14.3212

                     58                     59                     60
                      A                      A                      A
 Frequencies --   1516.9188              1530.1190              1537.4649
 Red. masses --      1.0953                 2.2585                 1.3820
 Frc consts  --      1.4849                 3.1154                 1.9248
 IR Inten    --      7.2718                11.2527                25.5474

                     61                     62                     63
                      A                      A                      A
 Frequencies --   1545.8155              1604.0959              1643.4578
 Red. masses --      1.4181                 5.0738                 2.4048
 Frc consts  --      1.9964                 7.6920                 3.8269
 IR Inten    --     47.9395                 1.3208                 3.8583

                     64                     65                     66
                      A                      A                      A
 Frequencies --   1659.9392              1678.7361              3042.7888
 Red. masses --      4.4018                 1.8126                 1.0417
 Frc consts  --      7.1461                 3.0096                 5.6824
 IR Inten    --      5.7256               112.9568                16.9584

                     67                     68                     69
                      A                      A                      A
 Frequencies --   3060.9993              3101.9153              3103.7576
 Red. masses --      1.0598                 1.0959                 1.1031
 Frc consts  --      5.8505                 6.2128                 6.2610
 IR Inten    --     62.6072                26.4441                18.4422

                     70                     71                     72
                      A                      A                      A
 Frequencies --   3132.1777              3175.3916              3185.6415
 Red. masses --      1.1028                 1.0861                 1.0898
 Frc consts  --      6.3746                 6.4524                 6.5164
 IR Inten    --     14.7382                 4.9660                21.7797

                     73                     74                     75
                      A                      A                      A
 Frequencies --   3203.3563              3221.9544              3240.7352
 Red. masses --      1.0964                 1.0890                 1.0952
 Frc consts  --      6.6284                 6.6607                 6.7767
 IR Inten    --     28.5402                 7.0074                 2.0110

                     76                     77                     78
                      A                      A                      A
 Frequencies --   3271.8043              3539.6709              3642.3829
 Red. masses --      1.0969                 1.0474                 1.0977
 Frc consts  --      6.9184                 7.7317                 8.5800
 IR Inten    --      1.3815                11.9773                13.1546

 - Thermochemistry -
 -------------------
 Temperature   298.150 Kelvin.  Pressure   1.00000 Atm.
 Atom     1 has atomic number  6 and mass  12.00000

 Molecular mass:   219.07179 amu.
 Principal axes and moments of inertia in atomic units:
                           1         2         3
     Eigenvalues --  2329.507983861.763614218.69521
           X            0.99979   0.01795   0.00937
           Y           -0.01769   0.99947  -0.02725
           Z           -0.00986   0.02708   0.99958
 This molecule is an asymmetric top.
 Rotational symmetry number  1.
 Warning -- assumption of classical behavior for rotation
           may cause significant error
 Rotational temperatures (Kelvin)      0.03718     0.02243     0.02053
 Rotational constants (GHZ):           0.77473     0.46734     0.42780
 Zero-point vibrational energy     594529.2 (Joules/Mol)
                                  142.09588 (Kcal/Mol)
 Warning -- explicit consideration of  21 degrees of freedom as
           vibrations may cause significant error
 Vibrational temperatures:     16.08    62.55   115.06   167.67   178.32
          (Kelvin)            259.68   269.66   339.85   392.77   426.79
                              452.45   474.46   518.99   590.68   707.80
                              714.19   721.12   784.20   810.02   814.70
                              828.49   894.10   970.09  1012.22  1017.35
                             1057.93  1083.51  1120.65  1128.85  1189.99
                             1217.93  1240.95  1250.53  1313.31  1360.05
                             1397.86  1419.54  1452.05  1507.30  1545.69
                             1558.04  1602.79  1604.66  1668.03  1698.15
                             1728.64  1759.81  1819.59  1869.80  1886.41
                             1936.42  1979.85  2019.35  2057.00  2068.74
                             2145.74  2168.87  2182.51  2201.50  2212.07
                             2224.08  2307.94  2364.57  2388.28  2415.33
                             4377.89  4404.10  4462.96  4465.61  4506.51
                             4568.68  4583.43  4608.92  4635.67  4662.70
                             4707.40  5092.80  5240.58

 Zero-point correction=                           0.226444 (Hartree/Particle)
 Thermal correction to Energy=                    0.240250
 Thermal correction to Enthalpy=                  0.241194
 Thermal correction to Gibbs Free Energy=         0.184425
 Sum of electronic and zero-point Energies=           -993.078585
 Sum of electronic and thermal Energies=              -993.064779
 Sum of electronic and thermal Enthalpies=            -993.063835
 Sum of electronic and thermal Free Energies=         -993.120604

                     E (Thermal)             CV                S
                      KCal/Mol        Cal/Mol-Kelvin    Cal/Mol-Kelvin
 Total                  150.759             53.784            119.481
 Electronic               0.000              0.000              0.000
 Translational            0.889              2.981             42.056
 Rotational               0.889              2.981             32.007
 Vibrational            148.982             47.822             45.419
 Vibration     1          0.593              1.987              7.790
 Vibration     2          0.595              1.980              5.094
 Vibration     3          0.600              1.963              3.892
 Vibration     4          0.608              1.936              3.157
 Vibration     5          0.610              1.929              3.038
 Vibration     6          0.629              1.866              2.323
 Vibration     7          0.632              1.857              2.253
 Vibration     8          0.655              1.785              1.831
 Vibration     9          0.676              1.723              1.577
 Vibration    10          0.690              1.680              1.436
 Vibration    11          0.702              1.646              1.339
 Vibration    12          0.713              1.616              1.261
 Vibration    13          0.735              1.553              1.119
 Vibration    14          0.775              1.447              0.925
 Vibration    15          0.848              1.268              0.679
 Vibration    16          0.852              1.258              0.667
 Vibration    17          0.857              1.247              0.655
 Vibration    18          0.900              1.151              0.555
 Vibration    19          0.919              1.111              0.518
 Vibration    20          0.922              1.104              0.512
 Vibration    21          0.932              1.084              0.493

 Optimization completed.
    -- Stationary point found.
 Normal termination of Gaussian 16 at Thu Dec 10 14:59:57 2020.

 ----------------------------------------------------------------------
 # B3LYP/6-311++G(d,p) empiricaldispersion=gd3bj scf=xqc pop=npa geom=c
 heck
 ----------------------------------------------------------------------

 ---------------------------------------
 CID_115550945_JID_5084_Energie_neutraal
 ---------------------------------------
 Structure from the checkpoint file:  "JID_5084.chk"
 Charge =  0 Multiplicity = 1

 SCF Done:  E(RB3LYP) =  -993.497807961     A.U. after   16 cycles
 Normal termination of Gaussian 16 at Thu Dec 10 15:05:14 2020.

 ----------------------------------------------------------------------
 # B3LYP/6-311++G(d,p) empiricaldispersion=gd3bj scf=xqc pop=npa geom=c
 heck
 ----------------------------------------------------------------------

 -------------------------------------
 CID_115550945_JID_5084_Energie_kation
 -------------------------------------
 Structure from the checkpoint file:  "JID_5084.chk"
 Charge =  1 Multiplicity = 2

 SCF Done:  E(UB3LYP) =  -993.222823619     A.U. after   33 cycles
 SCF Done:  E(UB3LYP) =  -993.222823619     a.u. after    1 cycles
 Normal termination of Gaussian 16 at Thu Dec 10 15:23:46 2020.
 Gaussian 16:  ES64L-G16RevA.03 25-Dec-2016

 ----------------------------------------------------------------------
 # B3LYP/6-311++G(d,p) empiricaldispersion=gd3bj scf=xqc pop=npa geom=c
 heck
 ----------------------------------------------------------------------

 ------------------------------------
 CID_115550945_JID_5084_Energie_anion
 ------------------------------------
 Structure from the checkpoint file:  "JID_5084.chk"
 Charge = -1 Multiplicity = 2

                         Standard orientation:
 ---------------------------------------------------------------------
 Center     Atomic      Atomic             Coordinates (Angstroms)
 Number     Number       Type             X           Y           Z
 ---------------------------------------------------------------------
      1          6           0        1.116042    2.587757   -0.475148
      2          6           0        1.520356    1.239577    0.064192
      3          6           0        1.222757    0.070688   -0.641269
      4          6           0        1.637266   -1.194425   -0.184979
      5          6           0        2.337667   -1.277438    1.024049
      6          6           0        2.615877   -0.121428    1.749189
      7          6           0        2.218245    1.126356    1.273562
      8          7           0        1.300640   -2.329562   -0.931467
      9          8           0        0.571628    0.088845   -1.867842
     10          6           0       -0.832566    0.433784   -1.867621
     11          6           0       -1.594774   -0.061732   -0.678338
     12          6           0       -1.807690   -1.355765   -0.278804
     13          6           0       -2.530583   -1.454069    0.945789
     14          6           0       -2.862247   -0.232239    1.466844
     15         16           0       -2.282285    1.058672    0.470136
     16          1           0        1.219753    2.623484   -1.564470
     17          1           0        0.071609    2.823727   -0.233381
     18          1           0        1.735908    3.378764   -0.042582
     19          1           0        2.652390   -2.250919    1.392181
     20          1           0        3.159478   -0.195756    2.686916
     21          1           0        2.454950    2.026638    1.833876
     22          1           0        1.129511   -2.104792   -1.904805
     23          1           0        1.954700   -3.096318   -0.830365
     24          1           0       -0.940124    1.520423   -1.960188
     25          1           0       -1.216514   -0.016583   -2.788001
     26          1           0       -1.414011   -2.207580   -0.820542
     27          1           0       -2.793299   -2.394159    1.418080
     28          1           0       -3.417385   -0.015909    2.369305
 ---------------------------------------------------------------------

 SCF Done:  E(UB3LYP) =  -993.483140365     A.U. after   33 cycles
 SCF Done:  E(UB3LYP) =  -993.483140365     a.u. after    1 cycles

 The electronic state is 2-A.
 Alpha  occ. eigenvalues --  -88.76401 -19.03213 -14.20250 -10.12445 -10.11206
 Alpha  occ. eigenvalues --  -10.10358 -10.08646 -10.08582 -10.07788 -10.06930
 Alpha  occ. eigenvalues --  -10.06863 -10.06748 -10.06192 -10.06143 -10.05854
 Alpha  occ. eigenvalues --   -7.85045  -5.81322  -5.80966  -5.80662  -0.94464
 Alpha  occ. eigenvalues --   -0.80582  -0.77083  -0.73861  -0.66670  -0.65565
 Alpha  occ. eigenvalues --   -0.62437  -0.61840  -0.58938  -0.56112  -0.49372
 Alpha  occ. eigenvalues --   -0.49170  -0.45520  -0.44065  -0.41143  -0.40822
 Alpha  occ. eigenvalues --   -0.39429  -0.37921  -0.35666  -0.35115  -0.34014
 Alpha  occ. eigenvalues --   -0.32753  -0.31848  -0.31193  -0.29010  -0.28868
 Alpha  occ. eigenvalues --   -0.28050  -0.27166  -0.26627  -0.26109  -0.25339
 Alpha  occ. eigenvalues --   -0.24065  -0.22662  -0.20361  -0.18002  -0.14581
 Alpha  occ. eigenvalues --   -0.13381  -0.12887  -0.10103   0.04823
 Alpha virt. eigenvalues --    0.06922   0.07115   0.07525   0.08052   0.08894
 Alpha virt. eigenvalues --    0.09139   0.09308   0.09697   0.10476   0.10766
 Alpha virt. eigenvalues --    0.11614   0.11661   0.12473   0.12895   0.13472

  Beta  occ. eigenvalues --  -88.76383 -19.03189 -14.20197 -10.12426 -10.11204
  Beta  occ. eigenvalues --  -10.10356 -10.08539 -10.08483 -10.07786 -10.06917
  Beta  occ. eigenvalues --  -10.06857 -10.06756 -10.06181 -10.06143 -10.05811
  Beta  occ. eigenvalues --   -7.85028  -5.81315  -5.80958  -5.80603  -0.94413
  Beta  occ. eigenvalues --   -0.80512  -0.76962  -0.73833  -0.66635  -0.65447
  Beta  occ. eigenvalues --   -0.62341  -0.61750  -0.58900  -0.56034  -0.49327
  Beta  occ. eigenvalues --   -0.49121  -0.45403  -0.43959  -0.41070  -0.40770
  Beta  occ. eigenvalues --   -0.39370  -0.37813  -0.35605  -0.35049  -0.33975
  Beta  occ. eigenvalues --   -0.32707  -0.31815  -0.31164  -0.28956  -0.28838
  Beta  occ. eigenvalues --   -0.28003  -0.27115  -0.26384  -0.26040  -0.25302
  Beta  occ. eigenvalues --   -0.23981  -0.22602  -0.20328  -0.17961  -0.14316
  Beta  occ. eigenvalues --   -0.13351  -0.12322  -0.10072
  Beta virt. eigenvalues --    0.06888   0.07595   0.07722   0.08061   0.08607
  Beta virt. eigenvalues --    0.09029   0.09634   0.09860   0.10020   0.10518
  Beta virt. eigenvalues --    0.10939   0.11972   0.12128   0.12667   0.13186

 Mulliken charges and spin densities:
               1          2
     1  C    1.096958  -1.690324
     2  C   -0.151505   1.094917
     3  C    0.194865  -0.313124
     4  C    0.357667  -0.530809
     5  C    0.077480  -0.377673
     6  C    0.184728  -0.456336
     7  C   -0.993855   0.513988
     8  N   -0.319574  -0.017784
     9  O   -0.150763   0.029382
    10  C    1.123377  -1.732032
    11  C   -0.778938   1.197410
    12  C    0.202571  -0.215840
    13  C   -0.142166  -0.320044
    14  C   -0.323250   0.063645
    15  S    0.077332  -0.017521
    16  H   -0.003054   0.192693
    17  H    0.031886   0.111693
    18  H    0.064225   0.075619
    19  H   -0.293740   0.435708
    20  H    0.089542   0.052349
    21  H    0.025154   0.100762
    22  H   -0.093763   0.384786
    23  H   -0.428710   0.694884
    24  H   -0.024433   0.154427
    25  H   -0.674298   0.886975
    26  H   -0.087168   0.275616
    27  H   -0.140265   0.276910
    28  H    0.079694   0.129721
 Sum of Mulliken charges =  -1.00000   1.00000

 Dipole moment (field-independent basis, Debye):
    X=             -0.8294    Y=              5.2107    Z=              4.4764  Tot=              6.9194
 Quadrupole moment (field-independent basis, Debye-Ang):
   XX=           -138.4183   YY=           -142.8263   ZZ=           -133.7133
   XY=              6.1272   XZ=             -0.4472   YZ=             -5.0084

 Summary of Natural Population Analysis:

                                       Natural Population
                Natural  -----------------------------------------------
    Atom  No    Charge         Core      Valence    Rydberg      Total
 -----------------------------------------------------------------------
      C    1   -0.29604      0.99963     2.29049    0.00592     3.29604
      C    2   -0.02846      0.99946     2.01913    0.00987     3.02846
      C    3    0.13354      0.99927     1.85136    0.01583     2.86646
      C    4    0.07703      0.99944     1.91100    0.01254     2.92297
      C    5   -0.12444      0.99952     2.11500    0.00992     3.12444
      C    6   -0.09758      0.99957     2.08902    0.00900     3.09758
      C    7   -0.12037      0.99952     2.11249    0.00835     3.12037
      N    8   -0.39452      0.99971     2.88341    0.01139     3.89452
      O    9   -0.29651      0.99987     3.28576    0.01088     4.29651
      C   10   -0.02181      0.99946     2.00763    0.01472     3.02181
      C   11   -0.11149      0.99949     2.09826    0.01374     3.11149
      C   12   -0.11151      0.99945     2.10043    0.01163     3.11151
      C   13   -0.12974      0.99953     2.11919    0.01101     3.12974
      C   14   -0.18109      0.99954     2.17119    0.01035     3.18109
      S   15    0.20583      4.99939     2.77461    0.02017     7.79417
      H   16    0.10722      0.00000     0.39168    0.00110     0.39278
      H   17    0.10479      0.00000     0.39382    0.00138     0.39521
      H   18    0.09998      0.00000     0.39925    0.00077     0.40002
      H   19    0.09953      0.00000     0.39906    0.00141     0.40047
      H   20    0.09625      0.00000     0.40298    0.00077     0.40375
      H   21    0.09460      0.00000     0.40419    0.00122     0.40540
      H   22    0.19436      0.00000     0.30132    0.00432     0.30564
      H   23    0.18687      0.00000     0.30764    0.00549     0.31313
      H   24    0.08586      0.00000     0.41252    0.00162     0.41414
      H   25    0.10281      0.00000     0.39404    0.00315     0.39719
      H   26    0.11640      0.00000     0.38167    0.00193     0.38360
      H   27    0.10415      0.00000     0.39500    0.00085     0.39585
      H   28    0.10433      0.00000     0.39488    0.00079     0.39567
 =======================================================================
   * Total *   -0.00000     18.99286    38.80701    0.20012    58.00000

 Normal termination of Gaussian 16 at Thu Dec 10 15:37:55 2020.
