 Gaussian 16, Revision A.03,

 -----------------------------------------------------------
 # opt freq B3LYP/6-31G(d) empiricaldispersion=gd3bj scf=xqc
 -----------------------------------------------------------

 ------------------------------
 CID_66255166_JID_4402_neutraal
 ------------------------------
 Symbolic Z-matrix:
 Charge =  0 Multiplicity = 1

 SCF Done:  E(RB3LYP) =  -653.085829071     A.U. after   14 cycles
 SCF Done:  E(RB3LYP) =  -653.091177790     A.U. after   12 cycles
 SCF Done:  E(RB3LYP) =  -653.089008498     A.U. after   12 cycles
 SCF Done:  E(RB3LYP) =  -653.087094553     A.U. after   13 cycles
 SCF Done:  E(RB3LYP) =  -653.086121802     A.U. after   12 cycles
 SCF Done:  E(RB3LYP) =  -653.091452601     A.U. after   10 cycles
 SCF Done:  E(RB3LYP) =  -653.093174758     A.U. after   12 cycles
 SCF Done:  E(RB3LYP) =  -653.093797794     A.U. after   12 cycles
 SCF Done:  E(RB3LYP) =  -653.094063460     A.U. after   12 cycles
 SCF Done:  E(RB3LYP) =  -653.094477868     A.U. after   11 cycles
 SCF Done:  E(RB3LYP) =  -653.094795538     A.U. after   10 cycles
 SCF Done:  E(RB3LYP) =  -653.094797049     A.U. after    8 cycles
 SCF Done:  E(RB3LYP) =  -653.094797529     A.U. after    8 cycles
 SCF Done:  E(RB3LYP) =  -653.094797719     A.U. after    7 cycles
 SCF Done:  E(RB3LYP) =  -653.094797826     A.U. after    7 cycles
 SCF Done:  E(RB3LYP) =  -653.094797855     A.U. after    6 cycles
 Optimization completed.
    -- Stationary point found.
 Normal termination of Gaussian 16 at Thu Dec 10 09:45:47 2020.

 --------------------------------------------------------------------
 #N Geom=AllCheck Guess=TCheck SCRF=Check GenChk RB3LYP/6-31G(d) Freq
 --------------------------------------------------------------------

 Structure from the checkpoint file:  "JID_4402.chk"
 ------------------------------
 CID_66255166_JID_4402_neutraal
 ------------------------------
 Charge =  0 Multiplicity = 1

 SCF Done:  E(RB3LYP) =  -653.094797855     A.U. after    1 cycles

  Exact polarizability: 143.416  -1.920 115.242   6.778   2.764 109.985
 Approx polarizability: 173.794   1.516 165.345  13.280  11.916 169.071

                      1                      2                      3
                      A                      A                      A
 Frequencies --     31.8597                43.8137                62.0289
 Red. masses --      3.3493                 3.9135                 2.8312
 Frc consts  --      0.0020                 0.0044                 0.0064
 IR Inten    --      0.7032                 1.0181                 1.3680

                      4                      5                      6
                      A                      A                      A
 Frequencies --     62.5382                91.1903               108.4139
 Red. masses --      2.0188                 2.4899                 2.1522
 Frc consts  --      0.0047                 0.0122                 0.0149
 IR Inten    --      1.6211                 0.3354                 0.1305

                      7                      8                      9
                      A                      A                      A
 Frequencies --    137.9320               164.1620               173.1581
 Red. masses --      2.4250                 1.4716                 3.4683
 Frc consts  --      0.0272                 0.0234                 0.0613
 IR Inten    --      0.5083                 0.2952                 2.6629

                     10                     11                     12
                      A                      A                      A
 Frequencies --    202.3405               233.9415               244.1984
 Red. masses --      3.0665                 1.4965                 2.9795
 Frc consts  --      0.0740                 0.0483                 0.1047
 IR Inten    --      0.9502                 1.9126                 1.5016

                     13                     14                     15
                      A                      A                      A
 Frequencies --    278.8015               304.8520               318.1039
 Red. masses --      2.4882                 1.6759                 1.7183
 Frc consts  --      0.1140                 0.0918                 0.1024
 IR Inten    --     12.5438                 0.8794                 3.5325

                     16                     17                     18
                      A                      A                      A
 Frequencies --    326.9187               359.2273               413.0945
 Red. masses --      2.0353                 2.9280                 2.7405
 Frc consts  --      0.1282                 0.2226                 0.2755
 IR Inten    --      0.5784                15.3703                 7.4878

                     19                     20                     21
                      A                      A                      A
 Frequencies --    434.6817               453.3435               522.1412
 Red. masses --      2.5631                 4.6169                 2.8623
 Frc consts  --      0.2853                 0.5591                 0.4598
 IR Inten    --      2.6483                 9.7351                 0.8197

                     22                     23                     24
                      A                      A                      A
 Frequencies --    627.3733               647.7464               684.2031
 Red. masses --      4.1140                 3.4024                 2.9253
 Frc consts  --      0.9540                 0.8411                 0.8068
 IR Inten    --      6.3783                16.2326                 6.9563

                     25                     26                     27
                      A                      A                      A
 Frequencies --    699.9315               725.1114               752.4656
 Red. masses --      2.8304                 2.2432                 6.3562
 Frc consts  --      0.8170                 0.6949                 2.1204
 IR Inten    --     43.0859                33.8402                 8.8484

                     28                     29                     30
                      A                      A                      A
 Frequencies --    781.8948               890.5810               918.7410
 Red. masses --      1.2294                 2.5392                 2.5247
 Frc consts  --      0.4428                 1.1866                 1.2556
 IR Inten    --      9.9430                 0.4183                 3.4422

                     31                     32                     33
                      A                      A                      A
 Frequencies --    920.9242               937.4517               964.9090
 Red. masses --      1.3913                 2.6582                 2.7223
 Frc consts  --      0.6952                 1.3764                 1.4933
 IR Inten    --      3.9823                15.3447                13.3766

                     34                     35                     36
                      A                      A                      A
 Frequencies --    986.7238              1025.9673              1053.2409
 Red. masses --      1.6670                 2.7358                 2.5699
 Frc consts  --      0.9563                 1.6967                 1.6797
 IR Inten    --      5.6490                28.1674                 7.5271

                     37                     38                     39
                      A                      A                      A
 Frequencies --   1068.0585              1078.4470              1096.5384
 Red. masses --      2.7878                 2.3240                 1.5976
 Frc consts  --      1.8737                 1.5925                 1.1318
 IR Inten    --     58.5310                 4.7872                 5.8301

                     40                     41                     42
                      A                      A                      A
 Frequencies --   1098.5924              1112.6112              1144.9787
 Red. masses --      1.7836                 4.7146                 1.2250
 Frc consts  --      1.2683                 3.4386                 0.9462
 IR Inten    --     10.4891                55.7166                 0.5703

                     43                     44                     45
                      A                      A                      A
 Frequencies --   1147.9254              1169.3096              1191.9487
 Red. masses --      1.8606                 2.2182                 1.3569
 Frc consts  --      1.4446                 1.7869                 1.1358
 IR Inten    --     24.2962                 6.0454                 2.3286

                     46                     47                     48
                      A                      A                      A
 Frequencies --   1198.3712              1202.3576              1244.4129
 Red. masses --      2.8942                 1.7119                 1.4169
 Frc consts  --      2.4488                 1.4582                 1.2928
 IR Inten    --     41.0574                92.5614                 6.7359

                     49                     50                     51
                      A                      A                      A
 Frequencies --   1280.3396              1287.8884              1291.0754
 Red. masses --      1.3046                 1.3018                 4.0184
 Frc consts  --      1.2600                 1.2722                 3.9464
 IR Inten    --      5.7579                 6.6574                55.8354

                     52                     53                     54
                      A                      A                      A
 Frequencies --   1297.6785              1321.5723              1326.5822
 Red. masses --      1.2441                 1.1850                 1.2073
 Frc consts  --      1.2343                 1.2194                 1.2518
 IR Inten    --     15.1858                 5.4275                 2.1653

                     55                     56                     57
                      A                      A                      A
 Frequencies --   1348.9984              1372.8080              1394.0237
 Red. masses --      1.3039                 1.3264                 1.3163
 Frc consts  --      1.3980                 1.4728                 1.5071
 IR Inten    --     10.3377                 3.4367                10.0287

                     58                     59                     60
                      A                      A                      A
 Frequencies --   1399.2628              1415.3294              1437.6522
 Red. masses --      1.3468                 1.3394                 1.7372
 Frc consts  --      1.5537                 1.5808                 2.1155
 IR Inten    --      7.9527                 4.5834                94.2807

                     61                     62                     63
                      A                      A                      A
 Frequencies --   1441.8077              1446.9075              1458.0239
 Red. masses --      1.2836                 1.2785                 1.6198
 Frc consts  --      1.5722                 1.5770                 2.0288
 IR Inten    --     12.3266                11.3430                50.6113

                     64                     65                     66
                      A                      A                      A
 Frequencies --   1508.4260              1510.2634              1517.8836
 Red. masses --      1.1046                 1.1408                 1.1638
 Frc consts  --      1.4808                 1.5331                 1.5798
 IR Inten    --      4.1841                19.9995                 8.6978

                     67                     68                     69
                      A                      A                      A
 Frequencies --   1527.8882              1530.3459              1533.7956
 Red. masses --      1.0525                 1.0785                 1.0751
 Frc consts  --      1.4476                 1.4882                 1.4902
 IR Inten    --      2.0683                12.1739                 2.1258

                     70                     71                     72
                      A                      A                      A
 Frequencies --   1536.9624              1541.3103              1545.2794
 Red. masses --      1.0965                 1.0964                 1.0617
 Frc consts  --      1.5261                 1.5346                 1.4937
 IR Inten    --      8.3504                10.9109                 1.7006

                     73                     74                     75
                      A                      A                      A
 Frequencies --   1547.3859              1554.6486              1569.5388
 Red. masses --      1.0847                 1.0694                 1.1965
 Frc consts  --      1.5302                 1.5228                 1.7367
 IR Inten    --     10.1930                 0.9838                32.6669

                     76                     77                     78
                      A                      A                      A
 Frequencies --   1750.0452              2944.3314              3013.1133
 Red. masses --      9.1910                 1.0735                 1.0685
 Frc consts  --     16.5848                 5.4832                 5.7154
 IR Inten    --    277.8299                59.1902                61.3311

                     79                     80                     81
                      A                      A                      A
 Frequencies --   3016.5415              3024.3315              3030.8832
 Red. masses --      1.0432                 1.0709                 1.0407
 Frc consts  --      5.5931                 5.7708                 5.6326
 IR Inten    --     52.3338                74.8297                80.4028

                     82                     83                     84
                      A                      A                      A
 Frequencies --   3040.6674              3044.7155              3057.8116
 Red. masses --      1.0385                 1.0631                 1.1022
 Frc consts  --      5.6572                 5.8067                 6.0722
 IR Inten    --     23.8382                31.4088                44.3840

                     85                     86                     87
                      A                      A                      A
 Frequencies --   3074.0259              3082.0576              3086.0605
 Red. masses --      1.1046                 1.0881                 1.0871
 Frc consts  --      6.1498                 6.0899                 6.0997
 IR Inten    --     32.9803                25.1411                13.6968

                     88                     89                     90
                      A                      A                      A
 Frequencies --   3087.6428              3110.4610              3117.2198
 Red. masses --      1.0952                 1.1018                 1.1014
 Frc consts  --      6.1517                 6.2805                 6.3055
 IR Inten    --     16.7041                58.9441                44.9162

                     91                     92                     93
                      A                      A                      A
 Frequencies --   3120.0758              3122.7862              3136.4124
 Red. masses --      1.0954                 1.0944                 1.0864
 Frc consts  --      6.2830                 6.2878                 6.2967
 IR Inten    --     37.7288                16.9187                20.2864

                     94                     95                     96
                      A                      A                      A
 Frequencies --   3196.9019              3199.2177              3533.5541
 Red. masses --      1.0958                 1.0944                 1.0742
 Frc consts  --      6.5985                 6.5994                 7.9024
 IR Inten    --      5.7747                 2.2361                 0.0741

 - Thermochemistry -
 -------------------
 Temperature   298.150 Kelvin.  Pressure   1.00000 Atm.
 Atom     1 has atomic number  6 and mass  12.00000

 Molecular mass:   200.15248 amu.
 Principal axes and moments of inertia in atomic units:
                           1         2         3
     Eigenvalues --  1863.922324483.795955432.07310
           X            0.99996   0.00565   0.00641
           Y           -0.00549   0.99969  -0.02427
           Z           -0.00655   0.02423   0.99968
 This molecule is an asymmetric top.
 Rotational symmetry number  1.
 Warning -- assumption of classical behavior for rotation
           may cause significant error
 Rotational temperatures (Kelvin)      0.04647     0.01932     0.01594
 Rotational constants (GHZ):           0.96825     0.40250     0.33224
 Zero-point vibrational energy     801917.2 (Joules/Mol)
                                  191.66282 (Kcal/Mol)
 Warning -- explicit consideration of  21 degrees of freedom as
           vibrations may cause significant error
 Vibrational temperatures:     45.84    63.04    89.25    89.98   131.20
          (Kelvin)            155.98   198.45   236.19   249.14   291.12
                              336.59   351.35   401.13   438.61   457.68
                              470.36   516.85   594.35   625.41   652.26
                              751.24   902.65   931.96   984.42  1007.05
                             1043.27  1082.63  1124.97  1281.35  1321.86
                             1325.00  1348.78  1388.29  1419.68  1476.14
                             1515.38  1536.70  1551.64  1577.67  1580.63
                             1600.80  1647.37  1651.61  1682.38  1714.95
                             1724.19  1729.92  1790.43  1842.12  1852.98
                             1857.57  1867.07  1901.45  1908.66  1940.91
                             1975.16  2005.69  2013.23  2036.34  2068.46
                             2074.44  2081.78  2097.77  2170.29  2172.93
                             2183.90  2198.29  2201.83  2206.79  2211.35
                             2217.60  2223.31  2226.34  2236.79  2258.22
                             2517.92  4236.24  4335.20  4340.13  4351.34
                             4360.76  4374.84  4380.67  4399.51  4422.84
                             4434.39  4440.15  4442.43  4475.26  4484.98
                             4489.09  4492.99  4512.60  4599.63  4602.96
                             5084.00

 Zero-point correction=                           0.305434 (Hartree/Particle)
 Thermal correction to Energy=                    0.321146
 Thermal correction to Enthalpy=                  0.322090
 Thermal correction to Gibbs Free Energy=         0.261342
 Sum of electronic and zero-point Energies=           -652.789364
 Sum of electronic and thermal Energies=              -652.773652
 Sum of electronic and thermal Enthalpies=            -652.772708
 Sum of electronic and thermal Free Energies=         -652.833456

                     E (Thermal)             CV                S
                      KCal/Mol        Cal/Mol-Kelvin    Cal/Mol-Kelvin
 Total                  201.522             57.194            127.856
 Electronic               0.000              0.000              0.000
 Translational            0.889              2.981             41.786
 Rotational               0.889              2.981             32.185
 Vibrational            199.745             51.232             53.885
 Vibration     1          0.594              1.983              5.710
 Vibration     2          0.595              1.980              5.079
 Vibration     3          0.597              1.972              4.392
 Vibration     4          0.597              1.972              4.375
 Vibration     5          0.602              1.955              3.634
 Vibration     6          0.606              1.942              3.297
 Vibration     7          0.614              1.915              2.832
 Vibration     8          0.623              1.886              2.501
 Vibration     9          0.627              1.876              2.401
 Vibration    10          0.639              1.837              2.112
 Vibration    11          0.654              1.789              1.848
 Vibration    12          0.660              1.772              1.772
 Vibration    13          0.679              1.713              1.541
 Vibration    14          0.696              1.664              1.390
 Vibration    15          0.705              1.639              1.320
 Vibration    16          0.711              1.622              1.275
 Vibration    17          0.734              1.556              1.125
 Vibration    18          0.777              1.442              0.916
 Vibration    19          0.795              1.395              0.843
 Vibration    20          0.812              1.353              0.786
 Vibration    21          0.877              1.201              0.605

                           ! Non-Optimized Parameters !
 Normal termination of Gaussian 16 at Thu Dec 10 09:55:10 2020.

 ----------------------------------------------------------------------
 # B3LYP/6-311++G(d,p) empiricaldispersion=gd3bj scf=xqc pop=npa geom=c
 heck
 ----------------------------------------------------------------------

 --------------------------------------
 CID_66255166_JID_4402_Energie_neutraal
 --------------------------------------
 Structure from the checkpoint file:  "JID_4402.chk"
 Charge =  0 Multiplicity = 1

 SCF Done:  E(RB3LYP) =  -653.286198794     A.U. after   15 cycles
 Normal termination of Gaussian 16 at Thu Dec 10 09:59:32 2020.

 ----------------------------------------------------------------------
 # B3LYP/6-311++G(d,p) empiricaldispersion=gd3bj scf=xqc pop=npa geom=c
 heck
 ----------------------------------------------------------------------

 ------------------------------------
 CID_66255166_JID_4402_Energie_kation
 ------------------------------------
 Structure from the checkpoint file:  "JID_4402.chk"
 Charge =  1 Multiplicity = 2

 SCF Done:  E(UB3LYP) =  -652.991633205     A.U. after   24 cycles
 Normal termination of Gaussian 16 at Thu Dec 10 10:09:06 2020.
 Gaussian 16:  ES64L-G16RevA.03 25-Dec-2016

 ----------------------------------------------------------------------
 # B3LYP/6-311++G(d,p) empiricaldispersion=gd3bj scf=xqc pop=npa geom=c
 heck
 ----------------------------------------------------------------------

 -----------------------------------
 CID_66255166_JID_4402_Energie_anion
 -----------------------------------
 Structure from the checkpoint file:  "JID_4402.chk"
 Charge = -1 Multiplicity = 2

                         Standard orientation:
 ---------------------------------------------------------------------
 Center     Atomic      Atomic             Coordinates (Angstroms)
 Number     Number       Type             X           Y           Z
 ---------------------------------------------------------------------
      1          6           0       -4.467160   -1.160598    0.820779
      2          6           0       -3.732922   -0.898121   -0.497170
      3          6           0       -2.678208    0.207180   -0.398227
      4          7           0       -1.622140   -0.159134    0.543699
      5          6           0       -0.376595    0.590512    0.499060
      6          6           0       -0.438927    2.137220    0.462310
      7          8           0        0.808576    2.545488   -0.086098
      8          6           0        1.074557    1.645335   -1.166276
      9          6           0        0.487480    0.270889   -0.760770
     10          6           0        1.469428   -0.889378   -0.588105
     11          8           0        1.306959   -1.903522   -1.262117
     12          7           0        2.502194   -0.786470    0.316526
     13          6           0        2.836726    0.359417    1.144960
     14          6           0        3.387315   -1.928490    0.485751
     15          1           0       -3.783750   -1.539390    1.589433
     16          1           0       -5.254963   -1.910296    0.691285
     17          1           0       -4.938046   -0.245534    1.203105
     18          1           0       -3.239659   -1.816604   -0.835816
     19          1           0       -4.459307   -0.613145   -1.269661
     20          1           0       -2.221056    0.348743   -1.383816
     21          1           0       -3.176453    1.161851   -0.146112
     22          1           0       -1.987090   -0.157671    1.491049
     23          1           0        0.179528    0.295382    1.393550
     24          1           0       -1.270265    2.481080   -0.172514
     25          1           0       -0.538260    2.596350    1.449600
     26          1           0        2.153978    1.639691   -1.336031
     27          1           0        0.583224    2.009092   -2.080145
     28          1           0       -0.170386   -0.092837   -1.550206
     29          1           0        2.757961    0.096312    2.209745
     30          1           0        3.875266    0.664228    0.955899
     31          1           0        2.195312    1.215751    0.950140
     32          1           0        3.379279   -2.263072    1.531666
     33          1           0        3.041816   -2.732542   -0.161197
     34          1           0        4.418046   -1.657688    0.220294
 ---------------------------------------------------------------------

 SCF Done:  E(UB3LYP) =  -653.274319200     A.U. after   32 cycles

 The electronic state is 2-A.
 Alpha  occ. eigenvalues --  -19.03838 -18.98492 -14.24629 -14.20395 -10.17242
 Alpha  occ. eigenvalues --  -10.13237 -10.11903 -10.11298 -10.10001 -10.09898
 Alpha  occ. eigenvalues --  -10.09734 -10.08964 -10.07348 -10.06571  -0.95684
 Alpha  occ. eigenvalues --   -0.93792  -0.83594  -0.81669  -0.70066  -0.67589
 Alpha  occ. eigenvalues --   -0.63927  -0.62333  -0.59891  -0.58315  -0.52470
 Alpha  occ. eigenvalues --   -0.51206  -0.48168  -0.45690  -0.42082  -0.41914
 Alpha  occ. eigenvalues --   -0.38930  -0.38432  -0.38036  -0.36909  -0.35917
 Alpha  occ. eigenvalues --   -0.34480  -0.33552  -0.32125  -0.31403  -0.31297
 Alpha  occ. eigenvalues --   -0.30451  -0.30338  -0.29361  -0.28472  -0.28043
 Alpha  occ. eigenvalues --   -0.27216  -0.25811  -0.25223  -0.24562  -0.23548
 Alpha  occ. eigenvalues --   -0.23129  -0.18249  -0.15631  -0.14656  -0.12758
 Alpha  occ. eigenvalues --    0.04213
 Alpha virt. eigenvalues --    0.05977   0.06800   0.07323   0.08399   0.08632
 Alpha virt. eigenvalues --    0.08862   0.09910   0.10040   0.10753   0.11218
 Alpha virt. eigenvalues --    0.11469   0.11654   0.12190   0.12420   0.12964

  Beta  occ. eigenvalues --  -19.03836 -18.98491 -14.24627 -14.20376 -10.17239
  Beta  occ. eigenvalues --  -10.13227 -10.11876 -10.11285 -10.09959 -10.09884
  Beta  occ. eigenvalues --  -10.09709 -10.08964 -10.07340 -10.06538  -0.95674
  Beta  occ. eigenvalues --   -0.93787  -0.83582  -0.81634  -0.70046  -0.67565
  Beta  occ. eigenvalues --   -0.63887  -0.62281  -0.59845  -0.58264  -0.52436
  Beta  occ. eigenvalues --   -0.51161  -0.48108  -0.45652  -0.42049  -0.41868
  Beta  occ. eigenvalues --   -0.38895  -0.38404  -0.38007  -0.36877  -0.35890
  Beta  occ. eigenvalues --   -0.34452  -0.33515  -0.32100  -0.31364  -0.31264
  Beta  occ. eigenvalues --   -0.30410  -0.30302  -0.29332  -0.28444  -0.28014
  Beta  occ. eigenvalues --   -0.27197  -0.25777  -0.25196  -0.24538  -0.23525
  Beta  occ. eigenvalues --   -0.23099  -0.18235  -0.15625  -0.14636  -0.12734
  Beta virt. eigenvalues --    0.06400   0.06832   0.07246   0.08104   0.08706
  Beta virt. eigenvalues --    0.09224   0.09291   0.10255   0.10386   0.10965
  Beta virt. eigenvalues --    0.11583   0.11631   0.11916   0.12322   0.12619

 Mulliken charges and spin densities:
               1          2
     1  C    0.782804  -1.335556
     2  C   -0.733862   0.534916
     3  C    0.123707  -0.367281
     4  N   -0.053170   0.156287
     5  C   -0.545006   0.143451
     6  C    0.700268  -1.161927
     7  O   -0.071362   0.018935
     8  C   -0.287488  -0.407536
     9  C    0.224815   0.215434
    10  C   -0.361353   0.049104
    11  O   -0.333176  -0.000651
    12  N   -0.209622   0.207311
    13  C    0.747685  -1.211102
    14  C    0.445906  -0.671721
    15  H   -0.037646   0.175036
    16  H   -0.085132   0.220632
    17  H   -0.315039   0.458508
    18  H    0.148538  -0.008763
    19  H   -0.014861   0.132941
    20  H   -0.003375   0.118142
    21  H   -0.144694   0.287096
    22  H   -0.099494   0.341163
    23  H    0.030243   0.228854
    24  H    0.154097   0.013012
    25  H   -0.657199   0.848386
    26  H    0.062102   0.149863
    27  H   -0.020347   0.154223
    28  H    0.264580   0.010797
    29  H   -0.428818   0.598274
    30  H   -0.270427   0.427979
    31  H    0.164015   0.028671
    32  H   -0.133781   0.281134
    33  H    0.095650   0.087027
    34  H   -0.138555   0.277361
 Sum of Mulliken charges =  -1.00000   1.00000

 Dipole moment (field-independent basis, Debye):
    X=              0.1104    Y=             -0.0513    Z=             -5.1187  Tot=              5.1201
 Quadrupole moment (field-independent basis, Debye-Ang):
   XX=           -164.9109   YY=           -131.5294   ZZ=           -128.8906
   XY=              2.1047   XZ=              3.1303   YZ=             -8.1982

 Summary of Natural Population Analysis:

                                       Natural Population
                Natural  -----------------------------------------------
    Atom  No    Charge         Core      Valence    Rydberg      Total
 -----------------------------------------------------------------------
      C    1   -0.28959      0.99967     2.28487    0.00505     3.28959
      C    2   -0.19151      0.99964     2.18295    0.00892     3.19151
      C    3   -0.08820      0.99961     2.07703    0.01156     3.08820
      N    4   -0.33999      0.99972     2.82738    0.01289     3.83999
      C    5   -0.01505      0.99957     2.00026    0.01522     3.01505
      C    6   -0.01858      0.99957     2.00585    0.01316     3.01858
      O    7   -0.29920      0.99990     3.29121    0.00809     4.29920
      C    8   -0.01153      0.99958     2.00002    0.01193     3.01153
      C    9   -0.16584      0.99953     2.15496    0.01134     3.16584
      C   10    0.35056      0.99961     1.62579    0.02405     2.64944
      O   11   -0.32859      0.99988     3.32371    0.00500     4.32859
      N   12   -0.25273      0.99965     2.74327    0.00981     3.75273
      C   13   -0.18300      0.99962     2.17442    0.00896     3.18300
      C   14   -0.17935      0.99964     2.17178    0.00793     3.17935
      H   15    0.09881      0.00000     0.40011    0.00108     0.40119
      H   16    0.09784      0.00000     0.40131    0.00085     0.40216
      H   17    0.09776      0.00000     0.40085    0.00139     0.40224
      H   18    0.09821      0.00000     0.40053    0.00126     0.40179
      H   19    0.09244      0.00000     0.40663    0.00094     0.40756
      H   20    0.09054      0.00000     0.40798    0.00148     0.40946
      H   21    0.08057      0.00000     0.41782    0.00161     0.41943
      H   22    0.18075      0.00000     0.31584    0.00341     0.31925
      H   23    0.10331      0.00000     0.39397    0.00272     0.39669
      H   24    0.07906      0.00000     0.41929    0.00165     0.42094
      H   25    0.09787      0.00000     0.39996    0.00218     0.40213
      H   26    0.09484      0.00000     0.40392    0.00124     0.40516
      H   27    0.08331      0.00000     0.41559    0.00110     0.41669
      H   28    0.11689      0.00000     0.38142    0.00169     0.38311
      H   29    0.09650      0.00000     0.40144    0.00207     0.40350
      H   30    0.09449      0.00000     0.40389    0.00162     0.40551
      H   31    0.10920      0.00000     0.38747    0.00334     0.39080
      H   32    0.09341      0.00000     0.40554    0.00105     0.40659
      H   33    0.11526      0.00000     0.38365    0.00108     0.38474
      H   34    0.09157      0.00000     0.40725    0.00119     0.40843
 =======================================================================
   * Total *   -0.00000     13.99519    40.81795    0.18686    55.00000

 Normal termination of Gaussian 16 at Thu Dec 10 10:22:38 2020.
