 Gaussian 16, Revision A.03,

 -----------------------------------------------------------
 # opt freq B3LYP/6-31G(d) empiricaldispersion=gd3bj scf=xqc
 -----------------------------------------------------------

 -------------------------------
 CID_115711562_JID_3154_neutraal
 -------------------------------
 Symbolic Z-matrix:
 Charge =  0 Multiplicity = 1

 SCF Done:  E(RB3LYP) =  -923.088672332     A.U. after   14 cycles
 SCF Done:  E(RB3LYP) =  -923.091282487     A.U. after   12 cycles
 SCF Done:  E(RB3LYP) =  -923.090425307     A.U. after   12 cycles
 SCF Done:  E(RB3LYP) =  -923.091835403     A.U. after   13 cycles
 SCF Done:  E(RB3LYP) =  -923.092515175     A.U. after   12 cycles
 SCF Done:  E(RB3LYP) =  -923.094588025     A.U. after   12 cycles
 SCF Done:  E(RB3LYP) =  -923.094099159     A.U. after   15 cycles
 SCF Done:  E(RB3LYP) =  -923.098540828     A.U. after   12 cycles
 SCF Done:  E(RB3LYP) =  -923.094954263     A.U. after   14 cycles
 SCF Done:  E(RB3LYP) =  -923.100689925     A.U. after   13 cycles
 SCF Done:  E(RB3LYP) =  -923.102316773     A.U. after    8 cycles
 SCF Done:  E(RB3LYP) =  -923.102317587     A.U. after    8 cycles
 SCF Done:  E(RB3LYP) =  -923.102317986     A.U. after    8 cycles
 SCF Done:  E(RB3LYP) =  -923.102318062     A.U. after    7 cycles
 SCF Done:  E(RB3LYP) =  -923.102318079     A.U. after    6 cycles
 SCF Done:  E(RB3LYP) =  -923.102318065     A.U. after    6 cycles
 Optimization completed.
    -- Stationary point found.
 Normal termination of Gaussian 16 at Wed Dec  9 22:40:48 2020.

 --------------------------------------------------------------------
 #N Geom=AllCheck Guess=TCheck SCRF=Check GenChk RB3LYP/6-31G(d) Freq
 --------------------------------------------------------------------

 Structure from the checkpoint file:  "JID_3154.chk"
 -------------------------------
 CID_115711562_JID_3154_neutraal
 -------------------------------
 Charge =  0 Multiplicity = 1

 SCF Done:  E(RB3LYP) =  -923.102318065     A.U. after    1 cycles

  Exact polarizability: 144.724  -2.600 134.085   2.379   1.198 123.723
 Approx polarizability: 180.794  -1.680 197.517   1.507  -3.652 197.597

                      1                      2                      3
                      A                      A                      A
 Frequencies --     25.5219                41.2763                72.2249
 Red. masses --      2.9153                 3.1533                 3.5111
 Frc consts  --      0.0011                 0.0032                 0.0108
 IR Inten    --      0.7296                 1.8189                 0.2261

                      4                      5                      6
                      A                      A                      A
 Frequencies --     97.5747               117.6902               159.5840
 Red. masses --      4.3917                 3.3912                 3.3146
 Frc consts  --      0.0246                 0.0277                 0.0497
 IR Inten    --     12.8227                 0.1691                 3.9368

                      7                      8                      9
                      A                      A                      A
 Frequencies --    208.9763               226.2996               243.1079
 Red. masses --      2.7324                 1.1231                 2.1072
 Frc consts  --      0.0703                 0.0339                 0.0734
 IR Inten    --      3.6795                 0.4570                 0.1265

                     10                     11                     12
                      A                      A                      A
 Frequencies --    252.3881               264.2839               270.8802
 Red. masses --      1.8820                 2.4434                 1.2248
 Frc consts  --      0.0706                 0.1006                 0.0530
 IR Inten    --      2.8972                 3.4620                 0.3484

                     13                     14                     15
                      A                      A                      A
 Frequencies --    281.6848               301.9927               310.0584
 Red. masses --      1.5122                 1.6267                 1.1091
 Frc consts  --      0.0707                 0.0874                 0.0628
 IR Inten    --      0.1812                 0.4675                 0.0547

                     16                     17                     18
                      A                      A                      A
 Frequencies --    314.4589               325.8509               326.8771
 Red. masses --      2.3728                 1.4783                 2.9394
 Frc consts  --      0.1382                 0.0925                 0.1850
 IR Inten    --      2.5358                 1.9719                 4.9622

                     19                     20                     21
                      A                      A                      A
 Frequencies --    344.5344               362.4995               388.8320
 Red. masses --      2.8300                 2.3030                 2.2200
 Frc consts  --      0.1979                 0.1783                 0.1978
 IR Inten    --      2.0243                 5.2424                 0.5092

                     22                     23                     24
                      A                      A                      A
 Frequencies --    411.6216               413.1643               466.7586
 Red. masses --      1.9904                 3.0635                 2.3130
 Frc consts  --      0.1987                 0.3081                 0.2969
 IR Inten    --      0.2803                 4.2658                 3.0756

                     25                     26                     27
                      A                      A                      A
 Frequencies --    532.9051               558.6606               622.8972
 Red. masses --      4.0275                 3.0996                 2.2168
 Frc consts  --      0.6739                 0.5700                 0.5068
 IR Inten    --      3.2715                 0.1282                 5.7234

                     28                     29                     30
                      A                      A                      A
 Frequencies --    678.6711               745.9087               818.5145
 Red. masses --      5.0826                 3.2237                 2.4966
 Frc consts  --      1.3793                 1.0568                 0.9855
 IR Inten    --     11.6860                 3.3400                23.8212

                     31                     32                     33
                      A                      A                      A
 Frequencies --    837.6680               880.3608               921.2249
 Red. masses --      2.2673                 1.5025                 2.0316
 Frc consts  --      0.9374                 0.6861                 1.0158
 IR Inten    --      8.2234                57.3870                 1.3168

                     34                     35                     36
                      A                      A                      A
 Frequencies --    932.4341               950.2094               955.2970
 Red. masses --      1.7019                 1.6262                 1.4763
 Frc consts  --      0.8718                 0.8651                 0.7938
 IR Inten    --     41.6917                 1.7060                 0.0483

                     37                     38                     39
                      A                      A                      A
 Frequencies --    969.6671               975.0010               991.4895
 Red. masses --      1.2108                 1.5451                 1.3560
 Frc consts  --      0.6707                 0.8654                 0.7854
 IR Inten    --      0.1249                13.5512                16.6071

                     40                     41                     42
                      A                      A                      A
 Frequencies --    996.9320              1017.8201              1032.3656
 Red. masses --      1.9322                 1.5100                 1.5203
 Frc consts  --      1.1314                 0.9217                 0.9546
 IR Inten    --      8.9855                 8.6387                14.4203

                     43                     44                     45
                      A                      A                      A
 Frequencies --   1047.1215              1063.6087              1069.5852
 Red. masses --      3.4793                 1.4286                 1.6404
 Frc consts  --      2.2477                 0.9522                 1.1057
 IR Inten    --     69.2923                 3.6519                 8.9674

                     46                     47                     48
                      A                      A                      A
 Frequencies --   1116.1645              1150.4083              1159.7192
 Red. masses --      1.7143                 2.4057                 1.9300
 Frc consts  --      1.2583                 1.8759                 1.5294
 IR Inten    --      2.2273                16.3265                 4.4885

                     49                     50                     51
                      A                      A                      A
 Frequencies --   1182.8256              1242.2548              1249.7763
 Red. masses --      3.3802                 1.4547                 2.2565
 Frc consts  --      2.7863                 1.3227                 2.0766
 IR Inten    --     37.9519                 2.0246                11.5046

                     52                     53                     54
                      A                      A                      A
 Frequencies --   1271.5595              1285.7455              1297.6366
 Red. masses --      1.2620                 1.5530                 2.6220
 Frc consts  --      1.2022                 1.5126                 2.6013
 IR Inten    --      7.6672                 4.4470                 1.7076

                     55                     56                     57
                      A                      A                      A
 Frequencies --   1333.9890              1357.1784              1360.9504
 Red. masses --      1.2862                 1.1856                 1.3695
 Frc consts  --      1.3486                 1.2867                 1.4945
 IR Inten    --      6.8050                 6.2044                 2.0671

                     58                     59                     60
                      A                      A                      A
 Frequencies --   1368.8886              1402.8472              1417.0362
 Red. masses --      1.2914                 1.2997                 1.2671
 Frc consts  --      1.4257                 1.5070                 1.4991
 IR Inten    --      4.1486                11.7812                 3.1949

                     61                     62                     63
                      A                      A                      A
 Frequencies --   1422.1510              1426.5138              1431.2345
 Red. masses --      1.2766                 1.2743                 1.2901
 Frc consts  --      1.5213                 1.5278                 1.5571
 IR Inten    --      6.8422                 0.7984                 4.1966

                     64                     65                     66
                      A                      A                      A
 Frequencies --   1442.2613              1458.3146              1479.6269
 Red. masses --      1.3015                 1.2454                 1.0472
 Frc consts  --      1.5950                 1.5604                 1.3508
 IR Inten    --      5.8303                15.8685                 3.1208

                     67                     68                     69
                      A                      A                      A
 Frequencies --   1498.5844              1506.2905              1510.3440
 Red. masses --      1.0890                 1.0822                 1.0505
 Frc consts  --      1.4409                 1.4467                 1.4119
 IR Inten    --     10.9680                 1.0670                 0.3725

                     70                     71                     72
                      A                      A                      A
 Frequencies --   1511.3983              1519.7728              1521.2751
 Red. masses --      1.0521                 1.0475                 1.0464
 Frc consts  --      1.4161                 1.4255                 1.4268
 IR Inten    --      1.8777                 0.9497                 0.4770

                     73                     74                     75
                      A                      A                      A
 Frequencies --   1530.6789              1535.6276              1537.7997
 Red. masses --      1.0452                 1.0587                 1.0591
 Frc consts  --      1.4429                 1.4710                 1.4757
 IR Inten    --      6.6021                 2.5876                 8.4462

                     76                     77                     78
                      A                      A                      A
 Frequencies --   1540.7589              1551.0109              1563.4244
 Red. masses --      1.0539                 1.0634                 1.0914
 Frc consts  --      1.4741                 1.5073                 1.5718
 IR Inten    --      3.8580                16.2189                 2.9478

                     79                     80                     81
                      A                      A                      A
 Frequencies --   1581.1849              2941.7927              2952.9082
 Red. masses --      1.1439                 1.0760                 1.0703
 Frc consts  --      1.6850                 5.4861                 5.4988
 IR Inten    --     21.1931                44.7287               103.8460

                     82                     83                     84
                      A                      A                      A
 Frequencies --   3035.6439              3038.8208              3045.0508
 Red. masses --      1.0350                 1.0363                 1.0724
 Frc consts  --      5.6194                 5.6381                 5.8589
 IR Inten    --     31.0746                31.4556                13.7959

                     85                     86                     87
                      A                      A                      A
 Frequencies --   3046.1026              3051.9318              3060.4197
 Red. masses --      1.0396                 1.0419                 1.0824
 Frc consts  --      5.6834                 5.7178                 5.9729
 IR Inten    --     12.9079                10.8728                27.7531

                     88                     89                     90
                      A                      A                      A
 Frequencies --   3060.5719              3062.7615              3066.4847
 Red. masses --      1.0876                 1.0683                 1.0379
 Frc consts  --      6.0025                 5.9044                 5.7502
 IR Inten    --     48.2596                35.3927                28.8207

                     91                     92                     93
                      A                      A                      A
 Frequencies --   3098.9556              3101.2161              3103.3785
 Red. masses --      1.1026                 1.1020                 1.1005
 Frc consts  --      6.2387                 6.2445                 6.2446
 IR Inten    --      0.2286                13.6058                22.3585

                     94                     95                     96
                      A                      A                      A
 Frequencies --   3104.0107              3109.2186              3109.9512
 Red. masses --      1.0980                 1.1014                 1.1010
 Frc consts  --      6.2330                 6.2731                 6.2738
 IR Inten    --     39.0906                72.3987                28.9816

                     97                     98                     99
                      A                      A                      A
 Frequencies --   3120.9419              3132.5521              3151.0897
 Red. masses --      1.1003                 1.0983                 1.1003
 Frc consts  --      6.3146                 6.3497                 6.4369
 IR Inten    --     26.7329                50.0331                19.0301

                    100                    101                    102
                      A                      A                      A
 Frequencies --   3169.4144              3177.3757              3443.9902
 Red. masses --      1.1053                 1.1081                 1.0772
 Frc consts  --      6.5418                 6.5915                 7.5278
 IR Inten    --      6.4101                11.6326                87.9365

 - Thermochemistry -
 -------------------
 Temperature   298.150 Kelvin.  Pressure   1.00000 Atm.
 Atom     1 has atomic number  6 and mass  12.00000

 Molecular mass:   205.15004 amu.
 Principal axes and moments of inertia in atomic units:
                           1         2         3
     Eigenvalues --  1626.282104821.282545081.82703
           X            0.99981  -0.01682   0.00968
           Y            0.01622   0.99814   0.05878
           Z           -0.01065  -0.05861   0.99822
 This molecule is an asymmetric top.
 Rotational symmetry number  1.
 Warning -- assumption of classical behavior for rotation
           may cause significant error
 Rotational temperatures (Kelvin)      0.05326     0.01796     0.01704
 Rotational constants (GHZ):           1.10973     0.37433     0.35514
 Zero-point vibrational energy     859973.2 (Joules/Mol)
                                  205.53854 (Kcal/Mol)
 Warning -- explicit consideration of  26 degrees of freedom as
           vibrations may cause significant error
 Vibrational temperatures:     36.72    59.39   103.92   140.39   169.33
          (Kelvin)            229.61   300.67   325.59   349.78   363.13
                              380.25   389.74   405.28   434.50   446.10
                              452.44   468.83   470.30   495.71   521.56
                              559.44   592.23   594.45   671.56   766.73
                              803.79   896.21   976.46  1073.20  1177.66
                             1205.22  1266.64  1325.44  1341.56  1367.14
                             1374.46  1395.13  1402.81  1426.53  1434.36
                             1464.42  1485.34  1506.57  1530.30  1538.89
                             1605.91  1655.18  1668.58  1701.82  1787.33
                             1798.15  1829.49  1849.90  1867.01  1919.31
                             1952.68  1958.10  1969.53  2018.38  2038.80
                             2046.16  2052.44  2059.23  2075.09  2098.19
                             2128.85  2156.13  2167.22  2173.05  2174.57
                             2186.61  2188.78  2202.31  2209.43  2212.55
                             2216.81  2231.56  2249.42  2274.97  4232.58
                             4248.58  4367.61  4372.19  4381.15  4382.66
                             4391.05  4403.26  4403.48  4406.63  4411.99
                             4458.71  4461.96  4465.07  4465.98  4473.47
                             4474.53  4490.34  4507.04  4533.72  4560.08
                             4571.54  4955.13

 Zero-point correction=                           0.327547 (Hartree/Particle)
 Thermal correction to Energy=                    0.344012
 Thermal correction to Enthalpy=                  0.344956
 Thermal correction to Gibbs Free Energy=         0.284184
 Sum of electronic and zero-point Energies=           -922.774772
 Sum of electronic and thermal Energies=              -922.758306
 Sum of electronic and thermal Enthalpies=            -922.757362
 Sum of electronic and thermal Free Energies=         -922.818134

                     E (Thermal)             CV                S
                      KCal/Mol        Cal/Mol-Kelvin    Cal/Mol-Kelvin
 Total                  215.871             62.622            127.905
 Electronic               0.000              0.000              0.000
 Translational            0.889              2.981             41.860
 Rotational               0.889              2.981             32.055
 Vibrational            214.093             56.661             53.990
 Vibration     1          0.593              1.985              6.150
 Vibration     2          0.594              1.981              5.197
 Vibration     3          0.598              1.967              4.092
 Vibration     4          0.603              1.951              3.502
 Vibration     5          0.608              1.935              3.138
 Vibration     6          0.621              1.892              2.555
 Vibration     7          0.642              1.827              2.053
 Vibration     8          0.650              1.801              1.908
 Vibration     9          0.659              1.774              1.780
 Vibration    10          0.664              1.759              1.714
 Vibration    11          0.671              1.738              1.633
 Vibration    12          0.675              1.727              1.591
 Vibration    13          0.681              1.708              1.523
 Vibration    14          0.694              1.670              1.406
 Vibration    15          0.699              1.655              1.362
 Vibration    16          0.702              1.646              1.339
 Vibration    17          0.710              1.624              1.281
 Vibration    18          0.711              1.622              1.275
 Vibration    19          0.723              1.586              1.191
 Vibration    20          0.736              1.549              1.111
 Vibration    21          0.757              1.494              1.005
 Vibration    22          0.776              1.445              0.921
 Vibration    23          0.777              1.442              0.916
 Vibration    24          0.824              1.324              0.747
 Vibration    25          0.888              1.177              0.581
 Vibration    26          0.914              1.121              0.527

                           ! Non-Optimized Parameters !
 Normal termination of Gaussian 16 at Wed Dec  9 22:52:49 2020.

 ----------------------------------------------------------------------
 # B3LYP/6-311++G(d,p) empiricaldispersion=gd3bj scf=xqc pop=npa geom=c
 heck
 ----------------------------------------------------------------------

 ---------------------------------------
 CID_115711562_JID_3154_Energie_neutraal
 ---------------------------------------
 Structure from the checkpoint file:  "JID_3154.chk"
 Charge =  0 Multiplicity = 1

 SCF Done:  E(RB3LYP) =  -923.284997140     A.U. after   14 cycles
 Normal termination of Gaussian 16 at Wed Dec  9 22:59:06 2020.

 ----------------------------------------------------------------------
 # B3LYP/6-311++G(d,p) empiricaldispersion=gd3bj scf=xqc pop=npa geom=c
 heck
 ----------------------------------------------------------------------

 -------------------------------------
 CID_115711562_JID_3154_Energie_kation
 -------------------------------------
 Structure from the checkpoint file:  "JID_3154.chk"
 Charge =  1 Multiplicity = 2

 SCF Done:  E(UB3LYP) =  -922.994612145     A.U. after   23 cycles
 Normal termination of Gaussian 16 at Wed Dec  9 23:13:27 2020.
 Gaussian 16:  ES64L-G16RevA.03 25-Dec-2016

 ----------------------------------------------------------------------
 # B3LYP/6-311++G(d,p) empiricaldispersion=gd3bj scf=xqc pop=npa geom=c
 heck
 ----------------------------------------------------------------------

 ------------------------------------
 CID_115711562_JID_3154_Energie_anion
 ------------------------------------
 Structure from the checkpoint file:  "JID_3154.chk"
 Charge = -1 Multiplicity = 2

                         Standard orientation:
 ---------------------------------------------------------------------
 Center     Atomic      Atomic             Coordinates (Angstroms)
 Number     Number       Type             X           Y           Z
 ---------------------------------------------------------------------
      1          6           0        1.947686   -1.142659    1.758653
      2          6           0        2.415868   -0.948986    0.320331
      3          6           0        1.569124   -1.659568   -0.744075
      4          6           0        0.047227   -1.557213   -0.623257
      5          7           0       -0.424895   -0.175097   -0.662768
      6          6           0       -1.820689   -0.004019   -1.068361
      7          6           0       -2.835249    0.166449    0.087743
      8          6           0       -2.558565    1.474778    0.842984
      9          6           0       -4.241916    0.222184   -0.531070
     10          6           0       -2.755805   -1.012776    1.069019
     11         16           0        2.704532    0.871240   -0.146086
     12          8           0        2.147382    1.066855   -1.555530
     13          6           0        1.545484    1.727907    0.977830
     14          1           0        0.936710   -0.757086    1.908971
     15          1           0        2.618732   -0.656844    2.475311
     16          1           0        1.938636   -2.213699    1.993651
     17          1           0        3.437955   -1.336396    0.231270
     18          1           0        1.875825   -1.289301   -1.728189
     19          1           0        1.836127   -2.723771   -0.706389
     20          1           0       -0.386719   -2.156482   -1.445766
     21          1           0       -0.285561   -2.038021    0.304319
     22          1           0        0.191434    0.354375   -1.281157
     23          1           0       -1.881747    0.893464   -1.696963
     24          1           0       -2.150910   -0.850989   -1.697417
     25          1           0       -2.625322    2.340073    0.171975
     26          1           0       -3.284758    1.620057    1.651936
     27          1           0       -1.557539    1.466571    1.283915
     28          1           0       -4.480250   -0.708700   -1.060072
     29          1           0       -5.003803    0.372609    0.242673
     30          1           0       -4.327204    1.047389   -1.248894
     31          1           0       -2.904126   -1.970892    0.555874
     32          1           0       -1.782543   -1.039104    1.569523
     33          1           0       -3.527579   -0.924435    1.843203
     34          1           0        0.546473    1.312040    0.831760
     35          1           0        1.885420    1.637450    2.012157
     36          1           0        1.574452    2.776092    0.670528
 ---------------------------------------------------------------------

 SCF Done:  E(UB3LYP) =  -923.273483211     A.U. after   27 cycles

 The electronic state is 2-A.
 Alpha  occ. eigenvalues --  -88.84234 -18.98487 -14.19119 -10.10891 -10.09272
 Alpha  occ. eigenvalues --  -10.09106 -10.08978 -10.08509 -10.07426 -10.06887
 Alpha  occ. eigenvalues --  -10.06675 -10.05893 -10.05823  -7.91994  -5.88276
 Alpha  occ. eigenvalues --   -5.88121  -5.87566  -0.90905  -0.80582  -0.72571
 Alpha  occ. eigenvalues --   -0.71163  -0.66171  -0.62420  -0.59349  -0.58896
 Alpha  occ. eigenvalues --   -0.57555  -0.55076  -0.51930  -0.45262  -0.43973
 Alpha  occ. eigenvalues --   -0.39519  -0.38757  -0.37768  -0.36647  -0.35741
 Alpha  occ. eigenvalues --   -0.34812  -0.34070  -0.33058  -0.32787  -0.31430
 Alpha  occ. eigenvalues --   -0.30482  -0.30100  -0.29728  -0.29084  -0.28275
 Alpha  occ. eigenvalues --   -0.27586  -0.26953  -0.26659  -0.24825  -0.24271
 Alpha  occ. eigenvalues --   -0.23969  -0.23087  -0.22551  -0.22091  -0.17171
 Alpha  occ. eigenvalues --   -0.13499  -0.12753   0.04199
 Alpha virt. eigenvalues --    0.06154   0.06920   0.08046   0.08318   0.08677
 Alpha virt. eigenvalues --    0.09086   0.09756   0.09966   0.10333   0.11080
 Alpha virt. eigenvalues --    0.11302   0.11668   0.12070   0.12561   0.13176

  Beta  occ. eigenvalues --  -88.84229 -18.98480 -14.19112 -10.10881 -10.09264
  Beta  occ. eigenvalues --  -10.09092 -10.08947 -10.08507 -10.07411 -10.06829
  Beta  occ. eigenvalues --  -10.06658 -10.05874 -10.05799  -7.91990  -5.88273
  Beta  occ. eigenvalues --   -5.88112  -5.87559  -0.90889  -0.80570  -0.72546
  Beta  occ. eigenvalues --   -0.71132  -0.66136  -0.62369  -0.59312  -0.58855
  Beta  occ. eigenvalues --   -0.57493  -0.55030  -0.51891  -0.45216  -0.43932
  Beta  occ. eigenvalues --   -0.39477  -0.38721  -0.37743  -0.36617  -0.35711
  Beta  occ. eigenvalues --   -0.34782  -0.34036  -0.33021  -0.32757  -0.31397
  Beta  occ. eigenvalues --   -0.30446  -0.30063  -0.29689  -0.29054  -0.28241
  Beta  occ. eigenvalues --   -0.27553  -0.26928  -0.26635  -0.24791  -0.24241
  Beta  occ. eigenvalues --   -0.23945  -0.23065  -0.22531  -0.22063  -0.17140
  Beta  occ. eigenvalues --   -0.13471  -0.12725
  Beta virt. eigenvalues --    0.06218   0.07156   0.07621   0.08389   0.08750
  Beta virt. eigenvalues --    0.09120   0.09520   0.10030   0.10165   0.10587
  Beta virt. eigenvalues --    0.11421   0.11722   0.11947   0.12143   0.12821

 Mulliken charges and spin densities:
               1          2
     1  C    1.720369  -2.370516
     2  C   -1.232985   1.481692
     3  C    0.164855  -1.071020
     4  C   -0.131222   0.017344
     5  N   -0.094356   0.017616
     6  C   -0.391052  -0.393573
     7  C   -0.521755   1.279501
     8  C    0.416358  -0.925944
     9  C   -0.231451  -0.357320
    10  C    0.472107  -1.094087
    11  S    1.155657  -0.584187
    12  O   -0.457200   0.009046
    13  C   -0.849956   0.030673
    14  H   -0.047468   0.212147
    15  H   -0.479997   0.646173
    16  H   -0.446648   0.614669
    17  H   -0.289080   0.586064
    18  H    0.314349  -0.095944
    19  H   -0.509339   0.688919
    20  H   -0.075965   0.191738
    21  H    0.265100  -0.146698
    22  H    0.307073   0.055039
    23  H    0.074091   0.058685
    24  H    0.108387   0.042088
    25  H    0.060792   0.067820
    26  H   -0.074897   0.215220
    27  H   -0.363507   0.499785
    28  H   -0.018001   0.145523
    29  H    0.001059   0.142350
    30  H   -0.034591   0.160910
    31  H   -0.060509   0.218509
    32  H   -0.164717   0.281969
    33  H   -0.137322   0.279642
    34  H    0.913108  -0.568610
    35  H   -0.366712   0.508911
    36  H    0.005424   0.155864
 Sum of Mulliken charges =  -1.00000   1.00000

 Dipole moment (field-independent basis, Debye):
    X=             -2.2500    Y=              2.7224    Z=             -3.7400  Tot=              5.1441
 Quadrupole moment (field-independent basis, Debye-Ang):
   XX=           -160.0468   YY=           -137.9525   ZZ=           -140.5913
   XY=              5.7398   XZ=             -2.9788   YZ=              6.0888

 Summary of Natural Population Analysis:

                                       Natural Population
                Natural  -----------------------------------------------
    Atom  No    Charge         Core      Valence    Rydberg      Total
 -----------------------------------------------------------------------
      C    1   -0.29813      0.99963     2.29071    0.00779     3.29813
      C    2   -0.17720      0.99955     2.16122    0.01643     3.17720
      C    3   -0.20540      0.99958     2.19494    0.01088     3.20540
      C    4   -0.08293      0.99961     2.07228    0.01103     3.08293
      N    5   -0.36628      0.99973     2.85566    0.01089     3.86628
      C    6   -0.07665      0.99957     2.06668    0.01040     3.07665
      C    7   -0.05589      0.99958     2.04486    0.01145     3.05589
      C    8   -0.28385      0.99962     2.27681    0.00742     3.28385
      C    9   -0.28306      0.99963     2.27750    0.00594     3.28306
      C   10   -0.28645      0.99962     2.27930    0.00753     3.28645
      S   11    0.57055      4.99945     2.37979    0.05021     7.42945
      O   12   -0.49268      0.99993     3.48710    0.00564     4.49268
      C   13   -0.38672      0.99961     2.37888    0.00824     3.38672
      H   14    0.10491      0.00000     0.39249    0.00260     0.39509
      H   15    0.10505      0.00000     0.39237    0.00258     0.39495
      H   16    0.11108      0.00000     0.38630    0.00262     0.38892
      H   17    0.10449      0.00000     0.39318    0.00233     0.39551
      H   18    0.11174      0.00000     0.38699    0.00127     0.38826
      H   19    0.10787      0.00000     0.39086    0.00127     0.39213
      H   20    0.08212      0.00000     0.41663    0.00125     0.41788
      H   21    0.09087      0.00000     0.40715    0.00198     0.40913
      H   22    0.19498      0.00000     0.30208    0.00294     0.30502
      H   23    0.09294      0.00000     0.40614    0.00092     0.40706
      H   24    0.08238      0.00000     0.41619    0.00144     0.41762
      H   25    0.09615      0.00000     0.40297    0.00088     0.40385
      H   26    0.09769      0.00000     0.40147    0.00084     0.40231
      H   27    0.10367      0.00000     0.39490    0.00143     0.39633
      H   28    0.09869      0.00000     0.40035    0.00095     0.40131
      H   29    0.09941      0.00000     0.39970    0.00089     0.40059
      H   30    0.09732      0.00000     0.40179    0.00089     0.40268
      H   31    0.09876      0.00000     0.40023    0.00101     0.40124
      H   32    0.10339      0.00000     0.39479    0.00182     0.39661
      H   33    0.09859      0.00000     0.40049    0.00092     0.40141
      H   34    0.12387      0.00000     0.37390    0.00223     0.37613
      H   35    0.10974      0.00000     0.38786    0.00241     0.39026
      H   36    0.10898      0.00000     0.38985    0.00117     0.39102
 =======================================================================
   * Total *   -0.00000     16.99511    39.80440    0.20049    57.00000

 Normal termination of Gaussian 16 at Wed Dec  9 23:30:04 2020.
