 Gaussian 16, Revision A.03,

 -----------------------------------------------------------
 # opt freq B3LYP/6-31G(d) empiricaldispersion=gd3bj scf=xqc
 -----------------------------------------------------------

 ------------------------------
 CID_65814897_JID_7647_neutraal
 ------------------------------
 Symbolic Z-matrix:
 Charge =  0 Multiplicity = 1

 SCF Done:  E(RB3LYP) =  -1052.08578812     A.U. after   15 cycles
 SCF Done:  E(RB3LYP) =  -1052.09006654     A.U. after   12 cycles
 SCF Done:  E(RB3LYP) =  -1052.09062568     A.U. after   12 cycles
 SCF Done:  E(RB3LYP) =  -1052.09079692     A.U. after   12 cycles
 SCF Done:  E(RB3LYP) =  -1052.09090919     A.U. after   10 cycles
 SCF Done:  E(RB3LYP) =  -1052.09101872     A.U. after   12 cycles
 SCF Done:  E(RB3LYP) =  -1052.09108640     A.U. after   12 cycles
 SCF Done:  E(RB3LYP) =  -1052.09114601     A.U. after   12 cycles
 SCF Done:  E(RB3LYP) =  -1052.09122679     A.U. after   12 cycles
 SCF Done:  E(RB3LYP) =  -1052.09128337     A.U. after   12 cycles
 SCF Done:  E(RB3LYP) =  -1052.09151280     A.U. after    8 cycles
 SCF Done:  E(RB3LYP) =  -1052.09151277     A.U. after    8 cycles
 SCF Done:  E(RB3LYP) =  -1052.09151272     A.U. after    8 cycles
 SCF Done:  E(RB3LYP) =  -1052.09151267     A.U. after    8 cycles
 SCF Done:  E(RB3LYP) =  -1052.09151263     A.U. after    7 cycles
 Optimization completed.
    -- Stationary point found.
 Normal termination of Gaussian 16 at Sun Dec 13 20:18:40 2020.

 --------------------------------------------------------------------
 #N Geom=AllCheck Guess=TCheck SCRF=Check GenChk RB3LYP/6-31G(d) Freq
 --------------------------------------------------------------------

 Structure from the checkpoint file:  "JID_7647.chk"
 ------------------------------
 CID_65814897_JID_7647_neutraal
 ------------------------------
 Charge =  0 Multiplicity = 1

 SCF Done:  E(RB3LYP) =  -1052.09151263     A.U. after    1 cycles

  Exact polarizability: 286.051 -11.192 170.295  13.148   5.345 102.751
 Approx polarizability: 370.449 -23.581 309.543  27.335  12.703 154.856

                      1                      2                      3
                      A                      A                      A
 Frequencies --      8.6149                16.5735                62.2021
 Red. masses --      3.9061                 4.1702                 2.4724
 Frc consts  --      0.0002                 0.0007                 0.0056
 IR Inten    --      0.3893                 0.1522                 0.4958

                      4                      5                      6
                      A                      A                      A
 Frequencies --     69.2057                81.2625               116.1469
 Red. masses --      3.1697                 3.1859                 3.8042
 Frc consts  --      0.0089                 0.0124                 0.0302
 IR Inten    --      0.2893                 0.1534                 1.6967

                      7                      8                      9
                      A                      A                      A
 Frequencies --    137.8201               143.5819               171.1319
 Red. masses --      1.3332                 2.1037                 1.1412
 Frc consts  --      0.0149                 0.0256                 0.0197
 IR Inten    --      0.4446                 2.0288                 0.3060

                     10                     11                     12
                      A                      A                      A
 Frequencies --    177.2202               206.2332               235.9210
 Red. masses --      3.1745                 4.1843                 3.0743
 Frc consts  --      0.0587                 0.1049                 0.1008
 IR Inten    --      1.2358                 0.5497                 0.0854

                     13                     14                     15
                      A                      A                      A
 Frequencies --    259.3488               271.3768               305.2202
 Red. masses --      1.1807                 3.7481                 2.6111
 Frc consts  --      0.0468                 0.1626                 0.1433
 IR Inten    --      0.4020                 1.3830                 0.3481

                     16                     17                     18
                      A                      A                      A
 Frequencies --    312.0475               325.9606               345.3476
 Red. masses --      2.5511                 4.3419                 4.6332
 Frc consts  --      0.1464                 0.2718                 0.3256
 IR Inten    --      2.7095                 0.5475                 3.2984

                     19                     20                     21
                      A                      A                      A
 Frequencies --    374.4493               451.3341               471.5415
 Red. masses --      3.6336                 2.9693                 3.4093
 Frc consts  --      0.3002                 0.3564                 0.4466
 IR Inten    --      0.8033                 1.3264                 2.9245

                     22                     23                     24
                      A                      A                      A
 Frequencies --    488.6883               536.0761               550.6362
 Red. masses --      3.8359                 4.5732                 4.2578
 Frc consts  --      0.5397                 0.7743                 0.7606
 IR Inten    --      1.2907                 1.9022                 3.6752

                     25                     26                     27
                      A                      A                      A
 Frequencies --    571.9531               627.1807               665.0193
 Red. masses --      3.8500                 6.4608                 3.4661
 Frc consts  --      0.7421                 1.4973                 0.9031
 IR Inten    --      1.1331                 2.3263                16.7512

                     28                     29                     30
                      A                      A                      A
 Frequencies --    695.1626               701.2367               737.6713
 Red. masses --      5.0910                 3.5851                 2.4520
 Frc consts  --      1.4495                 1.0387                 0.7861
 IR Inten    --      6.0468                 1.2883                 4.6980

                     31                     32                     33
                      A                      A                      A
 Frequencies --    766.5630               774.3631               794.9727
 Red. masses --      4.4813                 1.6963                 8.1268
 Frc consts  --      1.5515                 0.5993                 3.0260
 IR Inten    --      0.1545               132.3863                17.3277

                     34                     35                     36
                      A                      A                      A
 Frequencies --    832.5438               833.1605               841.4976
 Red. masses --      1.2373                 1.2813                 1.8189
 Frc consts  --      0.5053                 0.5240                 0.7588
 IR Inten    --      9.4256                15.1706                11.2571

                     37                     38                     39
                      A                      A                      A
 Frequencies --    865.2200               889.1501               930.3389
 Red. masses --      6.5333                 1.7707                 1.3575
 Frc consts  --      2.8816                 0.8248                 0.6923
 IR Inten    --      4.7974                12.4664                 3.2431

                     40                     41                     42
                      A                      A                      A
 Frequencies --    944.6666               966.8407               987.4886
 Red. masses --      1.3276                 3.8868                 1.5453
 Frc consts  --      0.6980                 2.1407                 0.8878
 IR Inten    --      1.2271                 0.8458                 6.7130

                     43                     44                     45
                      A                      A                      A
 Frequencies --   1028.2215              1028.9744              1046.2403
 Red. masses --      1.4901                 1.6138                 2.8987
 Frc consts  --      0.9282                 1.0067                 1.8695
 IR Inten    --     14.9449                 5.8889                 1.8820

                     46                     47                     48
                      A                      A                      A
 Frequencies --   1061.3321              1085.6425              1111.6934
 Red. masses --      1.4366                 1.5995                 2.0875
 Frc consts  --      0.9534                 1.1107                 1.5200
 IR Inten    --      6.8042                 0.0234                 9.1668

                     49                     50                     51
                      A                      A                      A
 Frequencies --   1123.3482              1140.2855              1159.9150
 Red. masses --      2.2766                 2.7627                 2.2071
 Frc consts  --      1.6926                 2.1165                 1.7496
 IR Inten    --      6.1465                58.6094                14.9464

                     52                     53                     54
                      A                      A                      A
 Frequencies --   1171.6937              1182.5056              1214.2691
 Red. masses --      2.1458                 1.6046                 2.0137
 Frc consts  --      1.7357                 1.3220                 1.7493
 IR Inten    --      8.4980                 4.4668                 0.4319

                     55                     56                     57
                      A                      A                      A
 Frequencies --   1254.7574              1271.6742              1301.9113
 Red. masses --      1.9521                 2.2714                 1.3736
 Frc consts  --      1.8108                 2.1642                 1.3717
 IR Inten    --      1.7194                 1.2401                10.1582

                     58                     59                     60
                      A                      A                      A
 Frequencies --   1326.4719              1341.4244              1353.8731
 Red. masses --      1.4047                 1.4940                 3.7334
 Frc consts  --      1.4562                 1.5839                 4.0319
 IR Inten    --      3.0967                22.7152                 0.7027

                     61                     62                     63
                      A                      A                      A
 Frequencies --   1376.1313              1399.0694              1414.3592
 Red. masses --      1.2845                 3.0558                 1.2762
 Frc consts  --      1.4332                 3.5242                 1.5041
 IR Inten    --     11.8722                55.1174                 2.9329

                     64                     65                     66
                      A                      A                      A
 Frequencies --   1438.1575              1443.0444              1444.9914
 Red. masses --      1.4429                 1.3203                 3.9890
 Frc consts  --      1.7583                 1.6199                 4.9073
 IR Inten    --      4.6779                 6.1074                12.1533

                     67                     68                     69
                      A                      A                      A
 Frequencies --   1450.4977              1478.1229              1499.6127
 Red. masses --      1.2435                 3.0173                 1.0827
 Frc consts  --      1.5414                 3.8841                 1.4346
 IR Inten    --      0.2006                36.9522                 0.7743

                     70                     71                     72
                      A                      A                      A
 Frequencies --   1506.7684              1511.2685              1521.4985
 Red. masses --      1.0454                 1.1298                 1.2319
 Frc consts  --      1.3983                 1.5203                 1.6802
 IR Inten    --      0.0366                16.5244                19.4786

                     73                     74                     75
                      A                      A                      A
 Frequencies --   1522.4721              1524.1663              1527.7819
 Red. masses --      1.0449                 1.1530                 1.0656
 Frc consts  --      1.4270                 1.5782                 1.4654
 IR Inten    --     14.4664                 0.1174                17.5304

                     76                     77                     78
                      A                      A                      A
 Frequencies --   1531.6697              1554.1983              1556.6791
 Red. masses --      1.0913                 1.0893                 2.5626
 Frc consts  --      1.5085                 1.5503                 3.6587
 IR Inten    --      3.5215                 3.8317                20.7379

                     79                     80                     81
                      A                      A                      A
 Frequencies --   1584.4452              1632.5834              1675.3918
 Red. masses --      6.3056                 5.8177                 5.9126
 Frc consts  --      9.3268                 9.1359                 9.7782
 IR Inten    --     44.2013                 2.0256                 2.8542

                     82                     83                     84
                      A                      A                      A
 Frequencies --   2971.1383              3037.3103              3038.7308
 Red. masses --      1.0707                 1.0389                 1.0384
 Frc consts  --      5.5691                 5.6470                 5.6495
 IR Inten    --     51.4617                14.8206                63.3495

                     85                     86                     87
                      A                      A                      A
 Frequencies --   3047.4596              3053.1572              3054.9674
 Red. masses --      1.0526                 1.0681                 1.0647
 Frc consts  --      5.7595                 5.8664                 5.8544
 IR Inten    --     19.2130                13.6595                57.8105

                     88                     89                     90
                      A                      A                      A
 Frequencies --   3084.0630              3085.6463              3097.0451
 Red. masses --      1.1001                 1.1001                 1.1058
 Frc consts  --      6.1648                 6.1712                 6.2492
 IR Inten    --     38.5490                 2.9406                16.2173

                     91                     92                     93
                      A                      A                      A
 Frequencies --   3114.0096              3127.3950              3132.8186
 Red. masses --      1.0993                 1.0999                 1.0994
 Frc consts  --      6.2808                 6.3383                 6.3576
 IR Inten    --     45.0806                23.6855                12.5041

                     94                     95                     96
                      A                      A                      A
 Frequencies --   3135.3983              3179.0805              3206.8774
 Red. masses --      1.1035                 1.0881                 1.0927
 Frc consts  --      6.3914                 6.4791                 6.6207
 IR Inten    --     25.6840                23.7068                15.4859

                     97                     98                     99
                      A                      A                      A
 Frequencies --   3214.4076              3234.2547              3482.0200
 Red. masses --      1.0902                 1.0925                 1.0737
 Frc consts  --      6.6368                 6.7331                 7.6698
 IR Inten    --      1.4191                 5.4556                 0.6882

 - Thermochemistry -
 -------------------
 Temperature   298.150 Kelvin.  Pressure   1.00000 Atm.
 Atom     1 has atomic number  6 and mass  12.00000

 Molecular mass:   246.11907 amu.
 Principal axes and moments of inertia in atomic units:
                           1         2         3
     Eigenvalues --  1565.46005********************
           X            0.99997   0.00580  -0.00418
           Y           -0.00570   0.99971   0.02345
           Z            0.00431  -0.02343   0.99972
 This molecule is an asymmetric top.
 Rotational symmetry number  1.
 Warning -- assumption of classical behavior for rotation
           may cause significant error
 Rotational temperatures (Kelvin)      0.05533     0.00765     0.00720
 Rotational constants (GHZ):           1.15285     0.15942     0.15004
 Zero-point vibrational energy     775394.8 (Joules/Mol)
                                  185.32381 (Kcal/Mol)
 Warning -- explicit consideration of  25 degrees of freedom as
           vibrations may cause significant error
 Vibrational temperatures:     12.39    23.85    89.49    99.57   116.92
          (Kelvin)            167.11   198.29   206.58   246.22   254.98
                              296.72   339.44   373.15   390.45   439.14
                              448.97   468.98   496.88   538.75   649.37
                              678.44   703.11   771.29   792.24   822.91
                              902.37   956.81  1000.18  1008.92  1061.34
                             1102.91  1114.14  1143.79  1197.84  1198.73
                             1210.73  1244.86  1279.29  1338.55  1359.16
                             1391.07  1420.78  1479.38  1480.46  1505.31
                             1527.02  1562.00  1599.48  1616.25  1640.62
                             1668.86  1685.81  1701.36  1747.06  1805.32
                             1829.66  1873.16  1908.50  1930.01  1947.92
                             1979.95  2012.95  2034.95  2069.19  2076.22
                             2079.02  2086.94  2126.69  2157.61  2167.90
                             2174.38  2189.10  2190.50  2192.94  2198.14
                             2203.73  2236.14  2239.71  2279.66  2348.92
                             2410.52  4274.81  4370.01  4372.06  4384.61
                             4392.81  4395.42  4437.28  4439.56  4455.96
                             4480.37  4499.62  4507.43  4511.14  4573.99
                             4613.98  4624.82  4653.37  5009.85

 Zero-point correction=                           0.295332 (Hartree/Particle)
 Thermal correction to Energy=                    0.312618
 Thermal correction to Enthalpy=                  0.313562
 Thermal correction to Gibbs Free Energy=         0.247326
 Sum of electronic and zero-point Energies=          -1051.796180
 Sum of electronic and thermal Energies=             -1051.778895
 Sum of electronic and thermal Enthalpies=           -1051.777950
 Sum of electronic and thermal Free Energies=        -1051.844187

                     E (Thermal)             CV                S
                      KCal/Mol        Cal/Mol-Kelvin    Cal/Mol-Kelvin
 Total                  196.171             64.485            139.406
 Electronic               0.000              0.000              0.000
 Translational            0.889              2.981             42.403
 Rotational               0.889              2.981             33.721
 Vibrational            194.393             58.524             63.282
 Vibration     1          0.593              1.987              8.307
 Vibration     2          0.593              1.986              7.007
 Vibration     3          0.597              1.972              4.386
 Vibration     4          0.598              1.969              4.176
 Vibration     5          0.600              1.962              3.860
 Vibration     6          0.608              1.936              3.163
 Vibration     7          0.614              1.916              2.834
 Vibration     8          0.616              1.910              2.756
 Vibration     9          0.626              1.878              2.423
 Vibration    10          0.628              1.870              2.357
 Vibration    11          0.641              1.831              2.077
 Vibration    12          0.655              1.786              1.833
 Vibration    13          0.668              1.747              1.666
 Vibration    14          0.675              1.726              1.587
 Vibration    15          0.696              1.664              1.388
 Vibration    16          0.700              1.651              1.351
 Vibration    17          0.710              1.624              1.280
 Vibration    18          0.724              1.585              1.187
 Vibration    19          0.746              1.525              1.062
 Vibration    20          0.810              1.358              0.792
 Vibration    21          0.828              1.313              0.733
 Vibration    22          0.845              1.275              0.687
 Vibration    23          0.891              1.170              0.574
 Vibration    24          0.906              1.138              0.543
 Vibration    25          0.928              1.092              0.500

 Optimization completed.
    -- Stationary point found.
 Normal termination of Gaussian 16 at Sun Dec 13 20:29:00 2020.

 ----------------------------------------------------------------------
 # B3LYP/6-311++G(d,p) empiricaldispersion=gd3bj scf=xqc pop=npa geom=c
 heck
 ----------------------------------------------------------------------

 --------------------------------------
 CID_65814897_JID_7647_Energie_neutraal
 --------------------------------------
 Structure from the checkpoint file:  "JID_7647.chk"
 Charge =  0 Multiplicity = 1

 SCF Done:  E(RB3LYP) =  -1052.28989509     A.U. after   16 cycles
 Normal termination of Gaussian 16 at Sun Dec 13 20:35:23 2020.

 ----------------------------------------------------------------------
 # B3LYP/6-311++G(d,p) empiricaldispersion=gd3bj scf=xqc pop=npa geom=c
 heck
 ----------------------------------------------------------------------

 ------------------------------------
 CID_65814897_JID_7647_Energie_kation
 ------------------------------------
 Structure from the checkpoint file:  "JID_7647.chk"
 Charge =  1 Multiplicity = 2

 SCF Done:  E(UB3LYP) =  -1052.00754733     A.U. after   27 cycles
 Normal termination of Gaussian 16 at Sun Dec 13 20:50:38 2020.
 Gaussian 16:  ES64L-G16RevA.03 25-Dec-2016

 ----------------------------------------------------------------------
 # B3LYP/6-311++G(d,p) empiricaldispersion=gd3bj scf=xqc pop=npa geom=c
 heck
 ----------------------------------------------------------------------

 -----------------------------------
 CID_65814897_JID_7647_Energie_anion
 -----------------------------------
 Structure from the checkpoint file:  "JID_7647.chk"
 Charge = -1 Multiplicity = 2

                         Standard orientation:
 ---------------------------------------------------------------------
 Center     Atomic      Atomic             Coordinates (Angstroms)
 Number     Number       Type             X           Y           Z
 ---------------------------------------------------------------------
      1          6           0       -5.838330   -0.315698    1.801436
      2          6           0       -4.947036    0.089619    0.631623
      3          7           0       -4.334322   -1.092098    0.025373
      4          6           0       -3.482334   -0.826127   -1.134461
      5          6           0       -2.160856   -0.157026   -0.837815
      6          6           0       -0.934445   -0.755332   -0.707664
      7          6           0        0.092873    0.187378   -0.368117
      8          7           0       -0.310500    1.445976   -0.244014
      9         16           0       -1.958445    1.540683   -0.530695
     10          6           0        1.517759   -0.139525   -0.162781
     11          6           0        2.447504    0.885694    0.069879
     12          6           0        3.800414    0.622515    0.269840
     13          6           0        4.257464   -0.713037    0.239149
     14          6           0        3.331415   -1.733042    0.008931
     15          6           0        1.980332   -1.460021   -0.189755
     16          6           0        5.714633   -1.035301    0.450271
     17          6           0        4.763716    1.757297    0.515016
     18          1           0       -6.600841   -1.029561    1.474655
     19          1           0       -6.334825    0.560133    2.232283
     20          1           0       -5.249358   -0.788029    2.597654
     21          1           0       -5.551535    0.577515   -0.144687
     22          1           0       -4.210253    0.837676    0.973667
     23          1           0       -3.788549   -1.586653    0.730283
     24          1           0       -3.268208   -1.781221   -1.627809
     25          1           0       -4.065080   -0.226706   -1.843545
     26          1           0       -0.775134   -1.815247   -0.864184
     27          1           0        2.087819    1.909205    0.091176
     28          1           0        3.675569   -2.764173   -0.013959
     29          1           0        1.293691   -2.283168   -0.359103
     30          1           0        6.348846   -0.551798   -0.303945
     31          1           0        6.068651   -0.684568    1.428255
     32          1           0        5.892736   -2.113280    0.396375
     33          1           0        4.245915    2.720384    0.506767
     34          1           0        5.269929    1.655485    1.483559
     35          1           0        5.550866    1.791562   -0.249143
 ---------------------------------------------------------------------

 SCF Done:  E(UB3LYP) =  -1052.29080793     A.U. after   33 cycles
 SCF Done:  E(UB3LYP) =  -1052.29080793     a.u. after    1 cycles

 The electronic state is 2-A.
 Alpha  occ. eigenvalues --  -88.73751 -14.19333 -14.15406 -10.09180 -10.09049
 Alpha  occ. eigenvalues --  -10.06914 -10.06466 -10.06304 -10.05875 -10.05604
 Alpha  occ. eigenvalues --  -10.05516 -10.04630 -10.04422 -10.04116 -10.04050
 Alpha  occ. eigenvalues --  -10.03909 -10.02939  -7.82247  -5.78628  -5.78161
 Alpha  occ. eigenvalues --   -5.77820  -0.80992  -0.79858  -0.73519  -0.67180
 Alpha  occ. eigenvalues --   -0.66284  -0.64525  -0.63355  -0.60628  -0.57778
 Alpha  occ. eigenvalues --   -0.55587  -0.55164  -0.50822  -0.47736  -0.46210
 Alpha  occ. eigenvalues --   -0.42517  -0.41024  -0.38919  -0.36997  -0.35752
 Alpha  occ. eigenvalues --   -0.34903  -0.34655  -0.33432  -0.32922  -0.31891
 Alpha  occ. eigenvalues --   -0.29763  -0.29652  -0.29208  -0.29067  -0.27910
 Alpha  occ. eigenvalues --   -0.27525  -0.26805  -0.26578  -0.26119  -0.25419
 Alpha  occ. eigenvalues --   -0.25190  -0.22561  -0.22214  -0.21236  -0.19885
 Alpha  occ. eigenvalues --   -0.14974  -0.14335  -0.13320  -0.12429  -0.11503
 Alpha  occ. eigenvalues --   -0.09140   0.04671
 Alpha virt. eigenvalues --    0.06771   0.06997   0.08408   0.08554   0.08901
 Alpha virt. eigenvalues --    0.09736   0.10263   0.10377   0.10741   0.11146
 Alpha virt. eigenvalues --    0.11652   0.11905   0.12198   0.12439   0.13219

  Beta  occ. eigenvalues --  -88.73690 -14.19300 -14.14819 -10.09188 -10.09042
  Beta  occ. eigenvalues --  -10.06902 -10.06483 -10.06301 -10.05654 -10.05579
  Beta  occ. eigenvalues --  -10.05505 -10.04446 -10.04390 -10.04071 -10.03978
  Beta  occ. eigenvalues --  -10.03967 -10.02809  -7.82193  -5.78604  -5.78138
  Beta  occ. eigenvalues --   -5.77611  -0.80642  -0.79492  -0.73321  -0.66926
  Beta  occ. eigenvalues --   -0.66083  -0.64402  -0.63075  -0.60394  -0.57640
  Beta  occ. eigenvalues --   -0.55502  -0.54976  -0.50775  -0.47495  -0.45959
  Beta  occ. eigenvalues --   -0.42192  -0.40855  -0.38838  -0.36912  -0.35668
  Beta  occ. eigenvalues --   -0.34780  -0.34590  -0.33291  -0.32782  -0.31801
  Beta  occ. eigenvalues --   -0.29700  -0.29574  -0.29126  -0.28904  -0.27871
  Beta  occ. eigenvalues --   -0.27425  -0.26484  -0.26340  -0.25548  -0.25267
  Beta  occ. eigenvalues --   -0.25057  -0.22106  -0.21911  -0.21161  -0.19602
  Beta  occ. eigenvalues --   -0.13994  -0.13707  -0.12492  -0.12007  -0.10631
  Beta  occ. eigenvalues --   -0.07822
  Beta virt. eigenvalues --    0.06768   0.06949   0.08336   0.08585   0.08864
  Beta virt. eigenvalues --    0.09564   0.09815   0.10350   0.10534   0.11022
  Beta virt. eigenvalues --    0.11259   0.11635   0.11876   0.12416   0.13011

 Mulliken charges and spin densities:
               1          2
     1  C   -0.145145  -0.405888
     2  C   -0.211293  -0.028233
     3  N    0.050607  -0.019504
     4  C   -0.331290  -0.254105
     5  C    0.042653   0.360062
     6  C   -0.064654  -0.151998
     7  C   -0.702625  -0.051718
     8  N    0.089060   0.276216
     9  S    0.136397   0.240630
    10  C    1.184390   0.007737
    11  C   -0.493655   0.137763
    12  C    0.065033  -0.029390
    13  C    0.660257   0.111689
    14  C   -0.917969   0.036978
    15  C   -0.870009   0.017515
    16  C   -0.599072  -0.017121
    17  C   -0.496136   0.004833
    18  H    0.002717   0.148043
    19  H    0.031430   0.085420
    20  H    0.063836   0.057751
    21  H   -0.009476   0.156565
    22  H    0.185803  -0.080547
    23  H    0.163347   0.027528
    24  H    0.071014   0.100912
    25  H   -0.065776   0.226786
    26  H    0.107357   0.023677
    27  H    0.162109  -0.010809
    28  H    0.101605  -0.000342
    29  H    0.022148   0.004646
    30  H    0.125464   0.008784
    31  H    0.116573   0.018286
    32  H    0.124962   0.002078
    33  H    0.153158  -0.000596
    34  H    0.123797  -0.001909
    35  H    0.123383  -0.001737
 Sum of Mulliken charges =  -1.00000   1.00000

 Dipole moment (field-independent basis, Debye):
    X=              2.4303    Y=             -1.5167    Z=              1.0713  Tot=              3.0585
 Quadrupole moment (field-independent basis, Debye-Ang):
   XX=           -181.4679   YY=           -127.9718   ZZ=           -125.9290
   XY=             -1.7972   XZ=             -2.1679   YZ=              1.6957

 Summary of Natural Population Analysis:

                                       Natural Population
                Natural  -----------------------------------------------
    Atom  No    Charge         Core      Valence    Rydberg      Total
 -----------------------------------------------------------------------
      C    1   -0.28670      0.99967     2.28236    0.00467     3.28670
      C    2   -0.09389      0.99964     2.08325    0.01101     3.09389
      N    3   -0.33692      0.99975     2.82394    0.01322     3.83692
      C    4   -0.11736      0.99961     2.09799    0.01976     3.11736
      C    5   -0.03922      0.99950     2.02817    0.01155     3.03922
      C    6   -0.17578      0.99948     2.16190    0.01440     3.17578
      C    7    0.08844      0.99955     1.89518    0.01683     2.91156
      N    8   -0.23676      0.99970     2.72296    0.01410     3.73676
      S    9    0.28726      4.99941     2.68168    0.03165     7.71274
      C   10   -0.01508      0.99948     2.00658    0.00902     3.01508
      C   11   -0.06088      0.99949     2.05240    0.00898     3.06088
      C   12   -0.03899      0.99950     2.03091    0.00859     3.03899
      C   13    0.01206      0.99937     1.97908    0.00949     2.98794
      C   14   -0.11258      0.99955     2.10284    0.01019     3.11258
      C   15   -0.08886      0.99954     2.08146    0.00786     3.08886
      C   16   -0.28517      0.99966     2.28215    0.00336     3.28517
      C   17   -0.28748      0.99959     2.28262    0.00527     3.28748
      H   18    0.09786      0.00000     0.40031    0.00182     0.40214
      H   19    0.09634      0.00000     0.40278    0.00088     0.40366
      H   20    0.09329      0.00000     0.40550    0.00121     0.40671
      H   21    0.08701      0.00000     0.41139    0.00159     0.41299
      H   22    0.08610      0.00000     0.41133    0.00257     0.41390
      H   23    0.16915      0.00000     0.32781    0.00304     0.33085
      H   24    0.09756      0.00000     0.40120    0.00124     0.40244
      H   25    0.09662      0.00000     0.40167    0.00171     0.40338
      H   26    0.09976      0.00000     0.39853    0.00171     0.40024
      H   27    0.10606      0.00000     0.39266    0.00128     0.39394
      H   28    0.08839      0.00000     0.40982    0.00179     0.41161
      H   29    0.09242      0.00000     0.40613    0.00145     0.40758
      H   30    0.09627      0.00000     0.40261    0.00112     0.40373
      H   31    0.09651      0.00000     0.40237    0.00112     0.40349
      H   32    0.09533      0.00000     0.40380    0.00088     0.40467
      H   33    0.10288      0.00000     0.39664    0.00048     0.39712
      H   34    0.09489      0.00000     0.40355    0.00155     0.40511
      H   35    0.09471      0.00000     0.40373    0.00156     0.40529
 =======================================================================
   * Total *    0.00324     20.99248    44.77731    0.22697    65.99676

 Normal termination of Gaussian 16 at Sun Dec 13 21:09:13 2020.
