 Gaussian 16, Revision A.03,

 -----------------------------------------------------------
 # opt freq B3LYP/6-31G(d) empiricaldispersion=gd3bj scf=xqc
 -----------------------------------------------------------

 ------------------------------
 CID_63625305_JID_7729_neutraal
 ------------------------------
 Symbolic Z-matrix:
 Charge =  0 Multiplicity = 1

 SCF Done:  E(RB3LYP) =  -763.619964721     A.U. after   15 cycles
 SCF Done:  E(RB3LYP) =  -763.627197691     A.U. after   12 cycles
 SCF Done:  E(RB3LYP) =  -763.625736270     A.U. after   13 cycles
 SCF Done:  E(RB3LYP) =  -763.629057561     A.U. after   12 cycles
 SCF Done:  E(RB3LYP) =  -763.629385399     A.U. after   12 cycles
 SCF Done:  E(RB3LYP) =  -763.629798830     A.U. after   12 cycles
 SCF Done:  E(RB3LYP) =  -763.629896853     A.U. after   11 cycles
 SCF Done:  E(RB3LYP) =  -763.629947814     A.U. after   11 cycles
 SCF Done:  E(RB3LYP) =  -763.629963659     A.U. after   10 cycles
 SCF Done:  E(RB3LYP) =  -763.629973997     A.U. after   10 cycles
 SCF Done:  E(RB3LYP) =  -763.629975528     A.U. after    8 cycles
 SCF Done:  E(RB3LYP) =  -763.629976733     A.U. after    8 cycles
 SCF Done:  E(RB3LYP) =  -763.629977314     A.U. after    8 cycles
 SCF Done:  E(RB3LYP) =  -763.629977440     A.U. after    7 cycles
 Optimization completed.
    -- Stationary point found.
 Normal termination of Gaussian 16 at Sun Dec 13 20:12:07 2020.

 --------------------------------------------------------------------
 #N Geom=AllCheck Guess=TCheck SCRF=Check GenChk RB3LYP/6-31G(d) Freq
 --------------------------------------------------------------------

 Structure from the checkpoint file:  "JID_7729.chk"
 ------------------------------
 CID_63625305_JID_7729_neutraal
 ------------------------------
 Charge =  0 Multiplicity = 1

 SCF Done:  E(RB3LYP) =  -763.629977440     A.U. after    1 cycles

  Exact polarizability: 185.516   2.544 150.288  11.512  -9.296 118.493
 Approx polarizability: 235.982   7.918 248.685  23.675 -21.666 176.937

                      1                      2                      3
                      A                      A                      A
 Frequencies --     32.1975                55.5636                69.2664
 Red. masses --      3.8294                 3.7129                 4.6243
 Frc consts  --      0.0023                 0.0068                 0.0131
 IR Inten    --      0.3963                 0.5552                 0.8568

                      4                      5                      6
                      A                      A                      A
 Frequencies --    107.9920               131.0098               148.2484
 Red. masses --      5.7025                 2.4048                 2.2689
 Frc consts  --      0.0392                 0.0243                 0.0294
 IR Inten    --      1.4437                 0.0979                 1.1462

                      7                      8                      9
                      A                      A                      A
 Frequencies --    159.4560               173.8218               209.1664
 Red. masses --      2.3820                 1.4335                 3.6896
 Frc consts  --      0.0357                 0.0255                 0.0951
 IR Inten    --      2.0534                 1.3545                 0.8424

                     10                     11                     12
                      A                      A                      A
 Frequencies --    231.1763               236.6243               245.2131
 Red. masses --      1.6324                 2.3727                 2.3718
 Frc consts  --      0.0514                 0.0783                 0.0840
 IR Inten    --      5.7813                 0.5460                10.5057

                     13                     14                     15
                      A                      A                      A
 Frequencies --    296.9442               301.2070               317.2233
 Red. masses --      2.4648                 2.4430                 2.2064
 Frc consts  --      0.1281                 0.1306                 0.1308
 IR Inten    --      3.8585                 0.7550                 2.2980

                     16                     17                     18
                      A                      A                      A
 Frequencies --    332.8632               352.9155               380.5466
 Red. masses --      3.9519                 3.0011                 3.1556
 Frc consts  --      0.2580                 0.2202                 0.2692
 IR Inten    --     10.0700                 1.7346                 2.9290

                     19                     20                     21
                      A                      A                      A
 Frequencies --    400.5383               413.4186               422.5563
 Red. masses --      1.5273                 2.2468                 1.6232
 Frc consts  --      0.1444                 0.2263                 0.1708
 IR Inten    --     38.3166                 3.2782                55.8689

                     22                     23                     24
                      A                      A                      A
 Frequencies --    426.4798               459.0756               486.9861
 Red. masses --      2.4404                 2.4693                 2.1048
 Frc consts  --      0.2615                 0.3066                 0.2941
 IR Inten    --      1.9623                14.8540                 5.7768

                     25                     26                     27
                      A                      A                      A
 Frequencies --    544.2213               576.0205               622.5386
 Red. masses --      2.7339                 2.8767                 4.7769
 Frc consts  --      0.4771                 0.5624                 1.0908
 IR Inten    --      9.3489                11.1185                 5.4036

                     28                     29                     30
                      A                      A                      A
 Frequencies --    639.9713               678.8484               692.8149
 Red. masses --      2.7644                 2.8269                 3.1335
 Frc consts  --      0.6671                 0.7676                 0.8862
 IR Inten    --     22.7326                51.6348                63.4367

                     31                     32                     33
                      A                      A                      A
 Frequencies --    744.0049               763.0058               785.7466
 Red. masses --      2.9655                 2.6790                 6.8961
 Frc consts  --      0.9672                 0.9189                 2.5085
 IR Inten    --     72.4556                 6.9612                54.5224

                     34                     35                     36
                      A                      A                      A
 Frequencies --    825.5544               851.8490               859.9559
 Red. masses --      3.4691                 2.8221                 1.4523
 Frc consts  --      1.3930                 1.2066                 0.6328
 IR Inten    --     61.8814                11.5974                 1.2312

                     37                     38                     39
                      A                      A                      A
 Frequencies --    890.3741               942.0555               955.3262
 Red. masses --      2.3322                 1.6876                 2.1125
 Frc consts  --      1.0893                 0.8824                 1.1359
 IR Inten    --      0.9030                 2.9185                 0.8307

                     40                     41                     42
                      A                      A                      A
 Frequencies --    982.0146               999.5618              1011.8354
 Red. masses --      1.7288                 1.5680                 1.5538
 Frc consts  --      0.9823                 0.9230                 0.9373
 IR Inten    --     17.2754                46.8915                 1.7627

                     43                     44                     45
                      A                      A                      A
 Frequencies --   1036.1960              1055.4817              1065.6898
 Red. masses --      1.7309                 2.7582                 3.0350
 Frc consts  --      1.0950                 1.8104                 2.0308
 IR Inten    --      9.0187                 2.2294                17.9061

                     46                     47                     48
                      A                      A                      A
 Frequencies --   1077.1558              1091.1806              1105.9707
 Red. masses --      1.6078                 2.6595                 2.1025
 Frc consts  --      1.0991                 1.8657                 1.5152
 IR Inten    --      4.3068                 1.3716                 7.8623

                     49                     50                     51
                      A                      A                      A
 Frequencies --   1126.4961              1151.4166              1170.8825
 Red. masses --      2.3427                 1.8813                 1.8267
 Frc consts  --      1.7516                 1.4695                 1.4755
 IR Inten    --      7.4940                10.3018                38.0431

                     52                     53                     54
                      A                      A                      A
 Frequencies --   1195.1907              1203.4526              1221.2551
 Red. masses --      1.7188                 2.9062                 2.5071
 Frc consts  --      1.4466                 2.4799                 2.2031
 IR Inten    --     22.2105                 1.2325                50.2514

                     55                     56                     57
                      A                      A                      A
 Frequencies --   1249.4356              1270.4511              1315.9365
 Red. masses --      1.8751                 1.4726                 1.3259
 Frc consts  --      1.7247                 1.4004                 1.3528
 IR Inten    --     17.3245                 7.0598                17.8932

                     58                     59                     60
                      A                      A                      A
 Frequencies --   1320.0819              1330.0434              1336.5541
 Red. masses --      1.5623                 1.3658                 1.5324
 Frc consts  --      1.6040                 1.4235                 1.6129
 IR Inten    --     33.3386                16.1882                30.5979

                     61                     62                     63
                      A                      A                      A
 Frequencies --   1356.3933              1370.8909              1395.9244
 Red. masses --      1.3499                 1.2883                 1.3761
 Frc consts  --      1.4633                 1.4265                 1.5799
 IR Inten    --     19.1204                 4.6750                 4.7860

                     64                     65                     66
                      A                      A                      A
 Frequencies --   1411.4227              1415.8361              1426.4512
 Red. masses --      1.4937                 1.4451                 1.6307
 Frc consts  --      1.7532                 1.7068                 1.9549
 IR Inten    --      8.6912                 3.3091                10.1666

                     67                     68                     69
                      A                      A                      A
 Frequencies --   1433.4654              1441.6442              1442.2935
 Red. masses --      1.6272                 1.3376                 1.2677
 Frc consts  --      1.9700                 1.6379                 1.5537
 IR Inten    --     14.4973                 5.5233                 3.1463

                     70                     71                     72
                      A                      A                      A
 Frequencies --   1448.0341              1470.0476              1505.2137
 Red. masses --      1.9098                 2.8069                 1.1652
 Frc consts  --      2.3594                 3.5738                 1.5554
 IR Inten    --     84.7530                96.8456                31.7879

                     73                     74                     75
                      A                      A                      A
 Frequencies --   1505.8086              1513.3109              1517.3813
 Red. masses --      1.3504                 1.1147                 1.1149
 Frc consts  --      1.8040                 1.5040                 1.5125
 IR Inten    --     91.9955                 6.8728                54.4994

                     76                     77                     78
                      A                      A                      A
 Frequencies --   1519.8685              1528.7406              1531.6498
 Red. masses --      1.1255                 1.0451                 1.0625
 Frc consts  --      1.5318                 1.4391                 1.4685
 IR Inten    --      7.0897                 5.8760                 1.4599

                     79                     80                     81
                      A                      A                      A
 Frequencies --   1534.5729              1539.1609              1541.7675
 Red. masses --      1.7636                 1.1474                 1.0956
 Frc consts  --      2.4469                 1.6015                 1.5344
 IR Inten    --     86.8017                 4.3089                 0.9352

                     82                     83                     84
                      A                      A                      A
 Frequencies --   1565.5325              1622.4306              1671.4022
 Red. masses --      3.3783                 3.9285                 1.7793
 Frc consts  --      4.8783                 6.0927                 2.9285
 IR Inten    --     10.4443               109.3976               313.4269

                     85                     86                     87
                      A                      A                      A
 Frequencies --   1705.4524              2992.2458              3018.3437
 Red. masses --      5.0003                 1.0823                 1.0642
 Frc consts  --      8.5690                 5.7095                 5.7122
 IR Inten    --    182.1530                12.1294                15.1787

                     88                     89                     90
                      A                      A                      A
 Frequencies --   3023.9954              3028.0035              3036.5226
 Red. masses --      1.0720                 1.0731                 1.0535
 Frc consts  --      5.7759                 5.7970                 5.7232
 IR Inten    --     37.4502                11.2661                 7.7319

                     91                     92                     93
                      A                      A                      A
 Frequencies --   3042.2604              3042.6152              3048.5761
 Red. masses --      1.0566                 1.0525                 1.0411
 Frc consts  --      5.7617                 5.7407                 5.7006
 IR Inten    --      4.2293                70.0368                32.1047

                     94                     95                     96
                      A                      A                      A
 Frequencies --   3064.7557              3077.0817              3081.2360
 Red. masses --      1.0954                 1.1027                 1.1025
 Frc consts  --      6.0620                 6.1517                 6.1669
 IR Inten    --     50.1682                16.7876                62.7499

                     97                     98                     99
                      A                      A                      A
 Frequencies --   3103.6829              3105.5698              3112.0401
 Red. masses --      1.0991                 1.1014                 1.1026
 Frc consts  --      6.2378                 6.2584                 6.2913
 IR Inten    --     19.3144                50.2752                36.5582

                    100                    101                    102
                      A                      A                      A
 Frequencies --   3114.7825              3146.3637              3154.4313
 Red. masses --      1.0906                 1.0997                 1.0897
 Frc consts  --      6.2341                 6.4141                 6.3884
 IR Inten    --     20.3231                 7.8225                 7.4597

                    103                    104                    105
                      A                      A                      A
 Frequencies --   3526.3533              3639.5246              3669.5577
 Red. masses --      1.0483                 1.0972                 1.0810
 Frc consts  --      7.6808                 8.5633                 8.5761
 IR Inten    --     29.0429                39.1563                82.6566

 - Thermochemistry -
 -------------------
 Temperature   298.150 Kelvin.  Pressure   1.00000 Atm.
 Atom     1 has atomic number  6 and mass  12.00000

 Molecular mass:   236.16371 amu.
 Principal axes and moments of inertia in atomic units:
                           1         2         3
     Eigenvalues --  2042.982437009.518197500.61842
           X            0.99996  -0.00133  -0.00893
           Y            0.00110   0.99965  -0.02654
           Z            0.00896   0.02653   0.99961
 This molecule is an asymmetric top.
 Rotational symmetry number  1.
 Warning -- assumption of classical behavior for rotation
           may cause significant error
 Rotational temperatures (Kelvin)      0.04240     0.01236     0.01155
 Rotational constants (GHZ):           0.88339     0.25747     0.24061
 Zero-point vibrational energy     852469.1 (Joules/Mol)
                                  203.74500 (Kcal/Mol)
 Warning -- explicit consideration of  26 degrees of freedom as
           vibrations may cause significant error
 Vibrational temperatures:     46.33    79.94    99.66   155.38   188.49
          (Kelvin)            213.30   229.42   250.09   300.94   332.61
                              340.45   352.81   427.24   433.37   456.41
                              478.92   507.77   547.52   576.29   594.82
                              607.96   613.61   660.51   700.66   783.01
                              828.77   895.69   920.78   976.71   996.81
                             1070.46  1097.80  1130.51  1187.79  1225.62
                             1237.28  1281.05  1355.41  1374.50  1412.90
                             1438.15  1455.81  1490.85  1518.60  1533.29
                             1549.79  1569.97  1591.25  1620.78  1656.63
                             1684.64  1719.61  1731.50  1757.11  1797.66
                             1827.90  1893.34  1899.30  1913.64  1923.00
                             1951.55  1972.41  2008.42  2030.72  2037.07
                             2052.35  2062.44  2074.20  2075.14  2083.40
                             2115.07  2165.67  2166.52  2177.32  2183.17
                             2186.75  2199.52  2203.70  2207.91  2214.51
                             2218.26  2252.45  2334.32  2404.77  2453.77
                             4305.17  4342.72  4350.85  4356.62  4368.88
                             4377.13  4377.64  4386.22  4409.50  4427.23
                             4433.21  4465.51  4468.22  4477.53  4481.48
                             4526.92  4538.52  5073.64  5236.46  5279.68

 Zero-point correction=                           0.324688 (Hartree/Particle)
 Thermal correction to Energy=                    0.341414
 Thermal correction to Enthalpy=                  0.342358
 Thermal correction to Gibbs Free Energy=         0.280855
 Sum of electronic and zero-point Energies=           -763.305289
 Sum of electronic and thermal Energies=              -763.288564
 Sum of electronic and thermal Enthalpies=            -763.287620
 Sum of electronic and thermal Free Energies=         -763.349123

                     E (Thermal)             CV                S
                      KCal/Mol        Cal/Mol-Kelvin    Cal/Mol-Kelvin
 Total                  214.240             64.937            129.445
 Electronic               0.000              0.000              0.000
 Translational            0.889              2.981             42.280
 Rotational               0.889              2.981             33.040
 Vibrational            212.463             58.976             54.125
 Vibration     1          0.594              1.983              5.689
 Vibration     2          0.596              1.975              4.609
 Vibration     3          0.598              1.969              4.174
 Vibration     4          0.606              1.943              3.305
 Vibration     5          0.612              1.922              2.931
 Vibration     6          0.618              1.905              2.695
 Vibration     7          0.621              1.892              2.556
 Vibration     8          0.627              1.875              2.394
 Vibration     9          0.642              1.827              2.051
 Vibration    10          0.653              1.793              1.870
 Vibration    11          0.656              1.785              1.828
 Vibration    12          0.660              1.771              1.765
 Vibration    13          0.691              1.679              1.434
 Vibration    14          0.693              1.671              1.410
 Vibration    15          0.704              1.641              1.324
 Vibration    16          0.715              1.610              1.246
 Vibration    17          0.729              1.569              1.153
 Vibration    18          0.750              1.512              1.037
 Vibration    19          0.766              1.469              0.961
 Vibration    20          0.777              1.441              0.915
 Vibration    21          0.785              1.421              0.883
 Vibration    22          0.788              1.413              0.870
 Vibration    23          0.817              1.341              0.769
 Vibration    24          0.843              1.279              0.691
 Vibration    25          0.899              1.152              0.556
 Vibration    26          0.932              1.083              0.493

                           ! Non-Optimized Parameters !
 Normal termination of Gaussian 16 at Sun Dec 13 20:26:17 2020.

 ----------------------------------------------------------------------
 # B3LYP/6-311++G(d,p) empiricaldispersion=gd3bj scf=xqc pop=npa geom=c
 heck
 ----------------------------------------------------------------------

 --------------------------------------
 CID_63625305_JID_7729_Energie_neutraal
 --------------------------------------
 Structure from the checkpoint file:  "JID_7729.chk"
 Charge =  0 Multiplicity = 1

 SCF Done:  E(RB3LYP) =  -763.847528032     A.U. after   16 cycles
 Normal termination of Gaussian 16 at Sun Dec 13 20:34:13 2020.

 ----------------------------------------------------------------------
 # B3LYP/6-311++G(d,p) empiricaldispersion=gd3bj scf=xqc pop=npa geom=c
 heck
 ----------------------------------------------------------------------

 ------------------------------------
 CID_63625305_JID_7729_Energie_kation
 ------------------------------------
 Structure from the checkpoint file:  "JID_7729.chk"
 Charge =  1 Multiplicity = 2

 SCF Done:  E(UB3LYP) =  -763.565483085     A.U. after   27 cycles
 Normal termination of Gaussian 16 at Sun Dec 13 20:53:51 2020.
 Gaussian 16:  ES64L-G16RevA.03 25-Dec-2016

 ----------------------------------------------------------------------
 # B3LYP/6-311++G(d,p) empiricaldispersion=gd3bj scf=xqc pop=npa geom=c
 heck
 ----------------------------------------------------------------------

 -----------------------------------
 CID_63625305_JID_7729_Energie_anion
 -----------------------------------
 Structure from the checkpoint file:  "JID_7729.chk"
 Charge = -1 Multiplicity = 2

                         Standard orientation:
 ---------------------------------------------------------------------
 Center     Atomic      Atomic             Coordinates (Angstroms)
 Number     Number       Type             X           Y           Z
 ---------------------------------------------------------------------
      1          6           0        4.486642   -0.871617   -1.631284
      2          6           0        3.438962   -0.728633   -0.521060
      3          6           0        3.778670    0.466380    0.379406
      4          6           0        2.771877    0.775331    1.495677
      5          6           0        1.457717    1.399035    1.017766
      6          7           0        0.455334    0.431977    0.548614
      7          6           0        0.886218   -0.812656   -0.089972
      8          6           0        2.023560   -0.660438   -1.114959
      9          6           0       -0.798268    0.968377    0.331286
     10          8           0       -0.981169    2.190696    0.420188
     11          6           0       -1.934724    0.078562    0.036061
     12          6           0       -2.284918   -1.177364    0.535332
     13          7           0       -3.514161   -1.437607    0.037801
     14          7           0       -4.030515   -0.432274   -0.737614
     15          6           0       -3.075949    0.493063   -0.727569
     16          7           0       -3.178690    1.679919   -1.427145
     17          6           0       -1.589202   -2.111107    1.471813
     18          1           0        5.498450   -0.943968   -1.216043
     19          1           0        4.463698   -0.003212   -2.301755
     20          1           0        4.305887   -1.766160   -2.238312
     21          1           0        3.478927   -1.636532    0.102322
     22          1           0        4.766142    0.291182    0.826318
     23          1           0        3.882722    1.364612   -0.247779
     24          1           0        3.233887    1.502904    2.173880
     25          1           0        2.573257   -0.118020    2.102742
     26          1           0        1.665390    2.137581    0.230335
     27          1           0        0.988300    1.958801    1.830092
     28          1           0        0.011249   -1.218225   -0.596172
     29          1           0        1.188759   -1.547453    0.668590
     30          1           0        1.886118    0.268422   -1.684525
     31          1           0        1.919740   -1.480690   -1.837230
     32          1           0       -4.093309   -2.239801    0.230752
     33          1           0       -4.134752    1.931026   -1.647658
     34          1           0       -2.658043    2.421910   -0.968977
     35          1           0       -1.022090   -2.884914    0.939793
     36          1           0       -0.885431   -1.556027    2.096744
     37          1           0       -2.306833   -2.614703    2.128807
 ---------------------------------------------------------------------

 SCF Done:  E(UB3LYP) =  -763.839461271     A.U. after   33 cycles
 SCF Done:  E(UB3LYP) =  -763.839461272     a.u. after    1 cycles

 The electronic state is 2-A.
 Alpha  occ. eigenvalues --  -18.99254 -14.28488 -14.24560 -14.22510 -14.22159
 Alpha  occ. eigenvalues --  -10.17941 -10.13469 -10.13059 -10.11083 -10.10806
 Alpha  occ. eigenvalues --  -10.08510 -10.08225 -10.08190 -10.07984 -10.07803
 Alpha  occ. eigenvalues --  -10.07625 -10.07329  -0.95058  -0.94097  -0.84064
 Alpha  occ. eigenvalues --   -0.82286  -0.73266  -0.72593  -0.69747  -0.68550
 Alpha  occ. eigenvalues --   -0.64052  -0.62293  -0.59937  -0.55867  -0.54607
 Alpha  occ. eigenvalues --   -0.50778  -0.49339  -0.47695  -0.45759  -0.43357
 Alpha  occ. eigenvalues --   -0.40876  -0.39854  -0.38629  -0.37626  -0.37465
 Alpha  occ. eigenvalues --   -0.36691  -0.36097  -0.35683  -0.33393  -0.32617
 Alpha  occ. eigenvalues --   -0.32006  -0.31462  -0.31307  -0.30563  -0.29588
 Alpha  occ. eigenvalues --   -0.29083  -0.28477  -0.28218  -0.26203  -0.25527
 Alpha  occ. eigenvalues --   -0.23921  -0.23772  -0.22991  -0.22898  -0.20372
 Alpha  occ. eigenvalues --   -0.17374  -0.14942  -0.14881  -0.12164   0.03866
 Alpha virt. eigenvalues --    0.05690   0.06846   0.07215   0.07571   0.07815
 Alpha virt. eigenvalues --    0.08309   0.08864   0.09542   0.10254   0.10317
 Alpha virt. eigenvalues --    0.10580   0.10837   0.11745   0.12048   0.12656

  Beta  occ. eigenvalues --  -18.99252 -14.28454 -14.24561 -14.22506 -14.22159
  Beta  occ. eigenvalues --  -10.17941 -10.13469 -10.13059 -10.11063 -10.10802
  Beta  occ. eigenvalues --  -10.08496 -10.08172 -10.08164 -10.07974 -10.07790
  Beta  occ. eigenvalues --  -10.07621 -10.07311  -0.95040  -0.94089  -0.84055
  Beta  occ. eigenvalues --   -0.82279  -0.73241  -0.72569  -0.69715  -0.68518
  Beta  occ. eigenvalues --   -0.64021  -0.62224  -0.59909  -0.55822  -0.54571
  Beta  occ. eigenvalues --   -0.50741  -0.49316  -0.47648  -0.45726  -0.43327
  Beta  occ. eigenvalues --   -0.40847  -0.39832  -0.38597  -0.37595  -0.37441
  Beta  occ. eigenvalues --   -0.36661  -0.36069  -0.35657  -0.33371  -0.32593
  Beta  occ. eigenvalues --   -0.31972  -0.31429  -0.31267  -0.30542  -0.29540
  Beta  occ. eigenvalues --   -0.29049  -0.28449  -0.28196  -0.26176  -0.25502
  Beta  occ. eigenvalues --   -0.23906  -0.23727  -0.22962  -0.22872  -0.20356
  Beta  occ. eigenvalues --   -0.17370  -0.14935  -0.14870  -0.12153
  Beta virt. eigenvalues --    0.06019   0.06987   0.07231   0.07564   0.07763
  Beta virt. eigenvalues --    0.08198   0.08658   0.09428   0.09818   0.10516
  Beta virt. eigenvalues --    0.10797   0.11005   0.11099   0.11860   0.12268

 Mulliken charges and spin densities:
               1          2
     1  C    0.764394  -1.459853
     2  C   -0.545657   1.087367
     3  C   -0.292489  -0.106800
     4  C   -0.201739  -0.181665
     5  C    0.066313  -0.258800
     6  N    0.233299   0.057767
     7  C   -1.593687   1.158547
     8  C    1.797083  -2.519726
     9  C    0.028298  -0.284212
    10  O   -0.340648   0.000111
    11  C    0.853045  -0.132692
    12  C   -1.080416   0.744130
    13  N    0.049387  -0.077180
    14  N   -0.399162   0.109909
    15  C   -0.253909   0.179508
    16  N   -0.329750  -0.002494
    17  C    1.368227  -2.158564
    18  H   -0.134496   0.280245
    19  H    0.124407   0.001715
    20  H   -0.069999   0.204217
    21  H   -0.468058   0.647745
    22  H   -0.041907   0.181674
    23  H    0.011430   0.124105
    24  H   -0.131403   0.305914
    25  H   -0.161422   0.342739
    26  H    0.192774  -0.000444
    27  H    0.128513   0.073601
    28  H    0.195987  -0.008022
    29  H    0.320445  -0.164807
    30  H    0.133714   0.040939
    31  H   -0.048320   0.227119
    32  H   -0.102970   0.437489
    33  H    0.244377   0.006851
    34  H    0.267125  -0.000589
    35  H   -0.534260   0.722369
    36  H   -0.011584   0.195390
    37  H   -1.036938   1.226399
 Sum of Mulliken charges =  -1.00000   1.00000

 Dipole moment (field-independent basis, Debye):
    X=              1.1926    Y=              6.4667    Z=             -3.0481  Tot=              7.2478
 Quadrupole moment (field-independent basis, Debye-Ang):
   XX=           -184.1684   YY=           -158.3707   ZZ=           -142.4675
   XY=             -5.6737   XZ=              1.5662   YZ=              6.0921

 Summary of Natural Population Analysis:

                                       Natural Population
                Natural  -----------------------------------------------
    Atom  No    Charge         Core      Valence    Rydberg      Total
 -----------------------------------------------------------------------
      C    1   -0.28172      0.99965     2.27556    0.00651     3.28172
      C    2   -0.11241      0.99959     2.10289    0.00993     3.11241
      C    3   -0.18653      0.99961     2.17725    0.00967     3.18653
      C    4   -0.19903      0.99962     2.19121    0.00819     3.19903
      C    5   -0.08561      0.99960     2.07465    0.01136     3.08561
      N    6   -0.25146      0.99964     2.74229    0.00953     3.75146
      C    7   -0.08737      0.99959     2.07652    0.01127     3.08737
      C    8   -0.19526      0.99960     2.18677    0.00888     3.19526
      C    9    0.34044      0.99958     1.63761    0.02237     2.65956
      O   10   -0.34021      0.99988     3.33563    0.00470     4.34021
      C   11   -0.14283      0.99937     2.13327    0.01019     3.14283
      C   12    0.11161      0.99952     1.87714    0.01173     2.88839
      N   13   -0.17057      0.99964     2.65818    0.01275     3.67057
      N   14   -0.19237      0.99969     2.67999    0.01269     3.69237
      C   15    0.18607      0.99956     1.79656    0.01781     2.81393
      N   16   -0.40509      0.99970     2.89710    0.00829     3.90509
      C   17   -0.30709      0.99963     2.30079    0.00667     3.30709
      H   18    0.09969      0.00000     0.39947    0.00084     0.40031
      H   19    0.09401      0.00000     0.40518    0.00082     0.40599
      H   20    0.09997      0.00000     0.39921    0.00082     0.40003
      H   21    0.09534      0.00000     0.40209    0.00257     0.40466
      H   22    0.10061      0.00000     0.39835    0.00104     0.39939
      H   23    0.09072      0.00000     0.40810    0.00118     0.40928
      H   24    0.10228      0.00000     0.39693    0.00079     0.39772
      H   25    0.10192      0.00000     0.39670    0.00139     0.39808
      H   26    0.09263      0.00000     0.40623    0.00114     0.40737
      H   27    0.10728      0.00000     0.39176    0.00096     0.39272
      H   28    0.10950      0.00000     0.38882    0.00168     0.39050
      H   29    0.09540      0.00000     0.40243    0.00218     0.40460
      H   30    0.09760      0.00000     0.40129    0.00111     0.40240
      H   31    0.10439      0.00000     0.39466    0.00095     0.39561
      H   32    0.20146      0.00000     0.29421    0.00433     0.29854
      H   33    0.18459      0.00000     0.31402    0.00139     0.31541
      H   34    0.20159      0.00000     0.29677    0.00163     0.29841
      H   35    0.11434      0.00000     0.38306    0.00260     0.38566
      H   36    0.11358      0.00000     0.38473    0.00169     0.38642
      H   37    0.11255      0.00000     0.38452    0.00293     0.38745
 =======================================================================
   * Total *   -0.00000     16.99350    46.79194    0.21456    64.00000

 Normal termination of Gaussian 16 at Sun Dec 13 21:15:56 2020.
