 Gaussian 16, Revision A.03,

 -----------------------------------------------------------
 # opt freq B3LYP/6-31G(d) empiricaldispersion=gd3bj scf=xqc
 -----------------------------------------------------------

 --------------------------------
 CID_121667217_JID_10422_neutraal
 --------------------------------
 Symbolic Z-matrix:
 Charge =  0 Multiplicity = 1

 SCF Done:  E(RB3LYP) =  -899.009968518     A.U. after   15 cycles
 SCF Done:  E(RB3LYP) =  -899.013315253     A.U. after   14 cycles
 SCF Done:  E(RB3LYP) =  -899.009257727     A.U. after   13 cycles
 SCF Done:  E(RB3LYP) =  -899.015609898     A.U. after   13 cycles
 SCF Done:  E(RB3LYP) =  -899.016245046     A.U. after   15 cycles
 SCF Done:  E(RB3LYP) =  -899.017785441     A.U. after   13 cycles
 SCF Done:  E(RB3LYP) =  -899.018876760     A.U. after   12 cycles
 SCF Done:  E(RB3LYP) =  -899.019780831     A.U. after   14 cycles
 SCF Done:  E(RB3LYP) =  -899.020840806     A.U. after   15 cycles
 SCF Done:  E(RB3LYP) =  -899.021744990     A.U. after   15 cycles
 SCF Done:  E(RB3LYP) =  -899.026060949     A.U. after    8 cycles
 SCF Done:  E(RB3LYP) =  -899.026062540     A.U. after    8 cycles
 SCF Done:  E(RB3LYP) =  -899.026063673     A.U. after    9 cycles
 SCF Done:  E(RB3LYP) =  -899.026064000     A.U. after    8 cycles
 SCF Done:  E(RB3LYP) =  -899.026064109     A.U. after    7 cycles
 Optimization completed.
    -- Stationary point found.
 Normal termination of Gaussian 16 at Sat Dec 12 15:55:53 2020.

 --------------------------------------------------------------------
 #N Geom=AllCheck Guess=TCheck SCRF=Check GenChk RB3LYP/6-31G(d) Freq
 --------------------------------------------------------------------

 Structure from the checkpoint file:  "JID_10422.chk"
 --------------------------------
 CID_121667217_JID_10422_neutraal
 --------------------------------
 Charge =  0 Multiplicity = 1

 SCF Done:  E(RB3LYP) =  -899.026064109     A.U. after    1 cycles

  Exact polarizability: 224.232 -13.076 199.599   1.800 -13.463 121.261
 Approx polarizability: 312.445  -6.652 295.626  -4.579 -26.597 189.804

                      1                      2                      3
                      A                      A                      A
 Frequencies --     31.6070                39.5169                47.8348
 Red. masses --      3.7464                 5.0829                 3.4497
 Frc consts  --      0.0022                 0.0047                 0.0047
 IR Inten    --      0.5684                 0.8277                 1.0583

                      4                      5                      6
                      A                      A                      A
 Frequencies --     63.7936                83.0621                94.1156
 Red. masses --      3.8266                 2.9562                 2.6823
 Frc consts  --      0.0092                 0.0120                 0.0140
 IR Inten    --      0.2562                 2.6454                 6.0873

                      7                      8                      9
                      A                      A                      A
 Frequencies --    107.9823               136.0197               149.2862
 Red. masses --      4.5594                 3.8490                 3.1232
 Frc consts  --      0.0313                 0.0420                 0.0410
 IR Inten    --      3.8788                 3.3747                 0.9740

                     10                     11                     12
                      A                      A                      A
 Frequencies --    186.9254               212.4112               226.8844
 Red. masses --      2.5178                 4.4395                 1.6693
 Frc consts  --      0.0518                 0.1180                 0.0506
 IR Inten    --      1.1070                 1.9022                 0.1228

                     13                     14                     15
                      A                      A                      A
 Frequencies --    237.3150               286.5712               308.1887
 Red. masses --      2.3393                 3.3170                 3.4787
 Frc consts  --      0.0776                 0.1605                 0.1947
 IR Inten    --      1.4433                 1.6765                 1.7700

                     16                     17                     18
                      A                      A                      A
 Frequencies --    331.1846               338.8751               362.5284
 Red. masses --      2.0744                 2.9053                 2.7231
 Frc consts  --      0.1341                 0.1966                 0.2109
 IR Inten    --      0.9225                 4.0172                 8.0379

                     19                     20                     21
                      A                      A                      A
 Frequencies --    369.4486               419.1813               430.7294
 Red. masses --      5.1734                 4.1315                 3.7876
 Frc consts  --      0.4160                 0.4277                 0.4140
 IR Inten    --     15.0097                 9.6429                 1.0473

                     22                     23                     24
                      A                      A                      A
 Frequencies --    465.6418               499.8731               509.3305
 Red. masses --      3.3807                 3.8481                 2.4510
 Frc consts  --      0.4319                 0.5665                 0.3746
 IR Inten    --      1.5692                 3.0420                 0.0807

                     25                     26                     27
                      A                      A                      A
 Frequencies --    558.8828               562.7679               578.5131
 Red. masses --      3.1731                 4.4031                 4.6504
 Frc consts  --      0.5840                 0.8216                 0.9170
 IR Inten    --      8.9028                 2.9583                 5.9981

                     28                     29                     30
                      A                      A                      A
 Frequencies --    596.2928               640.1491               683.6752
 Red. masses --      2.6515                 4.4422                 3.2763
 Frc consts  --      0.5555                 1.0725                 0.9023
 IR Inten    --     56.2689                 4.5509                15.1908

                     31                     32                     33
                      A                      A                      A
 Frequencies --    749.5451               753.9815               768.5234
 Red. masses --      5.5904                 1.9172                 2.3340
 Frc consts  --      1.8505                 0.6421                 0.8122
 IR Inten    --      4.6001                37.9082                11.2441

                     34                     35                     36
                      A                      A                      A
 Frequencies --    784.7170               807.0446               823.0484
 Red. masses --      2.2899                 1.8707                 2.2445
 Frc consts  --      0.8308                 0.7179                 0.8958
 IR Inten    --     31.5081                 1.5737                 0.2513

                     37                     38                     39
                      A                      A                      A
 Frequencies --    826.5488               867.6624               894.8849
 Red. masses --      2.3047                 2.9187                 2.7174
 Frc consts  --      0.9277                 1.2946                 1.2822
 IR Inten    --      2.4801                 8.4342                 5.4239

                     40                     41                     42
                      A                      A                      A
 Frequencies --    904.7871               934.7109               940.9081
 Red. masses --      2.0096                 2.1036                 1.9428
 Frc consts  --      0.9693                 1.0828                 1.0134
 IR Inten    --     18.8069                13.9399                 9.5830

                     43                     44                     45
                      A                      A                      A
 Frequencies --    963.0440               976.6179               991.2943
 Red. masses --      1.7117                 1.3976                 1.8670
 Frc consts  --      0.9353                 0.7854                 1.0809
 IR Inten    --      0.5508                 0.3778                16.3955

                     46                     47                     48
                      A                      A                      A
 Frequencies --    994.8802               995.8045              1027.5601
 Red. masses --      1.7459                 1.4749                 2.0635
 Frc consts  --      1.0182                 0.8617                 1.2837
 IR Inten    --      3.1367                 1.9011                17.8342

                     49                     50                     51
                      A                      A                      A
 Frequencies --   1037.5220              1074.8519              1088.5038
 Red. masses --      3.2580                 3.4460                 3.4434
 Frc consts  --      2.0663                 2.3456                 2.4038
 IR Inten    --     10.2327                12.1036                23.6433

                     52                     53                     54
                      A                      A                      A
 Frequencies --   1094.6508              1103.8410              1124.5840
 Red. masses --      2.6588                 3.0149                 2.0125
 Frc consts  --      1.8771                 2.1644                 1.4996
 IR Inten    --      7.3958                27.8845                20.6761

                     55                     56                     57
                      A                      A                      A
 Frequencies --   1131.5712              1141.6935              1149.8725
 Red. masses --      1.9442                 2.5259                 2.0847
 Frc consts  --      1.4667                 1.9398                 1.6240
 IR Inten    --      8.8199                13.3313               179.0172

                     58                     59                     60
                      A                      A                      A
 Frequencies --   1153.8834              1158.3218              1191.0155
 Red. masses --      2.0123                 2.2930                 1.3024
 Frc consts  --      1.5786                 1.8126                 1.0885
 IR Inten    --      4.5901                12.1413                 6.4304

                     61                     62                     63
                      A                      A                      A
 Frequencies --   1202.5133              1211.5407              1223.1829
 Red. masses --      2.0960                 1.8013                 1.3397
 Frc consts  --      1.7858                 1.5578                 1.1810
 IR Inten    --      4.4891                19.4554                15.4204

                     64                     65                     66
                      A                      A                      A
 Frequencies --   1228.8550              1265.2312              1270.6513
 Red. masses --      1.3516                 1.5926                 2.1807
 Frc consts  --      1.2026                 1.5021                 2.0744
 IR Inten    --     20.2794                57.6376               130.3601

                     67                     68                     69
                      A                      A                      A
 Frequencies --   1301.5099              1310.9293              1319.6782
 Red. masses --      1.5644                 1.4483                 1.9286
 Frc consts  --      1.5613                 1.4665                 1.9789
 IR Inten    --     45.2158                41.2420                17.2720

                     70                     71                     72
                      A                      A                      A
 Frequencies --   1330.8730              1336.5714              1342.5243
 Red. masses --      2.6654                 1.4732                 1.3223
 Frc consts  --      2.7816                 1.5506                 1.4042
 IR Inten    --    147.0482                 7.9346                44.0604

                     73                     74                     75
                      A                      A                      A
 Frequencies --   1345.4569              1362.6641              1383.2898
 Red. masses --      1.1241                 1.2308                 1.3735
 Frc consts  --      1.1990                 1.3465                 1.5485
 IR Inten    --     16.0506                 9.9582                 6.0227

                     76                     77                     78
                      A                      A                      A
 Frequencies --   1394.8404              1406.4785              1419.2693
 Red. masses --      1.4886                 1.4377                 1.2941
 Frc consts  --      1.7064                 1.6757                 1.5358
 IR Inten    --      1.4114                61.2411                10.2592

                     79                     80                     81
                      A                      A                      A
 Frequencies --   1422.7431              1433.5238              1437.3182
 Red. masses --      1.6158                 1.6634                 1.7378
 Frc consts  --      1.9271                 2.0140                 2.1153
 IR Inten    --      4.6582                 9.8381                57.0339

                     82                     83                     84
                      A                      A                      A
 Frequencies --   1443.7795              1458.4131              1493.9791
 Red. masses --      1.3268                 1.2881                 2.4424
 Frc consts  --      1.6295                 1.6143                 3.2118
 IR Inten    --     10.6556                 8.4328                64.5334

                     85                     86                     87
                      A                      A                      A
 Frequencies --   1510.7454              1514.4846              1515.5375
 Red. masses --      1.5003                 1.5782                 1.0585
 Frc consts  --      2.0176                 2.1327                 1.4325
 IR Inten    --    171.7719               146.6252                10.6556

                     88                     89                     90
                      A                      A                      A
 Frequencies --   1518.4910              1523.0528              1535.6657
 Red. masses --      1.1107                 1.1272                 1.1922
 Frc consts  --      1.5089                 1.5405                 1.6565
 IR Inten    --     31.8740                34.6440                12.3001

                     91                     92                     93
                      A                      A                      A
 Frequencies --   1538.5662              1547.5096              1557.2871
 Red. masses --      1.0596                 1.0884                 1.0930
 Frc consts  --      1.4778                 1.5357                 1.5618
 IR Inten    --      8.3214                 2.0716                 1.9031

                     94                     95                     96
                      A                      A                      A
 Frequencies --   1605.3048              1648.4442              1777.9507
 Red. masses --      6.1723                 5.8296                11.3164
 Frc consts  --      9.3716                 9.3334                21.0765
 IR Inten    --    105.4440               181.6871               301.6913

                     97                     98                     99
                      A                      A                      A
 Frequencies --   2964.6315              2980.0099              2982.1432
 Red. masses --      1.0757                 1.0732                 1.0777
 Frc consts  --      5.5705                 5.6150                 5.6469
 IR Inten    --     48.1755                23.9132                14.3291

                    100                    101                    102
                      A                      A                      A
 Frequencies --   2990.1347              3011.0144              3035.2664
 Red. masses --      1.0766                 1.0702                 1.0816
 Frc consts  --      5.6715                 5.7167                 5.8710
 IR Inten    --     87.5952                53.7866                45.5822

                    103                    104                    105
                      A                      A                      A
 Frequencies --   3053.5306              3062.2573              3068.4418
 Red. masses --      1.0618                 1.0364                 1.0927
 Frc consts  --      5.8333                 5.7262                 6.0617
 IR Inten    --     43.3146                18.8878                51.1828

                    106                    107                    108
                      A                      A                      A
 Frequencies --   3076.9962              3092.1732              3103.6152
 Red. masses --      1.0961                 1.0587                 1.1018
 Frc consts  --      6.1145                 5.9641                 6.2532
 IR Inten    --     50.3019                27.9026                44.1780

                    109                    110                    111
                      A                      A                      A
 Frequencies --   3127.9881              3139.9055              3158.9376
 Red. masses --      1.1024                 1.1043                 1.0892
 Frc consts  --      6.3549                 6.4147                 6.4041
 IR Inten    --     21.3855                10.4837                 8.0500

                    112                    113                    114
                      A                      A                      A
 Frequencies --   3159.8702              3165.8793              3182.8083
 Red. masses --      1.1065                 1.0897                 1.0872
 Frc consts  --      6.5092                 6.4349                 6.4893
 IR Inten    --     23.9375                34.3772                16.7435

                    115                    116                    117
                      A                      A                      A
 Frequencies --   3216.2510              3230.0143              3549.8746
 Red. masses --      1.0891                 1.0961                 1.0761
 Frc consts  --      6.6378                 6.7379                 7.9895
 IR Inten    --      5.6692                12.1369                 0.9682

 - Thermochemistry -
 -------------------
 Temperature   298.150 Kelvin.  Pressure   1.00000 Atm.
 Atom     1 has atomic number  6 and mass  12.00000

 Molecular mass:   275.16338 amu.
 Principal axes and moments of inertia in atomic units:
                           1         2         3
     Eigenvalues --  3703.908087345.509529979.83971
           X            0.99993   0.00965   0.00723
           Y           -0.00970   0.99992   0.00764
           Z           -0.00716  -0.00771   0.99994
 This molecule is an asymmetric top.
 Rotational symmetry number  1.
 Warning -- assumption of classical behavior for rotation
           may cause significant error
 Rotational temperatures (Kelvin)      0.02338     0.01179     0.00868
 Rotational constants (GHZ):           0.48725     0.24569     0.18084
 Zero-point vibrational energy     930126.8 (Joules/Mol)
                                  222.30565 (Kcal/Mol)
 Warning -- explicit consideration of  28 degrees of freedom as
           vibrations may cause significant error
 Vibrational temperatures:     45.48    56.86    68.82    91.78   119.51
          (Kelvin)            135.41   155.36   195.70   214.79   268.94
                              305.61   326.44   341.44   412.31   443.41
                              476.50   487.57   521.60   531.55   603.11
                              619.72   669.95   719.21   732.81   804.11
                              809.70   832.35   857.93   921.03   983.66
                             1078.43  1084.81  1105.73  1129.03  1161.16
                             1184.18  1189.22  1248.37  1287.54  1301.79
                             1344.84  1353.76  1385.61  1405.14  1426.25
                             1431.41  1432.74  1478.43  1492.76  1546.47
                             1566.11  1574.96  1588.18  1618.03  1628.08
                             1642.64  1654.41  1660.18  1666.57  1713.61
                             1730.15  1743.14  1759.89  1768.05  1820.39
                             1828.18  1872.58  1886.13  1898.72  1914.83
                             1923.03  1931.59  1935.81  1960.57  1990.25
                             2006.86  2023.61  2042.01  2047.01  2062.52
                             2067.98  2077.28  2098.33  2149.50  2173.63
                             2179.01  2180.52  2184.77  2191.33  2209.48
                             2213.65  2226.52  2240.59  2309.68  2371.74
                             2558.07  4265.44  4287.57  4290.64  4302.14
                             4332.18  4367.07  4393.35  4405.91  4414.80
                             4427.11  4448.95  4465.41  4500.48  4517.62
                             4545.01  4546.35  4554.99  4579.35  4627.47
                             4647.27  5107.48

 Zero-point correction=                           0.354267 (Hartree/Particle)
 Thermal correction to Energy=                    0.372311
 Thermal correction to Enthalpy=                  0.373255
 Thermal correction to Gibbs Free Energy=         0.307028
 Sum of electronic and zero-point Energies=           -898.671798
 Sum of electronic and thermal Energies=              -898.653753
 Sum of electronic and thermal Enthalpies=            -898.652809
 Sum of electronic and thermal Free Energies=         -898.719036

                     E (Thermal)             CV                S
                      KCal/Mol        Cal/Mol-Kelvin    Cal/Mol-Kelvin
 Total                  233.629             69.790            139.387
 Electronic               0.000              0.000              0.000
 Translational            0.889              2.981             42.735
 Rotational               0.889              2.981             33.962
 Vibrational            231.851             63.828             62.690
 Vibration     1          0.594              1.983              5.726
 Vibration     2          0.594              1.981              5.283
 Vibration     3          0.595              1.978              4.905
 Vibration     4          0.597              1.972              4.336
 Vibration     5          0.600              1.961              3.817
 Vibration     6          0.603              1.953              3.573
 Vibration     7          0.606              1.943              3.305
 Vibration     8          0.614              1.917              2.859
 Vibration     9          0.618              1.903              2.681
 Vibration    10          0.632              1.858              2.258
 Vibration    11          0.643              1.822              2.023
 Vibration    12          0.651              1.800              1.903
 Vibration    13          0.656              1.784              1.823
 Vibration    14          0.684              1.699              1.494
 Vibration    15          0.698              1.658              1.372
 Vibration    16          0.714              1.613              1.254
 Vibration    17          0.719              1.598              1.217
 Vibration    18          0.736              1.549              1.111
 Vibration    19          0.742              1.535              1.082
 Vibration    20          0.782              1.429              0.895
 Vibration    21          0.792              1.403              0.856
 Vibration    22          0.823              1.326              0.750
 Vibration    23          0.855              1.250              0.658
 Vibration    24          0.864              1.229              0.635
 Vibration    25          0.914              1.120              0.526
 Vibration    26          0.919              1.112              0.518
 Vibration    27          0.935              1.078              0.488
 Vibration    28          0.954              1.040              0.456

                           ! Non-Optimized Parameters !
 Normal termination of Gaussian 16 at Sat Dec 12 16:19:14 2020.

 ----------------------------------------------------------------------
 # B3LYP/6-311++G(d,p) empiricaldispersion=gd3bj scf=xqc pop=npa geom=c
 heck
 ----------------------------------------------------------------------

 ----------------------------------------
 CID_121667217_JID_10422_Energie_neutraal
 ----------------------------------------
 Structure from the checkpoint file:  "JID_10422.chk"
 Charge =  0 Multiplicity = 1

 SCF Done:  E(RB3LYP) =  -899.270961892     A.U. after   17 cycles
 Normal termination of Gaussian 16 at Sat Dec 12 16:29:36 2020.

 ----------------------------------------------------------------------
 # B3LYP/6-311++G(d,p) empiricaldispersion=gd3bj scf=xqc pop=npa geom=c
 heck
 ----------------------------------------------------------------------

 --------------------------------------
 CID_121667217_JID_10422_Energie_kation
 --------------------------------------
 Structure from the checkpoint file:  "JID_10422.chk"
 Charge =  1 Multiplicity = 2

 SCF Done:  E(UB3LYP) =  -898.997766034     A.U. after   24 cycles
 Normal termination of Gaussian 16 at Sat Dec 12 16:50:32 2020.
 Gaussian 16:  ES64L-G16RevA.03 25-Dec-2016

 ----------------------------------------------------------------------
 # B3LYP/6-311++G(d,p) empiricaldispersion=gd3bj scf=xqc pop=npa geom=c
 heck
 ----------------------------------------------------------------------

 -------------------------------------
 CID_121667217_JID_10422_Energie_anion
 -------------------------------------
 Structure from the checkpoint file:  "JID_10422.chk"
 Charge = -1 Multiplicity = 2

                         Standard orientation:
 ---------------------------------------------------------------------
 Center     Atomic      Atomic             Coordinates (Angstroms)
 Number     Number       Type             X           Y           Z
 ---------------------------------------------------------------------
      1          6           0        2.131280    3.547331    1.457287
      2          6           0        1.326367    3.062535    0.262614
      3          8           0        1.242433    1.619419    0.240921
      4          6           0        2.298608    0.970960   -0.300769
      5          8           0        3.270599    1.548522   -0.754215
      6          6           0        2.193835   -0.509734   -0.204498
      7          6           0        1.003274   -1.284698   -0.056379
      8          7           0        1.065792   -2.576117    0.320789
      9          6           0        2.253584   -3.163523    0.455786
     10          6           0        3.466647   -2.535504    0.179047
     11          6           0        3.417748   -1.183299   -0.137058
     12          7           0       -0.261695   -0.776673   -0.278312
     13          6           0       -0.534275    0.045255   -1.464170
     14          6           0       -1.658437    1.058303   -1.213061
     15          6           0       -2.884135    0.295452   -0.727775
     16          6           0       -4.128201    1.038228   -0.236384
     17          7           0       -4.799932    0.090533    0.688455
     18          6           0       -3.903901   -1.066465    0.928370
     19          6           0       -2.531627   -0.545947    0.503274
     20          6           0       -1.421783   -1.541866    0.196162
     21          1           0        1.711224    3.156353    2.389471
     22          1           0        2.111841    4.642160    1.500940
     23          1           0        3.171579    3.223247    1.371982
     24          1           0        0.285767    3.390639    0.320249
     25          1           0        1.765161    3.405877   -0.677139
     26          1           0        2.230254   -4.200568    0.788228
     27          1           0        4.406661   -3.070886    0.254046
     28          1           0        4.321869   -0.603474   -0.290297
     29          1           0        0.377033    0.545552   -1.781843
     30          1           0       -0.839275   -0.623182   -2.289033
     31          1           0       -1.335551    1.777759   -0.452290
     32          1           0       -1.859959    1.610396   -2.139598
     33          1           0       -3.193050   -0.402062   -1.524121
     34          1           0       -3.836308    1.949581    0.306899
     35          1           0       -4.796253    1.345762   -1.049025
     36          1           0       -5.689173   -0.215776    0.309916
     37          1           0       -3.932182   -1.368650    1.982029
     38          1           0       -4.175897   -1.947484    0.323303
     39          1           0       -2.158394    0.134861    1.281538
     40          1           0       -1.752536   -2.268947   -0.564834
     41          1           0       -1.120103   -2.111053    1.074736
 ---------------------------------------------------------------------

 SCF Done:  E(UB3LYP) =  -899.273079454     A.U. after   33 cycles
 SCF Done:  E(UB3LYP) =  -899.273080135     a.u. after    4 cycles

 The electronic state is 2-A.
 Alpha  occ. eigenvalues --  -19.03215 -18.96021 -14.20654 -14.20047 -14.16459
 Alpha  occ. eigenvalues --  -10.14724 -10.12012 -10.11122 -10.09614 -10.09578
 Alpha  occ. eigenvalues --  -10.09233 -10.08612 -10.07213 -10.06929 -10.06827
 Alpha  occ. eigenvalues --  -10.06722 -10.05768 -10.04072 -10.03870 -10.03746
 Alpha  occ. eigenvalues --   -0.97155  -0.87838  -0.84919  -0.81938  -0.78559
 Alpha  occ. eigenvalues --   -0.70019  -0.67821  -0.66395  -0.65874  -0.62919
 Alpha  occ. eigenvalues --   -0.61085  -0.56109  -0.55417  -0.52701  -0.49780
 Alpha  occ. eigenvalues --   -0.48754  -0.47736  -0.46068  -0.44146  -0.41603
 Alpha  occ. eigenvalues --   -0.40233  -0.39433  -0.37926  -0.36404  -0.35664
 Alpha  occ. eigenvalues --   -0.35030  -0.34466  -0.34159  -0.33594  -0.32317
 Alpha  occ. eigenvalues --   -0.31794  -0.31617  -0.29908  -0.29402  -0.28899
 Alpha  occ. eigenvalues --   -0.28519  -0.28068  -0.27112  -0.26526  -0.26153
 Alpha  occ. eigenvalues --   -0.25317  -0.24500  -0.23998  -0.23054  -0.22758
 Alpha  occ. eigenvalues --   -0.22509  -0.20832  -0.18087  -0.16882  -0.15628
 Alpha  occ. eigenvalues --   -0.14401  -0.12959  -0.12446  -0.08686   0.04248
 Alpha virt. eigenvalues --    0.05559   0.07100   0.07898   0.08256   0.08834
 Alpha virt. eigenvalues --    0.09056   0.09799   0.10408   0.10722   0.10911
 Alpha virt. eigenvalues --    0.11398   0.11612   0.11820   0.11952   0.12759

  Beta  occ. eigenvalues --  -19.03150 -18.95803 -14.20651 -14.20034 -14.16460
  Beta  occ. eigenvalues --  -10.14492 -10.12013 -10.11039 -10.09604 -10.09571
  Beta  occ. eigenvalues --  -10.09219 -10.08608 -10.07207 -10.06931 -10.06824
  Beta  occ. eigenvalues --  -10.06708 -10.05417 -10.03872 -10.03816 -10.03733
  Beta  occ. eigenvalues --   -0.96908  -0.87494  -0.84810  -0.81905  -0.78387
  Beta  occ. eigenvalues --   -0.69967  -0.67557  -0.66369  -0.65694  -0.62687
  Beta  occ. eigenvalues --   -0.60996  -0.55975  -0.55225  -0.52646  -0.49411
  Beta  occ. eigenvalues --   -0.48628  -0.47654  -0.45997  -0.43948  -0.41507
  Beta  occ. eigenvalues --   -0.40165  -0.39268  -0.37803  -0.36327  -0.35613
  Beta  occ. eigenvalues --   -0.34887  -0.34293  -0.34065  -0.33280  -0.32184
  Beta  occ. eigenvalues --   -0.31737  -0.31504  -0.29777  -0.29357  -0.28852
  Beta  occ. eigenvalues --   -0.28451  -0.27581  -0.26945  -0.26393  -0.25750
  Beta  occ. eigenvalues --   -0.25057  -0.24413  -0.23786  -0.22994  -0.22644
  Beta  occ. eigenvalues --   -0.22419  -0.20812  -0.17353  -0.16302  -0.15111
  Beta  occ. eigenvalues --   -0.13594  -0.12923  -0.12264  -0.08189
  Beta virt. eigenvalues --    0.06284   0.06968   0.07956   0.08298   0.08764
  Beta virt. eigenvalues --    0.09048   0.09540   0.09808   0.10349   0.10757
  Beta virt. eigenvalues --    0.11007   0.11406   0.11586   0.11931   0.12064

 Mulliken charges and spin densities:
               1          2
     1  C   -0.251773  -0.181552
     2  C   -0.191322   0.077248
     3  O    0.059858   0.009271
     4  C   -1.329287   0.148246
     5  O   -0.285077   0.077612
     6  C    1.088319  -0.008198
     7  C   -0.580357   0.044601
     8  N   -0.080415  -0.020627
     9  C   -0.131061   0.252728
    10  C   -0.514479  -0.040578
    11  C    0.047458   0.233102
    12  N    0.434598   0.016888
    13  C    0.013255  -0.021338
    14  C   -0.751467   0.114190
    15  C    0.358956  -0.034498
    16  C   -0.089530  -0.568695
    17  N   -0.201363   0.081407
    18  C   -0.147877  -0.405337
    19  C    0.170531   0.158507
    20  C   -0.717943  -0.181154
    21  H    0.111317   0.025626
    22  H    0.059221   0.058906
    23  H    0.120838   0.059096
    24  H    0.101172   0.015010
    25  H    0.162421   0.001860
    26  H    0.130699  -0.017564
    27  H    0.113191   0.005062
    28  H    0.188432  -0.011712
    29  H    0.195700   0.016662
    30  H    0.053848   0.099756
    31  H    0.120375  -0.001286
    32  H    0.116441   0.024452
    33  H    0.005608   0.172760
    34  H    0.212459  -0.052561
    35  H   -0.267414   0.410631
    36  H    0.025504   0.204854
    37  H    0.207743  -0.041550
    38  H   -0.128495   0.260157
    39  H    0.210755   0.017684
    40  H    0.148699   0.004502
    41  H    0.210463  -0.004165
 Sum of Mulliken charges =  -1.00000   1.00000

 Dipole moment (field-independent basis, Debye):
    X=             -1.6349    Y=              2.2012    Z=              0.8009  Tot=              2.8565
 Quadrupole moment (field-independent basis, Debye-Ang):
   XX=           -197.9280   YY=           -149.6146   ZZ=           -138.5741
   XY=             -0.3250   XZ=              2.3684   YZ=             -0.1231

 Summary of Natural Population Analysis:

                                       Natural Population
                Natural  -----------------------------------------------
    Atom  No    Charge         Core      Valence    Rydberg      Total
 -----------------------------------------------------------------------
      C    1   -0.29836      0.99966     2.29438    0.00431     3.29836
      C    2   -0.01674      0.99959     2.00615    0.01100     3.01674
      O    3   -0.28253      0.99986     3.27342    0.00926     4.28253
      C    4    0.42615      0.99963     1.55052    0.02370     2.57385
      O    5   -0.31032      0.99987     3.30527    0.00517     4.31032
      C    6   -0.09614      0.99942     2.08584    0.01087     3.09614
      C    7    0.23908      0.99950     1.74626    0.01515     2.76092
      N    8   -0.27253      0.99967     2.76415    0.00870     3.77253
      C    9    0.09875      0.99961     1.88755    0.01409     2.90125
      C   10   -0.17196      0.99956     2.16337    0.00903     3.17196
      C   11   -0.01687      0.99955     2.00914    0.00818     3.01687
      N   12   -0.25710      0.99964     2.74687    0.01059     3.75710
      C   13   -0.07283      0.99961     2.06302    0.01020     3.07283
      C   14   -0.19264      0.99960     2.18398    0.00906     3.19264
      C   15   -0.11627      0.99957     2.10548    0.01122     3.11627
      C   16   -0.08229      0.99961     2.07120    0.01149     3.08229
      N   17   -0.34776      0.99976     2.83656    0.01144     3.84776
      C   18   -0.08352      0.99961     2.07297    0.01094     3.08352
      C   19   -0.11774      0.99956     2.10838    0.00979     3.11774
      C   20   -0.08014      0.99959     2.06792    0.01263     3.08014
      H   21    0.09774      0.00000     0.40097    0.00129     0.40226
      H   22    0.09353      0.00000     0.40518    0.00129     0.40647
      H   23    0.10847      0.00000     0.39009    0.00144     0.39153
      H   24    0.08256      0.00000     0.41585    0.00159     0.41744
      H   25    0.09293      0.00000     0.40525    0.00182     0.40707
      H   26    0.07509      0.00000     0.42370    0.00121     0.42491
      H   27    0.09464      0.00000     0.40429    0.00107     0.40536
      H   28    0.10353      0.00000     0.39551    0.00096     0.39647
      H   29    0.10816      0.00000     0.39082    0.00102     0.39184
      H   30    0.08149      0.00000     0.41722    0.00129     0.41851
      H   31    0.10139      0.00000     0.39716    0.00145     0.39861
      H   32    0.09594      0.00000     0.40322    0.00084     0.40406
      H   33    0.09207      0.00000     0.40512    0.00281     0.40793
      H   34    0.08367      0.00000     0.41486    0.00148     0.41633
      H   35    0.09199      0.00000     0.40682    0.00119     0.40801
      H   36    0.17548      0.00000     0.32199    0.00252     0.32452
      H   37    0.08985      0.00000     0.40913    0.00102     0.41015
      H   38    0.08358      0.00000     0.41514    0.00128     0.41642
      H   39    0.10035      0.00000     0.39825    0.00140     0.39965
      H   40    0.08581      0.00000     0.41249    0.00171     0.41419
      H   41    0.11352      0.00000     0.38540    0.00108     0.38648
 =======================================================================
   * Total *   -0.00000     19.99247    53.76094    0.24658    74.00000

 Normal termination of Gaussian 16 at Sat Dec 12 19:12:55 2020.
