 Gaussian 16, Revision A.03,

 -----------------------------------------------------------
 # opt freq B3LYP/6-31G(d) empiricaldispersion=gd3bj scf=xqc
 -----------------------------------------------------------

 ------------------------------
 CID_64832731_JID_5163_neutraal
 ------------------------------
 Symbolic Z-matrix:
 Charge =  0 Multiplicity = 1

 SCF Done:  E(RB3LYP) =  -657.690114468     A.U. after   13 cycles
 SCF Done:  E(RB3LYP) =  -657.696263246     A.U. after   11 cycles
 SCF Done:  E(RB3LYP) =  -657.696971104     A.U. after   11 cycles
 SCF Done:  E(RB3LYP) =  -657.697483447     A.U. after   10 cycles
 SCF Done:  E(RB3LYP) =  -657.697566339     A.U. after   10 cycles
 SCF Done:  E(RB3LYP) =  -657.697594177     A.U. after    9 cycles
 SCF Done:  E(RB3LYP) =  -657.697599507     A.U. after    8 cycles
 SCF Done:  E(RB3LYP) =  -657.697603384     A.U. after    8 cycles
 SCF Done:  E(RB3LYP) =  -657.697606359     A.U. after    8 cycles
 SCF Done:  E(RB3LYP) =  -657.697617062     A.U. after    9 cycles
 SCF Done:  E(RB3LYP) =  -657.697658942     A.U. after    8 cycles
 SCF Done:  E(RB3LYP) =  -657.697658937     A.U. after    7 cycles
 SCF Done:  E(RB3LYP) =  -657.697659063     A.U. after    8 cycles
 SCF Done:  E(RB3LYP) =  -657.697659021     A.U. after    7 cycles
 SCF Done:  E(RB3LYP) =  -657.697659097     A.U. after    8 cycles
 SCF Done:  E(RB3LYP) =  -657.697659100     A.U. after    5 cycles
 Optimization completed.
    -- Stationary point found.
 Normal termination of Gaussian 16 at Thu Dec 10 15:01:51 2020.

 --------------------------------------------------------------------
 #N Geom=AllCheck Guess=TCheck SCRF=Check GenChk RB3LYP/6-31G(d) Freq
 --------------------------------------------------------------------

 Structure from the checkpoint file:  "JID_5163.chk"
 ------------------------------
 CID_64832731_JID_5163_neutraal
 ------------------------------
 Charge =  0 Multiplicity = 1

 SCF Done:  E(RB3LYP) =  -657.697659100     A.U. after    1 cycles

  Exact polarizability: 153.408  -0.296 149.665  -1.703  -0.544 124.901
 Approx polarizability: 200.322   3.222 194.473  -5.083  -0.589 185.448

                      1                      2                      3
                      A                      A                      A
 Frequencies --     10.5094                35.1592                64.0796
 Red. masses --      3.1411                 3.0450                 2.7398
 Frc consts  --      0.0002                 0.0022                 0.0066
 IR Inten    --      0.1034                 0.0043                 0.1207

                      4                      5                      6
                      A                      A                      A
 Frequencies --     72.7873                99.3398               109.3172
 Red. masses --      3.4375                 2.1241                 2.6817
 Frc consts  --      0.0107                 0.0124                 0.0189
 IR Inten    --      0.0201                 0.1429                 0.5384

                      7                      8                      9
                      A                      A                      A
 Frequencies --    122.7259               161.6982               163.9251
 Red. masses --      2.5643                 2.2982                 2.3213
 Frc consts  --      0.0228                 0.0354                 0.0368
 IR Inten    --      1.2078                 1.7431                 0.2999

                     10                     11                     12
                      A                      A                      A
 Frequencies --    200.8151               234.1608               241.4748
 Red. masses --      2.2820                 1.4945                 1.2048
 Frc consts  --      0.0542                 0.0483                 0.0414
 IR Inten    --      0.7344                 0.3432                 0.1857

                     13                     14                     15
                      A                      A                      A
 Frequencies --    253.3045               268.8621               295.3155
 Red. masses --      1.6418                 1.4009                 2.5696
 Frc consts  --      0.0621                 0.0597                 0.1320
 IR Inten    --      0.8513                 0.4499                 0.6180

                     16                     17                     18
                      A                      A                      A
 Frequencies --    313.7804               335.4032               379.8705
 Red. masses --      2.5694                 2.1604                 2.4146
 Frc consts  --      0.1491                 0.1432                 0.2053
 IR Inten    --      0.8226                 3.1242                 0.9477

                     19                     20                     21
                      A                      A                      A
 Frequencies --    388.8227               416.3998               423.8848
 Red. masses --      2.4914                 3.1437                 2.3261
 Frc consts  --      0.2219                 0.3212                 0.2462
 IR Inten    --      5.7022                 6.5268                 1.1017

                     22                     23                     24
                      A                      A                      A
 Frequencies --    441.3544               460.8085               521.5152
 Red. masses --      2.9516                 2.9794                 2.5955
 Frc consts  --      0.3388                 0.3728                 0.4159
 IR Inten    --      8.9277                 5.5070                 3.2007

                     25                     26                     27
                      A                      A                      A
 Frequencies --    537.1998               565.4947               587.5573
 Red. masses --      2.6626                 2.2860                 1.9377
 Frc consts  --      0.4527                 0.4307                 0.3941
 IR Inten    --      4.7050                 4.4612                32.9836

                     28                     29                     30
                      A                      A                      A
 Frequencies --    751.0199               796.4351               803.7583
 Red. masses --      1.6667                 1.8374                 1.2338
 Frc consts  --      0.5539                 0.6867                 0.4696
 IR Inten    --     14.7096                 1.5645                 7.1300

                     31                     32                     33
                      A                      A                      A
 Frequencies --    812.8458               820.2592               842.0344
 Red. masses --      1.6825                 2.0954                 2.4048
 Frc consts  --      0.6550                 0.8306                 1.0046
 IR Inten    --     50.0099                16.9022                 1.3786

                     34                     35                     36
                      A                      A                      A
 Frequencies --    892.0383               908.4075               917.0592
 Red. masses --      2.0583                 1.8984                 2.1513
 Frc consts  --      0.9650                 0.9230                 1.0660
 IR Inten    --      2.9173                13.1847                 4.7025

                     37                     38                     39
                      A                      A                      A
 Frequencies --    930.0019               947.6511               953.0562
 Red. masses --      1.3506                 1.2934                 2.6910
 Frc consts  --      0.6883                 0.6843                 1.4401
 IR Inten    --      0.5304                 0.7592                22.0013

                     40                     41                     42
                      A                      A                      A
 Frequencies --    994.2953              1017.9786              1047.4212
 Red. masses --      2.1364                 1.6745                 1.7071
 Frc consts  --      1.2444                 1.0224                 1.1034
 IR Inten    --     10.7090                 6.5107                 4.2314

                     43                     44                     45
                      A                      A                      A
 Frequencies --   1059.6539              1073.4809              1081.1354
 Red. masses --      4.0596                 2.6303                 2.1481
 Frc consts  --      2.6857                 1.7859                 1.4793
 IR Inten    --      5.1465                67.3565                15.7646

                     46                     47                     48
                      A                      A                      A
 Frequencies --   1088.9742              1099.4651              1115.9699
 Red. masses --      2.1470                 1.8854                 1.9723
 Frc consts  --      1.5001                 1.3428                 1.4472
 IR Inten    --     28.0002                19.5037                 9.5105

                     49                     50                     51
                      A                      A                      A
 Frequencies --   1147.5328              1149.8958              1155.5321
 Red. masses --      2.2138                 2.1394                 2.5135
 Frc consts  --      1.7176                 1.6667                 1.9774
 IR Inten    --     17.4471                16.4876                16.2340

                     52                     53                     54
                      A                      A                      A
 Frequencies --   1174.9301              1199.3189              1204.8039
 Red. masses --      2.7918                 2.0298                 2.2503
 Frc consts  --      2.2707                 1.7202                 1.9245
 IR Inten    --     11.0520                60.3761               147.3173

                     55                     56                     57
                      A                      A                      A
 Frequencies --   1210.2976              1218.5990              1239.8804
 Red. masses --      2.0404                 1.7752                 1.1907
 Frc consts  --      1.7609                 1.5532                 1.0785
 IR Inten    --      6.3153                10.6594                20.5332

                     58                     59                     60
                      A                      A                      A
 Frequencies --   1261.5573              1281.5903              1312.3953
 Red. masses --      1.2785                 1.3356                 1.2346
 Frc consts  --      1.1989                 1.2925                 1.2529
 IR Inten    --      1.7442                19.9338                 1.7593

                     61                     62                     63
                      A                      A                      A
 Frequencies --   1321.9233              1333.7151              1340.0063
 Red. masses --      1.2104                 1.3188                 1.1973
 Frc consts  --      1.2462                 1.3821                 1.2667
 IR Inten    --      2.4756                 9.4921                 6.4119

                     64                     65                     66
                      A                      A                      A
 Frequencies --   1367.5417              1374.1941              1381.2410
 Red. masses --      1.2398                 1.2946                 1.3257
 Frc consts  --      1.3661                 1.4404                 1.4901
 IR Inten    --      3.1910                 4.7735                 6.6759

                     67                     68                     69
                      A                      A                      A
 Frequencies --   1390.1879              1398.6272              1403.2242
 Red. masses --      1.3810                 1.2714                 1.3472
 Frc consts  --      1.5725                 1.4654                 1.5629
 IR Inten    --      1.6095                23.0035                12.7852

                     70                     71                     72
                      A                      A                      A
 Frequencies --   1410.0070              1414.5701              1424.1665
 Red. masses --      1.4088                 1.2899                 1.3090
 Frc consts  --      1.6503                 1.5208                 1.5643
 IR Inten    --     17.7990                 7.1696                14.8574

                     73                     74                     75
                      A                      A                      A
 Frequencies --   1434.2697              1439.8257              1443.8288
 Red. masses --      1.3052                 1.3627                 1.4016
 Frc consts  --      1.5820                 1.6644                 1.7216
 IR Inten    --      5.7853                14.1559                 0.7759

                     76                     77                     78
                      A                      A                      A
 Frequencies --   1446.5563              1450.9113              1499.5986
 Red. masses --      1.3098                 1.3389                 1.1201
 Frc consts  --      1.6148                 1.6607                 1.4841
 IR Inten    --      0.0332                 7.0991                 3.9494

                     79                     80                     81
                      A                      A                      A
 Frequencies --   1501.7972              1514.1384              1514.2444
 Red. masses --      1.2396                 1.0492                 1.0884
 Frc consts  --      1.6472                 1.4173                 1.4704
 IR Inten    --      1.0672                 1.2722                 6.7250

                     82                     83                     84
                      A                      A                      A
 Frequencies --   1520.1399              1521.3308              1524.7117
 Red. masses --      1.0972                 1.0563                 1.0690
 Frc consts  --      1.4938                 1.4404                 1.4642
 IR Inten    --      1.5841                 0.0825                 2.0363

                     85                     86                     87
                      A                      A                      A
 Frequencies --   1527.9786              1529.5389              1532.6617
 Red. masses --      1.0463                 1.0686                 1.0898
 Frc consts  --      1.4393                 1.4729                 1.5082
 IR Inten    --      7.1293                 9.5446                 0.3265

                     88                     89                     90
                      A                      A                      A
 Frequencies --   1535.8130              1539.1652              1540.9159
 Red. masses --      1.0704                 1.0591                 1.0733
 Frc consts  --      1.4876                 1.4783                 1.5015
 IR Inten    --      1.3185                 1.1732                 3.8349

                     91                     92                     93
                      A                      A                      A
 Frequencies --   1557.4812              2934.9453              2947.1749
 Red. masses --      1.0855                 1.0719                 1.0709
 Frc consts  --      1.5514                 5.4399                 5.4804
 IR Inten    --      6.8318                39.4461               116.8644

                     94                     95                     96
                      A                      A                      A
 Frequencies --   2996.0322              3016.0439              3020.8727
 Red. masses --      1.0833                 1.0545                 1.0666
 Frc consts  --      5.7291                 5.6516                 5.7348
 IR Inten    --     38.5598                32.6528                60.5267

                     97                     98                     99
                      A                      A                      A
 Frequencies --   3037.7479              3042.0128              3046.6550
 Red. masses --      1.0630                 1.0626                 1.0611
 Frc consts  --      5.7796                 5.7935                 5.8031
 IR Inten    --     24.0115                22.6757                 1.9656

                    100                    101                    102
                      A                      A                      A
 Frequencies --   3048.3674              3053.8493              3055.9981
 Red. masses --      1.0395                 1.0604                 1.0435
 Frc consts  --      5.6914                 5.8268                 5.7419
 IR Inten    --     23.4475                40.5566                 3.3723

                    103                    104                    105
                      A                      A                      A
 Frequencies --   3057.7564              3062.4889              3070.3335
 Red. masses --      1.0837                 1.0730                 1.0901
 Frc consts  --      5.9700                 5.9295                 6.0545
 IR Inten    --     31.5329                64.7001                80.0449

                    106                    107                    108
                      A                      A                      A
 Frequencies --   3070.9116              3086.4069              3090.5269
 Red. masses --      1.0991                 1.0997                 1.0897
 Frc consts  --      6.1070                 6.1719                 6.1322
 IR Inten    --     16.8737                36.2415                62.1778

                    109                    110                    111
                      A                      A                      A
 Frequencies --   3094.7946              3110.1007              3111.6169
 Red. masses --      1.0968                 1.1019                 1.1010
 Frc consts  --      6.1895                 6.2799                 6.2805
 IR Inten    --     30.7350                55.8066                41.5522

                    112                    113                    114
                      A                      A                      A
 Frequencies --   3115.3898              3123.5403              3125.3171
 Red. masses --      1.1021                 1.1009                 1.1003
 Frc consts  --      6.3021                 6.3283                 6.3320
 IR Inten    --      2.6033                89.6861                44.8261

                    115                    116                    117
                      A                      A                      A
 Frequencies --   3128.6316              3131.4527              3503.9282
 Red. masses --      1.1032                 1.1029                 1.0748
 Frc consts  --      6.3624                 6.3722                 7.7749
 IR Inten    --     19.3270                30.8896                 1.4844

 - Thermochemistry -
 -------------------
 Temperature   298.150 Kelvin.  Pressure   1.00000 Atm.
 Atom     1 has atomic number  6 and mass  12.00000

 Molecular mass:   214.20451 amu.
 Principal axes and moments of inertia in atomic units:
                           1         2         3
     Eigenvalues --  2760.650314890.376296229.14605
           X            0.99978  -0.01851   0.00989
           Y            0.01845   0.99981   0.00673
           Z           -0.01001  -0.00655   0.99993
 This molecule is an asymmetric top.
 Rotational symmetry number  1.
 Warning -- assumption of classical behavior for rotation
           may cause significant error
 Rotational temperatures (Kelvin)      0.03137     0.01771     0.01390
 Rotational constants (GHZ):           0.65374     0.36904     0.28973
 Zero-point vibrational energy    1001466.0 (Joules/Mol)
                                  239.35613 (Kcal/Mol)
 Warning -- explicit consideration of  27 degrees of freedom as
           vibrations may cause significant error
 Vibrational temperatures:     15.12    50.59    92.20   104.72   142.93
          (Kelvin)            157.28   176.58   232.65   235.85   288.93
                              336.91   347.43   364.45   386.83   424.89
                              451.46   482.57   546.55   559.43   599.11
                              609.88   635.01   663.00   750.34   772.91
                              813.62   845.36  1080.55  1145.89  1156.43
                             1169.50  1180.17  1211.50  1283.44  1307.00
                             1319.44  1338.07  1363.46  1371.24  1430.57
                             1464.64  1507.01  1524.61  1544.50  1555.51
                             1566.79  1581.88  1605.63  1651.04  1654.44
                             1662.55  1690.46  1725.55  1733.44  1741.35
                             1753.29  1783.91  1815.10  1843.92  1888.24
                             1901.95  1918.92  1927.97  1967.59  1977.16
                             1987.30  2000.17  2012.31  2018.93  2028.69
                             2035.25  2049.06  2063.59  2071.59  2077.35
                             2081.27  2087.54  2157.59  2160.75  2178.51
                             2178.66  2187.14  2188.86  2193.72  2198.42
                             2200.67  2205.16  2209.69  2214.52  2217.03
                             2240.87  4222.73  4240.33  4310.62  4339.41
                             4346.36  4370.64  4376.78  4383.46  4385.92
                             4393.81  4396.90  4399.43  4406.24  4417.53
                             4418.36  4440.65  4446.58  4452.72  4474.74
                             4476.92  4482.35  4494.08  4496.63  4501.40
                             4505.46  5041.37

 Zero-point correction=                           0.381438 (Hartree/Particle)
 Thermal correction to Energy=                    0.398673
 Thermal correction to Enthalpy=                  0.399617
 Thermal correction to Gibbs Free Energy=         0.335135
 Sum of electronic and zero-point Energies=           -657.316221
 Sum of electronic and thermal Energies=              -657.298986
 Sum of electronic and thermal Enthalpies=            -657.298042
 Sum of electronic and thermal Free Energies=         -657.362524

                     E (Thermal)             CV                S
                      KCal/Mol        Cal/Mol-Kelvin    Cal/Mol-Kelvin
 Total                  250.171             65.074            135.715
 Electronic               0.000              0.000              0.000
 Translational            0.889              2.981             41.989
 Rotational               0.889              2.981             32.797
 Vibrational            248.394             59.112             60.929
 Vibration     1          0.593              1.987              7.912
 Vibration     2          0.594              1.982              5.515
 Vibration     3          0.597              1.971              4.327
 Vibration     4          0.599              1.967              4.077
 Vibration     5          0.604              1.950              3.467
 Vibration     6          0.606              1.942              3.281
 Vibration     7          0.610              1.930              3.057
 Vibration     8          0.622              1.889              2.530
 Vibration     9          0.623              1.887              2.504
 Vibration    10          0.638              1.839              2.126
 Vibration    11          0.654              1.789              1.847
 Vibration    12          0.658              1.777              1.792
 Vibration    13          0.664              1.757              1.707
 Vibration    14          0.673              1.730              1.604
 Vibration    15          0.690              1.682              1.443
 Vibration    16          0.702              1.647              1.342
 Vibration    17          0.717              1.605              1.234
 Vibration    18          0.750              1.513              1.040
 Vibration    19          0.757              1.494              1.005
 Vibration    20          0.780              1.435              0.904
 Vibration    21          0.786              1.418              0.879
 Vibration    22          0.801              1.380              0.822
 Vibration    23          0.819              1.337              0.764
 Vibration    24          0.876              1.202              0.606
 Vibration    25          0.892              1.168              0.571
 Vibration    26          0.921              1.106              0.513
 Vibration    27          0.945              1.058              0.472

 Optimization completed.
    -- Stationary point found.
 Normal termination of Gaussian 16 at Thu Dec 10 15:16:05 2020.

 ----------------------------------------------------------------------
 # B3LYP/6-311++G(d,p) empiricaldispersion=gd3bj scf=xqc pop=npa geom=c
 heck
 ----------------------------------------------------------------------

 --------------------------------------
 CID_64832731_JID_5163_Energie_neutraal
 --------------------------------------
 Structure from the checkpoint file:  "JID_5163.chk"
 Charge =  0 Multiplicity = 1

 SCF Done:  E(RB3LYP) =  -657.886529695     A.U. after   14 cycles
 Normal termination of Gaussian 16 at Thu Dec 10 15:23:39 2020.

 ----------------------------------------------------------------------
 # B3LYP/6-311++G(d,p) empiricaldispersion=gd3bj scf=xqc pop=npa geom=c
 heck
 ----------------------------------------------------------------------

 ------------------------------------
 CID_64832731_JID_5163_Energie_kation
 ------------------------------------
 Structure from the checkpoint file:  "JID_5163.chk"
 Charge =  1 Multiplicity = 2

 SCF Done:  E(UB3LYP) =  -657.619389102     A.U. after   22 cycles
 Normal termination of Gaussian 16 at Thu Dec 10 15:40:42 2020.
 Gaussian 16:  ES64L-G16RevA.03 25-Dec-2016

 ----------------------------------------------------------------------
 # B3LYP/6-311++G(d,p) empiricaldispersion=gd3bj scf=xqc pop=npa geom=c
 heck
 ----------------------------------------------------------------------

 -----------------------------------
 CID_64832731_JID_5163_Energie_anion
 -----------------------------------
 Structure from the checkpoint file:  "JID_5163.chk"
 Charge = -1 Multiplicity = 2

                         Standard orientation:
 ---------------------------------------------------------------------
 Center     Atomic      Atomic             Coordinates (Angstroms)
 Number     Number       Type             X           Y           Z
 ---------------------------------------------------------------------
      1          6           0       -2.398698    3.041967    0.823011
      2          6           0       -2.823831    2.236346   -0.410222
      3          6           0       -1.740939    1.271921   -0.939120
      4          6           0       -1.882364   -0.173187   -0.446670
      5          6           0       -1.825876   -0.321353    1.086374
      6          7           0       -2.055152   -1.722222    1.442208
      7          6           0       -1.048978   -2.608373    0.860005
      8          6           0       -1.104158   -2.458814   -0.665720
      9          7           0       -0.952818   -1.084927   -1.130198
     10          6           0        0.392706   -0.648761   -1.463597
     11          6           0        1.385547   -0.379260   -0.321557
     12          8           0        2.587515    0.048644   -0.940420
     13          6           0        3.600460    0.581672   -0.082786
     14          6           0        3.195171    1.933521    0.512104
     15          6           0        4.050057   -0.415615    0.987326
     16          1           0       -2.129892    2.396314    1.665461
     17          1           0       -3.202040    3.708282    1.157379
     18          1           0       -1.523783    3.662764    0.595074
     19          1           0       -3.743576    1.676634   -0.192581
     20          1           0       -3.087343    2.943729   -1.205903
     21          1           0       -1.779467    1.237460   -2.033986
     22          1           0       -0.752792    1.672337   -0.678019
     23          1           0       -2.890039   -0.515997   -0.729985
     24          1           0       -2.623200    0.273324    1.543919
     25          1           0       -0.860346    0.070647    1.460630
     26          1           0       -2.067245   -1.823493    2.454021
     27          1           0       -0.025171   -2.391798    1.219396
     28          1           0       -1.286044   -3.642061    1.140113
     29          1           0       -2.085849   -2.827733   -0.996790
     30          1           0       -0.335134   -3.078933   -1.138889
     31          1           0        0.836256   -1.412464   -2.113645
     32          1           0        0.339462    0.263631   -2.064798
     33          1           0        0.986020    0.389306    0.353855
     34          1           0        1.549333   -1.288297    0.274393
     35          1           0        4.438352    0.749287   -0.769872
     36          1           0        2.404098    1.829512    1.263049
     37          1           0        2.836695    2.601041   -0.277969
     38          1           0        4.054119    2.405306    1.002264
     39          1           0        4.944299   -0.043490    1.499336
     40          1           0        3.274893   -0.572568    1.745852
     41          1           0        4.289474   -1.382226    0.532101
 ---------------------------------------------------------------------

 SCF Done:  E(UB3LYP) =  -657.873049746     A.U. after   26 cycles

 The electronic state is 2-A.
 Alpha  occ. eigenvalues --  -19.02364 -14.20642 -14.20170 -10.12596 -10.11194
 Alpha  occ. eigenvalues --  -10.10504 -10.09917 -10.09732 -10.09375 -10.09163
 Alpha  occ. eigenvalues --  -10.08018 -10.07601 -10.06747 -10.06232 -10.06199
 Alpha  occ. eigenvalues --   -0.93592  -0.84544  -0.79389  -0.71118  -0.68991
 Alpha  occ. eigenvalues --   -0.66121  -0.64386  -0.60123  -0.59469  -0.57687
 Alpha  occ. eigenvalues --   -0.53681  -0.52332  -0.49246  -0.47470  -0.45796
 Alpha  occ. eigenvalues --   -0.41917  -0.39962  -0.39113  -0.37399  -0.37229
 Alpha  occ. eigenvalues --   -0.35921  -0.35331  -0.35176  -0.34493  -0.33592
 Alpha  occ. eigenvalues --   -0.32092  -0.31686  -0.31273  -0.30384  -0.29297
 Alpha  occ. eigenvalues --   -0.28542  -0.27857  -0.27192  -0.26971  -0.26165
 Alpha  occ. eigenvalues --   -0.25850  -0.25389  -0.24596  -0.23774  -0.23616
 Alpha  occ. eigenvalues --   -0.22483  -0.21034  -0.16326  -0.13785  -0.10883
 Alpha  occ. eigenvalues --    0.04203
 Alpha virt. eigenvalues --    0.06106   0.06295   0.07077   0.08160   0.08254
 Alpha virt. eigenvalues --    0.08601   0.09050   0.09133   0.10325   0.10376
 Alpha virt. eigenvalues --    0.11000   0.11262   0.11635   0.11783   0.12428

  Beta  occ. eigenvalues --  -19.02364 -14.20638 -14.20150 -10.12586 -10.11181
  Beta  occ. eigenvalues --  -10.10502 -10.09913 -10.09728 -10.09356 -10.09147
  Beta  occ. eigenvalues --  -10.08009 -10.07596 -10.06719 -10.06198 -10.06168
  Beta  occ. eigenvalues --   -0.93586  -0.84530  -0.79361  -0.71102  -0.68965
  Beta  occ. eigenvalues --   -0.66098  -0.64364  -0.60091  -0.59407  -0.57654
  Beta  occ. eigenvalues --   -0.53645  -0.52293  -0.49205  -0.47423  -0.45765
  Beta  occ. eigenvalues --   -0.41872  -0.39947  -0.39080  -0.37369  -0.37197
  Beta  occ. eigenvalues --   -0.35899  -0.35309  -0.35150  -0.34472  -0.33566
  Beta  occ. eigenvalues --   -0.32064  -0.31653  -0.31246  -0.30349  -0.29267
  Beta  occ. eigenvalues --   -0.28514  -0.27823  -0.27169  -0.26942  -0.26138
  Beta  occ. eigenvalues --   -0.25820  -0.25362  -0.24577  -0.23755  -0.23593
  Beta  occ. eigenvalues --   -0.22467  -0.21011  -0.16317  -0.13749  -0.10854
  Beta virt. eigenvalues --    0.06222   0.06775   0.07048   0.07448   0.08476
  Beta virt. eigenvalues --    0.08640   0.08947   0.09371   0.09469   0.10493
  Beta virt. eigenvalues --    0.10679   0.11463   0.11472   0.11963   0.12061

 Mulliken charges and spin densities:
               1          2
     1  C    0.404305  -0.925666
     2  C   -0.687143   0.230804
     3  C    0.004339   0.111699
     4  C   -0.020857  -0.488234
     5  C   -0.037079  -0.499131
     6  N   -0.183845   0.092228
     7  C    0.445964  -0.794281
     8  C   -0.152901   0.111262
     9  N    0.199348   0.040329
    10  C    0.100546  -0.648824
    11  C   -0.849444   0.406663
    12  O   -0.050061  -0.010113
    13  C   -1.041106   1.269220
    14  C    0.731356  -1.256240
    15  C    0.874104  -1.461244
    16  H   -0.147856   0.284987
    17  H   -0.194767   0.324872
    18  H   -0.098502   0.233073
    19  H    0.113978   0.016798
    20  H   -0.041306   0.189307
    21  H    0.107562   0.071864
    22  H    0.223541  -0.126775
    23  H    0.130698   0.045980
    24  H   -0.060159   0.244552
    25  H   -0.235994   0.436097
    26  H   -0.181267   0.427951
    27  H   -0.217726   0.352394
    28  H   -0.193388   0.370265
    29  H    0.143688  -0.009996
    30  H   -0.034882   0.171845
    31  H    0.123094   0.044386
    32  H    0.138119   0.043363
    33  H    0.884704  -0.706657
    34  H    0.474387  -0.335588
    35  H   -0.200197   0.381703
    36  H   -0.267862   0.414109
    37  H   -0.010716   0.147994
    38  H   -0.350734   0.504036
    39  H   -0.439544   0.596856
    40  H   -0.331105   0.488519
    41  H   -0.071292   0.209592
 Sum of Mulliken charges =  -1.00000   1.00000

 Dipole moment (field-independent basis, Debye):
    X=             -3.5428    Y=             -1.4403    Z=             -5.7503  Tot=              6.9060
 Quadrupole moment (field-independent basis, Debye-Ang):
   XX=           -175.8754   YY=           -151.2683   ZZ=           -143.3984
   XY=             -2.7946   XZ=             -2.0135   YZ=              0.5450

 Summary of Natural Population Analysis:

                                       Natural Population
                Natural  -----------------------------------------------
    Atom  No    Charge         Core      Valence    Rydberg      Total
 -----------------------------------------------------------------------
      C    1   -0.28524      0.99966     2.28076    0.00482     3.28524
      C    2   -0.19106      0.99964     2.18299    0.00842     3.19106
      C    3   -0.19747      0.99960     2.18916    0.00871     3.19747
      C    4   -0.00190      0.99957     1.98945    0.01288     3.00190
      C    5   -0.09912      0.99959     2.08744    0.01209     3.09912
      N    6   -0.34192      0.99974     2.82982    0.01236     3.84192
      C    7   -0.09742      0.99962     2.08652    0.01128     3.09742
      C    8   -0.08494      0.99961     2.07408    0.01125     3.08494
      N    9   -0.28238      0.99971     2.77025    0.01241     3.78238
      C   10   -0.08715      0.99960     2.07633    0.01122     3.08715
      C   11   -0.02489      0.99956     2.01331    0.01203     3.02489
      O   12   -0.30833      0.99988     3.29878    0.00967     4.30833
      C   13    0.06750      0.99957     1.91883    0.01410     2.93250
      C   14   -0.30015      0.99964     2.29507    0.00544     3.30015
      C   15   -0.30114      0.99965     2.29623    0.00527     3.30114
      H   16    0.09901      0.00000     0.39971    0.00128     0.40099
      H   17    0.09733      0.00000     0.40175    0.00092     0.40267
      H   18    0.09711      0.00000     0.40178    0.00111     0.40289
      H   19    0.09358      0.00000     0.40532    0.00110     0.40642
      H   20    0.09539      0.00000     0.40371    0.00091     0.40461
      H   21    0.10118      0.00000     0.39772    0.00110     0.39882
      H   22    0.09855      0.00000     0.39989    0.00156     0.40145
      H   23    0.09249      0.00000     0.40579    0.00172     0.40751
      H   24    0.09659      0.00000     0.40186    0.00156     0.40341
      H   25    0.08033      0.00000     0.41727    0.00239     0.41967
      H   26    0.17858      0.00000     0.31782    0.00360     0.32142
      H   27    0.07947      0.00000     0.41832    0.00222     0.42053
      H   28    0.09382      0.00000     0.40486    0.00131     0.40618
      H   29    0.09116      0.00000     0.40755    0.00128     0.40884
      H   30    0.09562      0.00000     0.40351    0.00087     0.40438
      H   31    0.09495      0.00000     0.40381    0.00124     0.40505
      H   32    0.09674      0.00000     0.40180    0.00146     0.40326
      H   33    0.07890      0.00000     0.41844    0.00266     0.42110
      H   34    0.07874      0.00000     0.41905    0.00220     0.42126
      H   35    0.08591      0.00000     0.41261    0.00148     0.41409
      H   36    0.09914      0.00000     0.39951    0.00135     0.40086
      H   37    0.10166      0.00000     0.39721    0.00113     0.39834
      H   38    0.10330      0.00000     0.39548    0.00122     0.39670
      H   39    0.10400      0.00000     0.39468    0.00132     0.39600
      H   40    0.10038      0.00000     0.39823    0.00138     0.39962
      H   41    0.10169      0.00000     0.39725    0.00107     0.39831
 =======================================================================
   * Total *    0.00000     14.99465    44.81396    0.19138    60.00000

 Normal termination of Gaussian 16 at Thu Dec 10 16:08:19 2020.
