 Gaussian 16, Revision A.03,

 -----------------------------------------------------------
 # opt freq B3LYP/6-31G(d) empiricaldispersion=gd3bj scf=xqc
 -----------------------------------------------------------

 ------------------------------
 CID_20230609_JID_3952_neutraal
 ------------------------------
 Symbolic Z-matrix:
 Charge =  0 Multiplicity = 1

 SCF Done:  E(RB3LYP) =  -639.669980236     A.U. after   13 cycles
 SCF Done:  E(RB3LYP) =  -639.678666363     A.U. after   12 cycles
 SCF Done:  E(RB3LYP) =  -639.681148265     A.U. after   12 cycles
 SCF Done:  E(RB3LYP) =  -639.682443288     A.U. after   12 cycles
 SCF Done:  E(RB3LYP) =  -639.683106247     A.U. after   12 cycles
 SCF Done:  E(RB3LYP) =  -639.683306275     A.U. after   11 cycles
 SCF Done:  E(RB3LYP) =  -639.683420915     A.U. after   11 cycles
 SCF Done:  E(RB3LYP) =  -639.683486709     A.U. after   11 cycles
 SCF Done:  E(RB3LYP) =  -639.683504245     A.U. after   10 cycles
 SCF Done:  E(RB3LYP) =  -639.683555369     A.U. after   11 cycles
 SCF Done:  E(RB3LYP) =  -639.690151710     A.U. after    9 cycles
 SCF Done:  E(RB3LYP) =  -639.690155285     A.U. after    9 cycles
 SCF Done:  E(RB3LYP) =  -639.690155898     A.U. after    7 cycles
 SCF Done:  E(RB3LYP) =  -639.690156168     A.U. after    7 cycles
 SCF Done:  E(RB3LYP) =  -639.690156245     A.U. after    7 cycles
 SCF Done:  E(RB3LYP) =  -639.690156310     A.U. after    7 cycles
 Optimization completed.
    -- Stationary point found.
 Normal termination of Gaussian 16 at Mon Dec 14 13:14:58 2020.

 --------------------------------------------------------------------
 #N Geom=AllCheck Guess=TCheck SCRF=Check GenChk RB3LYP/6-31G(d) Freq
 --------------------------------------------------------------------

 Structure from the checkpoint file:  "JID_3952.chk"
 ------------------------------
 CID_20230609_JID_3952_neutraal
 ------------------------------
 Charge =  0 Multiplicity = 1

 SCF Done:  E(RB3LYP) =  -639.690156310     A.U. after    1 cycles

  Exact polarizability: 143.368  -0.584 116.375 -10.517   0.308  62.634
 Approx polarizability: 194.077  -0.456 185.794 -19.155   0.221  89.056

                      1                      2                      3
                      A                      A                      A
 Frequencies --     32.0915                45.0650               129.9344
 Red. masses --      4.2545                 4.1467                 4.7112
 Frc consts  --      0.0026                 0.0050                 0.0469
 IR Inten    --      1.4499                 2.1948                 0.4367

                      4                      5                      6
                      A                      A                      A
 Frequencies --    153.7500               185.2145               195.4700
 Red. masses --      4.1209                 5.9985                 5.2421
 Frc consts  --      0.0574                 0.1212                 0.1180
 IR Inten    --      3.7276                 2.4647                 7.7784

                      7                      8                      9
                      A                      A                      A
 Frequencies --    218.0521               253.3156               274.5799
 Red. masses --      2.6441                 1.4922                 3.1207
 Frc consts  --      0.0741                 0.0564                 0.1386
 IR Inten    --      6.6319                 1.9122                 9.0610

                     10                     11                     12
                      A                      A                      A
 Frequencies --    284.7879               324.1712               335.0361
 Red. masses --      1.2677                 1.2902                 2.4662
 Frc consts  --      0.0606                 0.0799                 0.1631
 IR Inten    --    183.9878               377.6007                40.1909

                     13                     14                     15
                      A                      A                      A
 Frequencies --    373.1983               404.9460               429.9847
 Red. masses --      2.2355                 3.1177                 2.9667
 Frc consts  --      0.1834                 0.3012                 0.3232
 IR Inten    --     15.1512                11.1143                 3.0188

                     16                     17                     18
                      A                      A                      A
 Frequencies --    484.8060               509.5129               531.6204
 Red. masses --      1.1522                 1.7076                 1.1897
 Frc consts  --      0.1596                 0.2612                 0.1981
 IR Inten    --     79.2649                15.1627                20.5993

                     19                     20                     21
                      A                      A                      A
 Frequencies --    551.6630               595.9538               610.9187
 Red. masses --      1.4356                 6.6033                 2.5900
 Frc consts  --      0.2574                 1.3818                 0.5695
 IR Inten    --      2.6468                 7.2932                34.8429

                     22                     23                     24
                      A                      A                      A
 Frequencies --    619.2149               678.3703               701.2594
 Red. masses --      1.3137                 3.7876                 2.8253
 Frc consts  --      0.2968                 1.0269                 0.8186
 IR Inten    --     57.8811                 0.9705                 6.2271

                     25                     26                     27
                      A                      A                      A
 Frequencies --    736.3090               736.8911               801.4794
 Red. masses --     10.0945                10.4283                 3.4615
 Frc consts  --      3.2244                 3.3364                 1.3101
 IR Inten    --      1.2056                 0.8434                 2.4875

                     28                     29                     30
                      A                      A                      A
 Frequencies --    823.1873               911.6614               972.4057
 Red. masses --     12.0904                 1.8317                 2.3212
 Frc consts  --      4.8271                 0.8970                 1.2932
 IR Inten    --     78.8067                 3.0788                 7.5076

                     31                     32                     33
                      A                      A                      A
 Frequencies --    993.4818              1001.3501              1037.8958
 Red. masses --      3.9240                 3.7935                 1.6246
 Frc consts  --      2.2819                 2.2411                 1.0311
 IR Inten    --      3.0214                 4.6133                25.5662

                     34                     35                     36
                      A                      A                      A
 Frequencies --   1088.0991              1101.3297              1147.9106
 Red. masses --      2.0587                 2.4497                 2.5539
 Frc consts  --      1.4361                 1.7507                 1.9827
 IR Inten    --      2.3456                41.0328                 8.0417

                     37                     38                     39
                      A                      A                      A
 Frequencies --   1179.0964              1186.3230              1221.4826
 Red. masses --      2.4217                 2.5025                 2.7195
 Frc consts  --      1.9837                 2.0751                 2.3907
 IR Inten    --      5.4071                20.4997                11.6673

                     40                     41                     42
                      A                      A                      A
 Frequencies --   1309.0330              1337.7010              1348.1511
 Red. masses --      1.6963                 1.6883                 1.8103
 Frc consts  --      1.7126                 1.7800                 1.9386
 IR Inten    --      4.5734                 3.2885                 6.1562

                     43                     44                     45
                      A                      A                      A
 Frequencies --   1391.5017              1397.6854              1426.0399
 Red. masses --      1.3514                 1.3540                 1.6947
 Frc consts  --      1.5417                 1.5584                 2.0305
 IR Inten    --     27.3533                96.4141                37.1060

                     46                     47                     48
                      A                      A                      A
 Frequencies --   1438.0116              1484.3171              1502.1926
 Red. masses --      1.3938                 1.7461                 1.3884
 Frc consts  --      1.6981                 2.2666                 1.8459
 IR Inten    --     19.6634               163.2612                67.6536

                     49                     50                     51
                      A                      A                      A
 Frequencies --   1510.3905              1521.6831              1526.6003
 Red. masses --      1.3944                 1.4763                 1.0753
 Frc consts  --      1.8742                 2.0140                 1.4765
 IR Inten    --    110.5977                74.0487                 2.3158

                     52                     53                     54
                      A                      A                      A
 Frequencies --   1558.0391              1595.5534              1624.0350
 Red. masses --      1.3582                 2.8339                 5.0417
 Frc consts  --      1.9425                 4.2506                 7.8346
 IR Inten    --     81.0888               190.4690               535.9656

                     55                     56                     57
                      A                      A                      A
 Frequencies --   1639.5826              1658.6291              1696.6842
 Red. masses --      2.8043                 1.7170                 2.3826
 Frc consts  --      4.4417                 2.7830                 4.0411
 IR Inten    --    750.9254               870.7114                73.7122

                     58                     59                     60
                      A                      A                      A
 Frequencies --   3028.5036              3046.6716              3058.1011
 Red. masses --      1.0837                 1.0398                 1.0633
 Frc consts  --      5.8561                 5.6868                 5.8588
 IR Inten    --     52.5941                26.5655                53.5281

                     61                     62                     63
                      A                      A                      A
 Frequencies --   3111.9770              3117.5060              3139.6009
 Red. masses --      1.1020                 1.0985                 1.1030
 Frc consts  --      6.2876                 6.2903                 6.4060
 IR Inten    --      7.0024                56.6773                33.6793

                     64                     65                     66
                      A                      A                      A
 Frequencies --   3477.3090              3610.4606              3611.8743
 Red. masses --      1.0669                 1.0449                 1.0453
 Frc consts  --      7.6011                 8.0247                 8.0346
 IR Inten    --    624.7053               101.1875                46.0471

                     67                     68                     69
                      A                      A                      A
 Frequencies --   3641.9127              3736.4703              3737.2128
 Red. masses --      1.0769                 1.1048                 1.1046
 Frc consts  --      8.4156                 9.0882                 9.0896
 IR Inten    --     45.7762                39.4038                51.0293

 - Thermochemistry -
 -------------------
 Temperature   298.150 Kelvin.  Pressure   1.00000 Atm.
 Atom     1 has atomic number  6 and mass  12.00000

 Molecular mass:   184.10726 amu.
 Principal axes and moments of inertia in atomic units:
                           1         2         3
     Eigenvalues --  1296.279503409.537474268.10376
           X            0.99992  -0.01297   0.00132
           Y            0.01297   0.99991  -0.00364
           Z           -0.00127   0.00365   0.99999
 This molecule is an asymmetric top.
 Rotational symmetry number  1.
 Warning -- assumption of classical behavior for rotation
           may cause significant error
 Rotational temperatures (Kelvin)      0.06682     0.02540     0.02029
 Rotational constants (GHZ):           1.39225     0.52932     0.42284
 Zero-point vibrational energy     545169.7 (Joules/Mol)
                                  130.29868 (Kcal/Mol)
 Warning -- explicit consideration of  22 degrees of freedom as
           vibrations may cause significant error
 Vibrational temperatures:     46.17    64.84   186.95   221.21   266.48
          (Kelvin)            281.24   313.73   364.46   395.06   409.75
                              466.41   482.04   536.95   582.63   618.65
                              697.53   733.08   764.88   793.72   857.44
                              878.98   890.91   976.02  1008.96  1059.38
                             1060.22  1153.15  1184.38  1311.68  1399.07
                             1429.40  1440.72  1493.30  1565.53  1584.57
                             1651.59  1696.46  1706.85  1757.44  1883.41
                             1924.65  1939.69  2002.06  2010.96  2051.75
                             2068.98  2135.60  2161.32  2173.12  2189.36
                             2196.44  2241.67  2295.65  2336.62  2358.99
                             2386.40  2441.15  4357.34  4383.48  4399.93
                             4477.44  4485.40  4517.19  5003.07  5194.65
                             5196.68  5239.90  5375.95  5377.02

 Zero-point correction=                           0.207644 (Hartree/Particle)
 Thermal correction to Energy=                    0.220572
 Thermal correction to Enthalpy=                  0.221517
 Thermal correction to Gibbs Free Energy=         0.168246
 Sum of electronic and zero-point Energies=           -639.482512
 Sum of electronic and thermal Energies=              -639.469584
 Sum of electronic and thermal Enthalpies=            -639.468640
 Sum of electronic and thermal Free Energies=         -639.521910

                     E (Thermal)             CV                S
                      KCal/Mol        Cal/Mol-Kelvin    Cal/Mol-Kelvin
 Total                  138.411             49.303            112.117
 Electronic               0.000              0.000              0.000
 Translational            0.889              2.981             41.537
 Rotational               0.889              2.981             31.312
 Vibrational            136.634             43.341             39.268
 Vibration     1          0.594              1.983              5.696
 Vibration     2          0.595              1.979              5.023
 Vibration     3          0.612              1.923              2.947
 Vibration     4          0.619              1.898              2.625
 Vibration     5          0.631              1.860              2.275
 Vibration     6          0.636              1.846              2.175
 Vibration     7          0.646              1.814              1.975
 Vibration     8          0.664              1.757              1.707
 Vibration     9          0.677              1.720              1.567
 Vibration    10          0.683              1.702              1.505
 Vibration    11          0.709              1.627              1.289
 Vibration    12          0.716              1.606              1.236
 Vibration    13          0.745              1.527              1.067
 Vibration    14          0.770              1.459              0.945
 Vibration    15          0.791              1.405              0.859
 Vibration    16          0.841              1.284              0.697
 Vibration    17          0.865              1.229              0.635
 Vibration    18          0.887              1.180              0.584
 Vibration    19          0.907              1.136              0.541
 Vibration    20          0.954              1.040              0.457
 Vibration    21          0.970              1.009              0.431
 Vibration    22          0.979              0.991              0.418

 Optimization completed.
    -- Stationary point found.
 Normal termination of Gaussian 16 at Mon Dec 14 13:20:34 2020.

 ----------------------------------------------------------------------
 # B3LYP/6-311++G(d,p) empiricaldispersion=gd3bj scf=xqc pop=npa geom=c
 heck
 ----------------------------------------------------------------------

 --------------------------------------
 CID_20230609_JID_3952_Energie_neutraal
 --------------------------------------
 Structure from the checkpoint file:  "JID_3952.chk"
 Charge =  0 Multiplicity = 1

 SCF Done:  E(RB3LYP) =  -639.896007509     A.U. after   13 cycles
 Normal termination of Gaussian 16 at Mon Dec 14 13:22:22 2020.

 ----------------------------------------------------------------------
 # B3LYP/6-311++G(d,p) empiricaldispersion=gd3bj scf=xqc pop=npa geom=c
 heck
 ----------------------------------------------------------------------

 ------------------------------------
 CID_20230609_JID_3952_Energie_kation
 ------------------------------------
 Structure from the checkpoint file:  "JID_3952.chk"
 Charge =  1 Multiplicity = 2

 SCF Done:  E(UB3LYP) =  -639.588211207     A.U. after   26 cycles
 Normal termination of Gaussian 16 at Mon Dec 14 13:27:34 2020.
 Gaussian 16:  ES64L-G16RevA.03 25-Dec-2016

 ----------------------------------------------------------------------
 # B3LYP/6-311++G(d,p) empiricaldispersion=gd3bj scf=xqc pop=npa geom=c
 heck
 ----------------------------------------------------------------------

 -----------------------------------
 CID_20230609_JID_3952_Energie_anion
 -----------------------------------
 Structure from the checkpoint file:  "JID_3952.chk"
 Charge = -1 Multiplicity = 2

                         Standard orientation:
 ---------------------------------------------------------------------
 Center     Atomic      Atomic             Coordinates (Angstroms)
 Number     Number       Type             X           Y           Z
 ---------------------------------------------------------------------
      1          6           0        3.004023   -0.590634    1.404783
      2          6           0        2.990684    0.030689    0.006881
      3          6           0        2.195390   -0.820551   -1.009014
      4          7           0        0.925115   -1.365813   -0.537263
      5          6           0       -0.213392   -0.667665   -0.313885
      6          7           0       -1.324341   -1.395280   -0.096858
      7          6           0       -2.419908   -0.657814    0.137877
      8          7           0       -2.492590    0.686548    0.163579
      9          6           0       -1.322483    1.291781   -0.075199
     10          7           0       -0.145512    0.677847   -0.308208
     11          7           0       -1.319941    2.648887   -0.100845
     12          7           0       -3.581484   -1.332105    0.344581
     13          8           0        2.548928    1.375895    0.036390
     14          1           0        1.989387   -0.635232    1.813564
     15          1           0        3.617203    0.022647    2.071302
     16          1           0        3.411869   -1.609582    1.391677
     17          1           0        4.021079    0.066166   -0.374000
     18          1           0        2.031510   -0.210005   -1.905450
     19          1           0        2.799152   -1.686123   -1.297698
     20          1           0        0.792881   -2.366326   -0.538476
     21          1           0       -2.136971    3.124237    0.249944
     22          1           0       -0.433881    3.130592   -0.094660
     23          1           0       -3.521694   -2.321496    0.529897
     24          1           0       -4.364333   -0.812326    0.710342
     25          1           0        1.567762    1.334857   -0.011117
 ---------------------------------------------------------------------

 SCF Done:  E(UB3LYP) =  -639.883222155     A.U. after   30 cycles

 The electronic state is 2-A.
 Alpha  occ. eigenvalues --  -18.99706 -14.23853 -14.23787 -14.22919 -14.20613
 Alpha  occ. eigenvalues --  -14.19809 -14.19652 -10.18714 -10.18230 -10.18099
 Alpha  occ. eigenvalues --  -10.11929 -10.10881 -10.05688  -0.93642  -0.90778
 Alpha  occ. eigenvalues --   -0.86589  -0.85899  -0.79814  -0.76559  -0.76063
 Alpha  occ. eigenvalues --   -0.66433  -0.60657  -0.56716  -0.55018  -0.50315
 Alpha  occ. eigenvalues --   -0.48911  -0.46409  -0.43423  -0.40860  -0.39600
 Alpha  occ. eigenvalues --   -0.38051  -0.36820  -0.36744  -0.36188  -0.34183
 Alpha  occ. eigenvalues --   -0.31829  -0.31144  -0.28462  -0.28339  -0.28197
 Alpha  occ. eigenvalues --   -0.26399  -0.25673  -0.22711  -0.17755  -0.17217
 Alpha  occ. eigenvalues --   -0.16835  -0.16388  -0.15349  -0.14076   0.04247
 Alpha virt. eigenvalues --    0.05835   0.06323   0.08571   0.08722   0.09064
 Alpha virt. eigenvalues --    0.09326   0.09673   0.10251   0.10921   0.11713
 Alpha virt. eigenvalues --    0.12113   0.12295   0.13851   0.14682   0.16331

  Beta  occ. eigenvalues --  -18.99700 -14.23817 -14.23766 -14.22869 -14.20600
  Beta  occ. eigenvalues --  -14.19789 -14.19637 -10.18712 -10.18230 -10.18097
  Beta  occ. eigenvalues --  -10.11922 -10.10855 -10.05667  -0.93625  -0.90763
  Beta  occ. eigenvalues --   -0.86558  -0.85860  -0.79763  -0.76524  -0.76021
  Beta  occ. eigenvalues --   -0.66397  -0.60615  -0.56661  -0.54965  -0.50286
  Beta  occ. eigenvalues --   -0.48864  -0.46354  -0.43369  -0.40804  -0.39569
  Beta  occ. eigenvalues --   -0.38013  -0.36779  -0.36701  -0.36162  -0.34152
  Beta  occ. eigenvalues --   -0.31802  -0.31093  -0.28428  -0.28309  -0.28165
  Beta  occ. eigenvalues --   -0.26372  -0.25652  -0.22685  -0.17727  -0.17180
  Beta  occ. eigenvalues --   -0.16801  -0.16368  -0.15316  -0.14054
  Beta virt. eigenvalues --    0.06634   0.07170   0.07616   0.08934   0.09167
  Beta virt. eigenvalues --    0.09292   0.09567   0.10122   0.10708   0.11632
  Beta virt. eigenvalues --    0.12077   0.12348   0.12717   0.13961   0.14874

 Mulliken charges and spin densities:
               1          2
     1  C    0.248926  -0.738501
     2  C   -0.592536   0.481375
     3  C    1.151369  -1.504826
     4  N   -0.245747  -0.037274
     5  C    0.895785  -1.094504
     6  N   -0.240121   0.087707
     7  C   -0.145673   0.233491
     8  N   -0.116407  -0.144724
     9  C    0.410310  -0.226049
    10  N   -0.311378  -0.027628
    11  N   -0.357087   0.044553
    12  N   -0.477547   0.184475
    13  O   -0.232338  -0.026260
    14  H   -0.039727   0.211854
    15  H    0.005811   0.141333
    16  H   -0.136817   0.261912
    17  H   -0.057331   0.225038
    18  H    0.174740   0.036884
    19  H   -0.754525   0.915737
    20  H    0.039209   0.321765
    21  H   -0.143495   0.429573
    22  H    0.064532   0.205280
    23  H   -0.215228   0.492669
    24  H   -0.363229   0.647514
    25  H    0.438505  -0.121396
 Sum of Mulliken charges =  -1.00000   1.00000

 Dipole moment (field-independent basis, Debye):
    X=              1.5472    Y=              2.6189    Z=             -0.5104  Tot=              3.0843
 Quadrupole moment (field-independent basis, Debye-Ang):
   XX=           -153.6310   YY=           -124.6512   ZZ=           -101.7597
   XY=              1.4779   XZ=              5.8994   YZ=             -1.0509

 Summary of Natural Population Analysis:

                                       Natural Population
                Natural  -----------------------------------------------
    Atom  No    Charge         Core      Valence    Rydberg      Total
 -----------------------------------------------------------------------
      C    1   -0.29870      0.99964     2.29285    0.00621     3.29870
      C    2    0.05672      0.99959     1.92859    0.01510     2.94328
      C    3   -0.09923      0.99959     2.08775    0.01189     3.09923
      N    4   -0.30298      0.99965     2.79194    0.01139     3.80298
      C    5    0.32250      0.99959     1.65967    0.01824     2.67750
      N    6   -0.31387      0.99964     2.80408    0.01016     3.81387
      C    7    0.31221      0.99962     1.66932    0.01884     2.68779
      N    8   -0.31780      0.99964     2.80745    0.01071     3.81780
      C    9    0.31778      0.99962     1.66420    0.01840     2.68222
      N   10   -0.34389      0.99961     2.83347    0.01081     3.84389
      N   11   -0.38413      0.99969     2.87621    0.00823     3.88413
      N   12   -0.38160      0.99969     2.87304    0.00887     3.88160
      O   13   -0.39341      0.99989     3.38610    0.00742     4.39341
      H   14    0.10131      0.00000     0.39745    0.00125     0.39869
      H   15    0.10030      0.00000     0.39878    0.00093     0.39970
      H   16    0.09894      0.00000     0.39980    0.00125     0.40106
      H   17    0.08275      0.00000     0.41588    0.00136     0.41725
      H   18    0.09944      0.00000     0.39916    0.00141     0.40056
      H   19    0.10514      0.00000     0.39209    0.00277     0.39486
      H   20    0.20204      0.00000     0.29388    0.00408     0.29796
      H   21    0.19909      0.00000     0.29791    0.00300     0.30091
      H   22    0.19668      0.00000     0.30150    0.00182     0.30332
      H   23    0.19858      0.00000     0.29716    0.00426     0.30142
      H   24    0.19820      0.00000     0.29714    0.00466     0.30180
      H   25    0.24393      0.00000     0.25210    0.00397     0.25607
 =======================================================================
   * Total *   -0.00000     12.99548    35.81751    0.18701    49.00000

 Normal termination of Gaussian 16 at Mon Dec 14 13:33:23 2020.
