 Gaussian 16, Revision A.03,

 -----------------------------------------------------------
 # opt freq B3LYP/6-31G(d) empiricaldispersion=gd3bj scf=xqc
 -----------------------------------------------------------

 ------------------------------
 CID_81956413_JID_9460_neutraal
 ------------------------------
 Symbolic Z-matrix:
 Charge =  0 Multiplicity = 1

 SCF Done:  E(RB3LYP) =  -821.346682830     A.U. after   14 cycles
 SCF Done:  E(RB3LYP) =  -821.350732556     A.U. after   12 cycles
 SCF Done:  E(RB3LYP) =  -821.351534247     A.U. after   12 cycles
 SCF Done:  E(RB3LYP) =  -821.351868994     A.U. after   12 cycles
 SCF Done:  E(RB3LYP) =  -821.351995284     A.U. after   11 cycles
 SCF Done:  E(RB3LYP) =  -821.352043082     A.U. after   10 cycles
 SCF Done:  E(RB3LYP) =  -821.352055818     A.U. after   10 cycles
 SCF Done:  E(RB3LYP) =  -821.352063130     A.U. after    9 cycles
 SCF Done:  E(RB3LYP) =  -821.352070746     A.U. after    9 cycles
 SCF Done:  E(RB3LYP) =  -821.352076575     A.U. after   10 cycles
 SCF Done:  E(RB3LYP) =  -821.352769441     A.U. after    9 cycles
 SCF Done:  E(RB3LYP) =  -821.352772469     A.U. after    9 cycles
 SCF Done:  E(RB3LYP) =  -821.352774741     A.U. after    9 cycles
 SCF Done:  E(RB3LYP) =  -821.352775769     A.U. after    8 cycles
 SCF Done:  E(RB3LYP) =  -821.352775805     A.U. after    6 cycles
 Optimization completed.
    -- Stationary point found.
 Normal termination of Gaussian 16 at Sun Dec 13 16:47:23 2020.

 --------------------------------------------------------------------
 #N Geom=AllCheck Guess=TCheck SCRF=Check GenChk RB3LYP/6-31G(d) Freq
 --------------------------------------------------------------------

 Structure from the checkpoint file:  "JID_9460.chk"
 ------------------------------
 CID_81956413_JID_9460_neutraal
 ------------------------------
 Charge =  0 Multiplicity = 1

 SCF Done:  E(RB3LYP) =  -821.352775806     A.U. after    1 cycles

  Exact polarizability: 195.081  17.182 190.955 -20.733   1.747 120.920
 Approx polarizability: 261.970  27.105 329.375 -38.788   0.228 203.483

                      1                      2                      3
                      A                      A                      A
 Frequencies --     16.7574                26.7695                48.1537
 Red. masses --      4.8231                 5.5702                 4.2925
 Frc consts  --      0.0008                 0.0024                 0.0059
 IR Inten    --      0.1688                 1.3326                 3.1857

                      4                      5                      6
                      A                      A                      A
 Frequencies --     59.2585                78.3871               112.3357
 Red. masses --      4.6429                 3.8988                 1.1879
 Frc consts  --      0.0096                 0.0141                 0.0088
 IR Inten    --      0.2875                 0.6601                 0.3132

                      7                      8                      9
                      A                      A                      A
 Frequencies --    129.8794               134.9616               164.0570
 Red. masses --      3.4747                 3.3206                 3.4405
 Frc consts  --      0.0345                 0.0356                 0.0546
 IR Inten    --      2.3040                 0.6697                 0.4857

                     10                     11                     12
                      A                      A                      A
 Frequencies --    201.2472               253.5715               264.3811
 Red. masses --      3.1914                 2.4940                 4.1882
 Frc consts  --      0.0762                 0.0945                 0.1725
 IR Inten    --      1.2951                 4.5037                 1.7864

                     13                     14                     15
                      A                      A                      A
 Frequencies --    275.0516               304.2789               322.1953
 Red. masses --      2.4021                 4.6315                 2.7200
 Frc consts  --      0.1071                 0.2526                 0.1664
 IR Inten    --      0.4562                 0.6404                 4.1747

                     16                     17                     18
                      A                      A                      A
 Frequencies --    370.5946               409.4323               439.7459
 Red. masses --      2.6477                 4.8745                 3.0934
 Frc consts  --      0.2142                 0.4814                 0.3524
 IR Inten    --      1.1627                 2.8959                 1.5952

                     19                     20                     21
                      A                      A                      A
 Frequencies --    501.4370               534.0382               539.4967
 Red. masses --      5.4453                 3.8670                 3.4829
 Frc consts  --      0.8067                 0.6498                 0.5973
 IR Inten    --      0.2654                 1.1973                 4.5971

                     22                     23                     24
                      A                      A                      A
 Frequencies --    585.4763               609.8208               627.8565
 Red. masses --      4.2558                 4.9837                 3.6194
 Frc consts  --      0.8595                 1.0920                 0.8406
 IR Inten    --      0.8046                 5.1601                 8.2847

                     25                     26                     27
                      A                      A                      A
 Frequencies --    656.4187               667.2084               680.2759
 Red. masses --      5.0411                 5.8066                 5.2788
 Frc consts  --      1.2798                 1.5230                 1.4393
 IR Inten    --      2.0823                 4.0629                 1.3936

                     28                     29                     30
                      A                      A                      A
 Frequencies --    697.7768               754.0763               757.9811
 Red. masses --      2.4290                 1.2022                 3.1952
 Frc consts  --      0.6968                 0.4028                 1.0816
 IR Inten    --      9.4232                55.9958                16.9027

                     31                     32                     33
                      A                      A                      A
 Frequencies --    760.5523               781.8896               815.4998
 Red. masses --      1.4804                 3.7754                 1.4164
 Frc consts  --      0.5045                 1.3599                 0.5550
 IR Inten    --     45.9694                 6.3850               109.6661

                     34                     35                     36
                      A                      A                      A
 Frequencies --    824.8420               856.8051               865.9684
 Red. masses --      1.2666                 2.1365                 1.6971
 Frc consts  --      0.5077                 0.9241                 0.7498
 IR Inten    --      0.6926                 3.1799                 1.3603

                     37                     38                     39
                      A                      A                      A
 Frequencies --    871.0143               882.6018               901.7752
 Red. masses --      3.4388                 1.2975                 3.4148
 Frc consts  --      1.5371                 0.5955                 1.6361
 IR Inten    --      6.9336                 3.6749                 6.5501

                     40                     41                     42
                      A                      A                      A
 Frequencies --    929.5520               939.8533               947.9313
 Red. masses --      1.3530                 3.6795                 3.8716
 Frc consts  --      0.6888                 1.9150                 2.0497
 IR Inten    --      2.0594                 0.9646                11.0157

                     43                     44                     45
                      A                      A                      A
 Frequencies --    969.3494               993.3545               997.7261
 Red. masses --      1.2289                 1.9506                 2.2761
 Frc consts  --      0.6803                 1.1341                 1.3349
 IR Inten    --      0.1764                20.1396                21.2033

                     46                     47                     48
                      A                      A                      A
 Frequencies --   1026.1108              1040.0456              1071.0244
 Red. masses --      2.1825                 2.0273                 1.6365
 Frc consts  --      1.3539                 1.2921                 1.1060
 IR Inten    --     21.4989                 4.7404                11.6885

                     49                     50                     51
                      A                      A                      A
 Frequencies --   1076.6950              1078.7755              1120.0169
 Red. masses --      1.7772                 1.5567                 2.1048
 Frc consts  --      1.2138                 1.0674                 1.5557
 IR Inten    --     19.9746                 6.8824                 7.3041

                     52                     53                     54
                      A                      A                      A
 Frequencies --   1125.1393              1135.3509              1162.2651
 Red. masses --      1.9402                 1.7351                 2.4494
 Frc consts  --      1.4471                 1.3178                 1.9495
 IR Inten    --      0.3843                11.0765                43.9577

                     55                     56                     57
                      A                      A                      A
 Frequencies --   1179.7676              1190.9444              1206.4538
 Red. masses --      2.0672                 1.5437                 1.8642
 Frc consts  --      1.6952                 1.2901                 1.5987
 IR Inten    --     19.9060                 2.1282                39.5357

                     58                     59                     60
                      A                      A                      A
 Frequencies --   1220.6851              1254.4931              1276.9111
 Red. masses --      2.1412                 1.4706                 1.3249
 Frc consts  --      1.8799                 1.3636                 1.2728
 IR Inten    --     15.7309                 5.4351                 7.1708

                     61                     62                     63
                      A                      A                      A
 Frequencies --   1292.5036              1309.9874              1317.0832
 Red. masses --      4.3002                 1.7092                 1.6545
 Frc consts  --      4.2325                 1.7281                 1.6910
 IR Inten    --     26.7662                 6.6872                 6.8111

                     64                     65                     66
                      A                      A                      A
 Frequencies --   1337.8929              1354.7474              1389.8815
 Red. masses --      2.1932                 1.8814                 2.5629
 Frc consts  --      2.3130                 2.0344                 2.9170
 IR Inten    --     19.4610                 3.1294                 5.2394

                     67                     68                     69
                      A                      A                      A
 Frequencies --   1408.5480              1414.1607              1415.6127
 Red. masses --      2.4217                 1.8311                 1.4877
 Frc consts  --      2.8308                 2.1576                 1.7565
 IR Inten    --      9.0454                 3.8803                12.9549

                     70                     71                     72
                      A                      A                      A
 Frequencies --   1429.3616              1445.8444              1450.5924
 Red. masses --      1.5108                 3.7530                 1.5168
 Frc consts  --      1.8186                 4.6225                 1.8805
 IR Inten    --     10.0733                23.2284                 3.9946

                     73                     74                     75
                      A                      A                      A
 Frequencies --   1489.9229              1498.7122              1500.1653
 Red. masses --      3.3875                 2.1264                 1.0782
 Frc consts  --      4.4306                 2.8141                 1.4297
 IR Inten    --     10.7498                38.2333                 7.6061

                     76                     77                     78
                      A                      A                      A
 Frequencies --   1502.8291              1516.5555              1522.1029
 Red. masses --      1.1260                 1.1588                 1.1881
 Frc consts  --      1.4983                 1.5702                 1.6217
 IR Inten    --      4.0790                 5.5055                23.0687

                     79                     80                     81
                      A                      A                      A
 Frequencies --   1527.0054              1529.2946              1543.6550
 Red. masses --      2.4990                 1.2096                 1.0927
 Frc consts  --      3.4332                 1.6667                 1.5341
 IR Inten    --     11.1620                24.9231                 4.0027

                     82                     83                     84
                      A                      A                      A
 Frequencies --   1569.2202              1646.3563              1672.6078
 Red. masses --      3.7340                 6.5910                 7.4740
 Frc consts  --      5.4175                10.5257                12.3195
 IR Inten    --     13.3463                 1.1739                 3.8333

                     85                     86                     87
                      A                      A                      A
 Frequencies --   1691.3366              2978.7971              3027.4729
 Red. masses --      7.6183                 1.0672                 1.0914
 Frc consts  --     12.8401                 5.5792                 5.8936
 IR Inten    --     16.8333                54.9229                35.6262

                     88                     89                     90
                      A                      A                      A
 Frequencies --   3046.3308              3047.2161              3064.0032
 Red. masses --      1.0411                 1.0676                 1.0658
 Frc consts  --      5.6926                 5.8405                 5.8950
 IR Inten    --     39.3673                21.6635                64.0286

                     91                     92                     93
                      A                      A                      A
 Frequencies --   3100.3994              3113.2990              3132.8062
 Red. masses --      1.0987                 1.0980                 1.0988
 Frc consts  --      6.2224                 6.2705                 6.3537
 IR Inten    --     11.0049                 1.1679                30.0292

                     94                     95                     96
                      A                      A                      A
 Frequencies --   3151.4832              3187.5955              3202.5586
 Red. masses --      1.0988                 1.0860                 1.0905
 Frc consts  --      6.4299                 6.5013                 6.5898
 IR Inten    --      6.1359                 4.1397                21.3143

                     97                     98                     99
                      A                      A                      A
 Frequencies --   3217.9552              3222.6848              3258.8150
 Red. masses --      1.0935                 1.0954                 1.0926
 Frc consts  --      6.6714                 6.7028                 6.8362
 IR Inten    --     17.0777                11.2696                 4.6627

                    100                    101                    102
                      A                      A                      A
 Frequencies --   3268.3547              3288.8960              3511.2756
 Red. masses --      1.0938                 1.1057                 1.0740
 Frc consts  --      6.8843                 7.0468                 7.8018
 IR Inten    --      3.1237                 1.4709                 3.0617

 - Thermochemistry -
 -------------------
 Temperature   298.150 Kelvin.  Pressure   1.00000 Atm.
 Atom     1 has atomic number  6 and mass  12.00000

 Molecular mass:   255.13716 amu.
 Principal axes and moments of inertia in atomic units:
                           1         2         3
     Eigenvalues --  2380.438158346.416619693.27459
           X            0.99996   0.00442  -0.00747
           Y           -0.00438   0.99998   0.00458
           Z            0.00749  -0.00454   0.99996
 This molecule is an asymmetric top.
 Rotational symmetry number  1.
 Warning -- assumption of classical behavior for rotation
           may cause significant error
 Rotational temperatures (Kelvin)      0.03639     0.01038     0.00894
 Rotational constants (GHZ):           0.75816     0.21623     0.18618
 Zero-point vibrational energy     791462.7 (Joules/Mol)
                                  189.16414 (Kcal/Mol)
 Warning -- explicit consideration of  23 degrees of freedom as
           vibrations may cause significant error
 Vibrational temperatures:     24.11    38.52    69.28    85.26   112.78
          (Kelvin)            161.63   186.87   194.18   236.04   289.55
                              364.83   380.39   395.74   437.79   463.57
                              533.20   589.08   632.70   721.46   768.36
                              776.22   842.37   877.40   903.35   944.44
                              959.96   978.77  1003.95  1084.95  1090.57
                             1094.27  1124.96  1173.32  1186.76  1232.75
                             1245.94  1253.20  1269.87  1297.45  1337.42
                             1352.24  1363.86  1394.68  1429.22  1435.51
                             1476.34  1496.39  1540.97  1549.12  1552.12
                             1611.45  1618.82  1633.52  1672.24  1697.42
                             1713.50  1735.82  1756.29  1804.94  1837.19
                             1859.62  1884.78  1894.99  1924.93  1949.18
                             1999.73  2026.59  2034.66  2036.75  2056.53
                             2080.25  2087.08  2143.67  2156.31  2158.40
                             2162.24  2181.99  2189.97  2197.02  2200.31
                             2220.98  2257.76  2368.74  2406.51  2433.46
                             4285.82  4355.86  4382.99  4384.26  4408.42
                             4460.78  4479.34  4507.41  4534.28  4586.24
                             4607.77  4629.92  4636.72  4688.71  4702.43
                             4731.99  5051.94

 Zero-point correction=                           0.301452 (Hartree/Particle)
 Thermal correction to Energy=                    0.317981
 Thermal correction to Enthalpy=                  0.318925
 Thermal correction to Gibbs Free Energy=         0.254789
 Sum of electronic and zero-point Energies=           -821.051324
 Sum of electronic and thermal Energies=              -821.034795
 Sum of electronic and thermal Enthalpies=            -821.033851
 Sum of electronic and thermal Free Energies=         -821.097986

                     E (Thermal)             CV                S
                      KCal/Mol        Cal/Mol-Kelvin    Cal/Mol-Kelvin
 Total                  199.536             63.603            134.985
 Electronic               0.000              0.000              0.000
 Translational            0.889              2.981             42.510
 Rotational               0.889              2.981             33.620
 Vibrational            197.759             57.642             58.855
 Vibration     1          0.593              1.986              6.985
 Vibration     2          0.593              1.984              6.055
 Vibration     3          0.595              1.978              4.892
 Vibration     4          0.597              1.974              4.482
 Vibration     5          0.600              1.964              3.931
 Vibration     6          0.607              1.939              3.228
 Vibration     7          0.612              1.923              2.948
 Vibration     8          0.613              1.918              2.874
 Vibration     9          0.623              1.887              2.502
 Vibration    10          0.638              1.838              2.122
 Vibration    11          0.665              1.757              1.706
 Vibration    12          0.671              1.738              1.633
 Vibration    13          0.677              1.719              1.564
 Vibration    14          0.695              1.666              1.393
 Vibration    15          0.707              1.631              1.299
 Vibration    16          0.743              1.533              1.077
 Vibration    17          0.774              1.450              0.929
 Vibration    18          0.800              1.383              0.827
 Vibration    19          0.857              1.247              0.655
 Vibration    20          0.889              1.175              0.578
 Vibration    21          0.895              1.163              0.566
 Vibration    22          0.942              1.063              0.475
 Vibration    23          0.969              1.011              0.433

 Optimization completed.
    -- Stationary point found.
 Normal termination of Gaussian 16 at Sun Dec 13 17:06:22 2020.

 ----------------------------------------------------------------------
 # B3LYP/6-311++G(d,p) empiricaldispersion=gd3bj scf=xqc pop=npa geom=c
 heck
 ----------------------------------------------------------------------

 --------------------------------------
 CID_81956413_JID_9460_Energie_neutraal
 --------------------------------------
 Structure from the checkpoint file:  "JID_9460.chk"
 Charge =  0 Multiplicity = 1

 SCF Done:  E(RB3LYP) =  -821.569873948     A.U. after   15 cycles
 Normal termination of Gaussian 16 at Sun Dec 13 17:14:43 2020.

 ----------------------------------------------------------------------
 # B3LYP/6-311++G(d,p) empiricaldispersion=gd3bj scf=xqc pop=npa geom=c
 heck
 ----------------------------------------------------------------------

 ------------------------------------
 CID_81956413_JID_9460_Energie_kation
 ------------------------------------
 Structure from the checkpoint file:  "JID_9460.chk"
 Charge =  1 Multiplicity = 2

 SCF Done:  E(UB3LYP) =  -821.291876352     A.U. after   24 cycles
 Normal termination of Gaussian 16 at Sun Dec 13 17:33:31 2020.
 Gaussian 16:  ES64L-G16RevA.03 25-Dec-2016

 ----------------------------------------------------------------------
 # B3LYP/6-311++G(d,p) empiricaldispersion=gd3bj scf=xqc pop=npa geom=c
 heck
 ----------------------------------------------------------------------

 -----------------------------------
 CID_81956413_JID_9460_Energie_anion
 -----------------------------------
 Structure from the checkpoint file:  "JID_9460.chk"
 Charge = -1 Multiplicity = 2

                         Standard orientation:
 ---------------------------------------------------------------------
 Center     Atomic      Atomic             Coordinates (Angstroms)
 Number     Number       Type             X           Y           Z
 ---------------------------------------------------------------------
      1          6           0        0.044956    2.569743   -0.852048
      2          6           0       -0.956482    1.508664   -0.567307
      3          6           0       -0.920081    0.147694   -0.633884
      4          6           0       -2.218810   -0.313515   -0.189660
      5          6           0       -2.815796   -1.566033   -0.002004
      6          6           0       -4.134880   -1.606737    0.443754
      7          6           0       -4.854649   -0.427260    0.707448
      8          6           0       -4.273546    0.830341    0.537030
      9          6           0       -2.959665    0.847008    0.090554
     10          8           0       -2.191419    1.961123   -0.137222
     11          6           0        0.225477   -0.715282   -1.054912
     12          7           0        0.684784   -1.535837    0.067157
     13          6           0        1.843247   -2.367904   -0.204521
     14          6           0        3.094138   -1.644309   -0.753691
     15          7           0        3.373003   -0.420801   -0.016067
     16          6           0        3.655826    0.809160   -0.521667
     17          6           0        3.804681    1.662997    0.556678
     18          6           0        3.585348    0.842728    1.684132
     19          7           0        3.323232   -0.419143    1.335789
     20          1           0       -0.225071    3.151220   -1.742812
     21          1           0        0.109143    3.268910   -0.010526
     22          1           0        1.034746    2.132857   -1.004047
     23          1           0       -2.250590   -2.475066   -0.179820
     24          1           0       -4.618171   -2.567195    0.598529
     25          1           0       -5.880943   -0.494705    1.056328
     26          1           0       -4.812800    1.748849    0.742815
     27          1           0       -0.097279   -1.399001   -1.853692
     28          1           0        1.013528   -0.078485   -1.490756
     29          1           0        0.895477   -0.931111    0.858478
     30          1           0        2.112166   -2.866313    0.730181
     31          1           0        1.570216   -3.148628   -0.927176
     32          1           0        3.960180   -2.314890   -0.703014
     33          1           0        2.959269   -1.353007   -1.798843
     34          1           0        3.736263    0.972881   -1.586923
     35          1           0        4.036503    2.717472    0.530114
     36          1           0        3.602995    1.113905    2.731374
 ---------------------------------------------------------------------

 SCF Done:  E(UB3LYP) =  -821.559353854     A.U. after   33 cycles
 SCF Done:  E(UB3LYP) =  -821.559353855     a.u. after    1 cycles

 The electronic state is 2-A.
 Alpha  occ. eigenvalues --  -19.08881 -14.29629 -14.23552 -14.20132 -10.13834
 Alpha  occ. eigenvalues --  -10.13594 -10.11619 -10.11068 -10.10331 -10.10255
 Alpha  occ. eigenvalues --  -10.09840 -10.08926 -10.08752 -10.08452 -10.08402
 Alpha  occ. eigenvalues --  -10.08222 -10.08183 -10.07961 -10.07307  -1.01321
 Alpha  occ. eigenvalues --   -0.95834  -0.81715  -0.76716  -0.74941  -0.71930
 Alpha  occ. eigenvalues --   -0.69307  -0.67560  -0.65559  -0.63903  -0.60938
 Alpha  occ. eigenvalues --   -0.58301  -0.53158  -0.52696  -0.51191  -0.50078
 Alpha  occ. eigenvalues --   -0.47550  -0.46478  -0.43623  -0.42233  -0.41501
 Alpha  occ. eigenvalues --   -0.39031  -0.38359  -0.37630  -0.37501  -0.35588
 Alpha  occ. eigenvalues --   -0.35343  -0.34652  -0.33350  -0.32325  -0.32171
 Alpha  occ. eigenvalues --   -0.31754  -0.31354  -0.31236  -0.30210  -0.29652
 Alpha  occ. eigenvalues --   -0.28792  -0.27488  -0.26856  -0.26182  -0.26025
 Alpha  occ. eigenvalues --   -0.24706  -0.20543  -0.19688  -0.16815  -0.15789
 Alpha  occ. eigenvalues --   -0.15216  -0.13335  -0.12694   0.04204
 Alpha virt. eigenvalues --    0.06018   0.06352   0.06545   0.07528   0.07949
 Alpha virt. eigenvalues --    0.08176   0.08874   0.08951   0.09377   0.09754
 Alpha virt. eigenvalues --    0.09947   0.10340   0.10738   0.11413   0.12121

  Beta  occ. eigenvalues --  -19.08873 -14.29630 -14.23544 -14.20133 -10.13777
  Beta  occ. eigenvalues --  -10.13604 -10.11582 -10.11032 -10.10309 -10.10242
  Beta  occ. eigenvalues --  -10.09837 -10.08885 -10.08728 -10.08435 -10.08408
  Beta  occ. eigenvalues --  -10.08178 -10.08164 -10.07964 -10.07296  -1.01297
  Beta  occ. eigenvalues --   -0.95819  -0.81704  -0.76667  -0.74918  -0.71876
  Beta  occ. eigenvalues --   -0.69269  -0.67503  -0.65489  -0.63863  -0.60893
  Beta  occ. eigenvalues --   -0.58249  -0.53125  -0.52646  -0.51160  -0.50019
  Beta  occ. eigenvalues --   -0.47511  -0.46413  -0.43544  -0.42208  -0.41461
  Beta  occ. eigenvalues --   -0.39001  -0.38325  -0.37538  -0.37465  -0.35550
  Beta  occ. eigenvalues --   -0.35307  -0.34602  -0.33307  -0.32289  -0.32132
  Beta  occ. eigenvalues --   -0.31693  -0.31321  -0.31200  -0.30175  -0.29620
  Beta  occ. eigenvalues --   -0.28760  -0.27461  -0.26823  -0.26115  -0.25934
  Beta  occ. eigenvalues --   -0.24684  -0.20531  -0.19526  -0.16792  -0.15767
  Beta  occ. eigenvalues --   -0.15093  -0.13302  -0.12498
  Beta virt. eigenvalues --    0.06185   0.06544   0.06849   0.07294   0.07938
  Beta virt. eigenvalues --    0.08123   0.08723   0.08992   0.09192   0.09757
  Beta virt. eigenvalues --    0.10006   0.10237   0.10715   0.10988   0.11688

 Mulliken charges and spin densities:
               1          2
     1  C    0.811615  -1.324212
     2  C   -0.823466   0.289966
     3  C    2.000708  -0.534052
     4  C    1.090575   0.153796
     5  C   -0.447558   0.170870
     6  C   -0.541119   0.156712
     7  C   -0.065346  -0.157491
     8  C   -0.780679   0.235974
     9  C   -0.053744  -0.152630
    10  O   -0.056512   0.016800
    11  C   -1.972011   0.199819
    12  N    0.172604   0.024681
    13  C   -0.607981   0.340075
    14  C    1.085818  -1.369107
    15  N    0.352036   0.036561
    16  C    0.443486  -0.798012
    17  C    0.254437  -0.175560
    18  C    0.620455  -0.942130
    19  N   -0.604363   0.250172
    20  H   -0.046049   0.223499
    21  H   -0.115877   0.278460
    22  H    0.251753  -0.142780
    23  H    0.067413   0.078335
    24  H    0.096610   0.051066
    25  H    0.118730   0.014444
    26  H    0.094048   0.058170
    27  H   -0.354355   0.505051
    28  H    0.205351  -0.121040
    29  H    0.197046   0.011198
    30  H    0.159870   0.023866
    31  H   -0.145731   0.306686
    32  H   -0.414148   0.621134
    33  H   -0.456147   0.644567
    34  H   -1.160006   1.338891
    35  H   -0.505635   0.683241
    36  H    0.128171   0.002976
 Sum of Mulliken charges =  -1.00000   1.00000

 Dipole moment (field-independent basis, Debye):
    X=             -6.9950    Y=             -0.2309    Z=              5.0009  Tot=              8.6019
 Quadrupole moment (field-independent basis, Debye-Ang):
   XX=           -190.7843   YY=           -155.8512   ZZ=           -154.7026
   XY=             -1.4435   XZ=             14.2367   YZ=             -1.0005

 Summary of Natural Population Analysis:

                                       Natural Population
                Natural  -----------------------------------------------
    Atom  No    Charge         Core      Valence    Rydberg      Total
 -----------------------------------------------------------------------
      C    1   -0.30921      0.99962     2.30351    0.00608     3.30921
      C    2    0.18338      0.99939     1.80359    0.01364     2.81662
      C    3   -0.06311      0.99941     2.05327    0.01042     3.06311
      C    4   -0.04276      0.99945     2.03380    0.00951     3.04276
      C    5   -0.08428      0.99954     2.07664    0.00811     3.08428
      C    6   -0.11601      0.99958     2.10673    0.00969     3.11601
      C    7   -0.10778      0.99959     2.09783    0.01036     3.10778
      C    8   -0.11901      0.99952     2.11015    0.00935     3.11901
      C    9    0.15412      0.99935     1.83428    0.01225     2.84588
      O   10   -0.24701      0.99985     3.23996    0.00719     4.24701
      C   11   -0.09592      0.99959     2.08487    0.01147     3.09592
      N   12   -0.33768      0.99975     2.82756    0.01038     3.83768
      C   13   -0.09085      0.99963     2.07892    0.01230     3.09085
      C   14   -0.09101      0.99960     2.07965    0.01176     3.09101
      N   15   -0.11129      0.99966     2.59583    0.01579     3.61129
      C   16   -0.00261      0.99955     1.98976    0.01331     3.00261
      C   17   -0.16689      0.99956     2.15778    0.00955     3.16689
      C   18   -0.01545      0.99963     2.00170    0.01412     3.01545
      N   19   -0.16319      0.99973     2.65213    0.01132     3.66319
      H   20    0.10744      0.00000     0.39146    0.00110     0.39256
      H   21    0.11016      0.00000     0.38846    0.00138     0.38984
      H   22    0.11477      0.00000     0.38381    0.00142     0.38523
      H   23    0.10704      0.00000     0.39160    0.00136     0.39296
      H   24    0.09780      0.00000     0.40144    0.00076     0.40220
      H   25    0.09684      0.00000     0.40241    0.00075     0.40316
      H   26    0.10423      0.00000     0.39483    0.00094     0.39577
      H   27    0.09752      0.00000     0.40098    0.00151     0.40248
      H   28    0.08847      0.00000     0.40890    0.00263     0.41153
      H   29    0.17951      0.00000     0.31747    0.00303     0.32049
      H   30    0.10020      0.00000     0.39854    0.00126     0.39980
      H   31    0.09552      0.00000     0.40331    0.00116     0.40448
      H   32    0.10236      0.00000     0.39612    0.00151     0.39764
      H   33    0.10580      0.00000     0.39035    0.00386     0.39420
      H   34    0.11212      0.00000     0.38331    0.00457     0.38788
      H   35    0.11071      0.00000     0.38817    0.00112     0.38929
      H   36    0.09610      0.00000     0.40314    0.00076     0.40390
 =======================================================================
   * Total *    0.00000     18.99198    48.77228    0.23573    68.00000

 Normal termination of Gaussian 16 at Sun Dec 13 17:59:40 2020.
