 Gaussian 16, Revision A.03,

 -----------------------------------------------------------
 # opt freq B3LYP/6-31G(d) empiricaldispersion=gd3bj scf=xqc
 -----------------------------------------------------------

 ------------------------------
 CID_84668244_JID_5197_neutraal
 ------------------------------
 Symbolic Z-matrix:
 Charge =  0 Multiplicity = 1

 SCF Done:  E(RB3LYP) =  -648.076650279     A.U. after   15 cycles
 SCF Done:  E(RB3LYP) =  -648.081745278     A.U. after   13 cycles
 SCF Done:  E(RB3LYP) =  -648.082330217     A.U. after   12 cycles
 SCF Done:  E(RB3LYP) =  -648.082368962     A.U. after   12 cycles
 SCF Done:  E(RB3LYP) =  -648.082425918     A.U. after   11 cycles
 SCF Done:  E(RB3LYP) =  -648.082471204     A.U. after   10 cycles
 SCF Done:  E(RB3LYP) =  -648.082487234     A.U. after   11 cycles
 SCF Done:  E(RB3LYP) =  -648.082493429     A.U. after    9 cycles
 SCF Done:  E(RB3LYP) =  -648.082498568     A.U. after   10 cycles
 SCF Done:  E(RB3LYP) =  -648.082499684     A.U. after    8 cycles
 Optimization completed.
    -- Stationary point found.
 Normal termination of Gaussian 16 at Thu Dec 10 14:45:50 2020.

 --------------------------------------------------------------------
 #N Geom=AllCheck Guess=TCheck SCRF=Check GenChk RB3LYP/6-31G(d) Freq
 --------------------------------------------------------------------

 Structure from the checkpoint file:  "JID_5197.chk"
 ------------------------------
 CID_84668244_JID_5197_neutraal
 ------------------------------
 Charge =  0 Multiplicity = 1

 SCF Done:  E(RB3LYP) =  -648.082499684     A.U. after    1 cycles

  Exact polarizability: 225.844  -1.970 142.116   0.013   0.002  56.582
 Approx polarizability: 344.980  -2.663 252.435   0.030   0.005  90.789

                      1                      2                      3
                      A                      A                      A
 Frequencies --     53.6507                71.1403               132.3226
 Red. masses --      4.1904                 4.9300                 4.8004
 Frc consts  --      0.0071                 0.0147                 0.0495
 IR Inten    --      1.6899                 0.2458                 0.9482

                      4                      5                      6
                      A                      A                      A
 Frequencies --    139.1080               169.3744               212.2807
 Red. masses --      4.4199                 1.0621                 5.8853
 Frc consts  --      0.0504                 0.0180                 0.1563
 IR Inten    --      0.3267                 0.0228                 2.7277

                      7                      8                      9
                      A                      A                      A
 Frequencies --    222.9908               252.7895               319.8577
 Red. masses --      2.5622                 4.2748                 4.7041
 Frc consts  --      0.0751                 0.1609                 0.2836
 IR Inten    --      6.3885                 2.4647                 0.0303

                     10                     11                     12
                      A                      A                      A
 Frequencies --    350.6779               386.0841               432.0720
 Red. masses --      9.1074                 3.6846                 2.9445
 Frc consts  --      0.6599                 0.3236                 0.3239
 IR Inten    --      6.3305                 2.7877                 2.8311

                     13                     14                     15
                      A                      A                      A
 Frequencies --    497.1527               519.5395               560.2724
 Red. masses --      5.7704                 3.7613                 3.1948
 Frc consts  --      0.8403                 0.5982                 0.5909
 IR Inten    --      1.5899                 0.9761                 0.1265

                     16                     17                     18
                      A                      A                      A
 Frequencies --    584.2159               630.9922               639.7932
 Red. masses --      6.1547                 3.8839                 5.4598
 Frc consts  --      1.2377                 0.9111                 1.3168
 IR Inten    --      3.8226                20.7258                 2.9081

                     19                     20                     21
                      A                      A                      A
 Frequencies --    654.2825               710.7008               723.5402
 Red. masses --      3.1518                 5.0822                 6.1673
 Frc consts  --      0.7950                 1.5124                 1.9023
 IR Inten    --      3.8426                 2.8180                 9.4564

                     22                     23                     24
                      A                      A                      A
 Frequencies --    746.4550               785.4814               786.0697
 Red. masses --      1.8737                 2.2042                 5.5367
 Frc consts  --      0.6151                 0.8013                 2.0157
 IR Inten    --     38.8528                14.6517                 3.7041

                     25                     26                     27
                      A                      A                      A
 Frequencies --    843.0462               885.0377               887.2637
 Red. masses --      4.8278                 1.3386                 1.3531
 Frc consts  --      2.0216                 0.6178                 0.6276
 IR Inten    --      2.9395                 7.3477                 3.4849

                     28                     29                     30
                      A                      A                      A
 Frequencies --    945.0736               961.4035               983.7708
 Red. masses --      1.3669                 2.8398                 3.8414
 Frc consts  --      0.7193                 1.5465                 2.1904
 IR Inten    --      1.1048                56.9664                 3.3658

                     31                     32                     33
                      A                      A                      A
 Frequencies --    990.1901              1014.8216              1049.6510
 Red. masses --      1.2699                 1.7994                 1.7823
 Frc consts  --      0.7336                 1.0919                 1.1570
 IR Inten    --      0.0144                 0.0002                 3.6021

                     34                     35                     36
                      A                      A                      A
 Frequencies --   1051.7556              1090.5927              1127.1755
 Red. masses --      2.1920                 3.6387                 2.0655
 Frc consts  --      1.4286                 2.5499                 1.5462
 IR Inten    --      2.9496                15.4001                 4.5108

                     37                     38                     39
                      A                      A                      A
 Frequencies --   1153.7621              1190.2493              1207.8778
 Red. masses --      1.7154                 1.2651                 2.1651
 Frc consts  --      1.3454                 1.0560                 1.8612
 IR Inten    --      2.5154                 3.6230                36.4009

                     40                     41                     42
                      A                      A                      A
 Frequencies --   1208.7425              1235.8426              1242.0742
 Red. masses --      1.0891                 3.1157                 2.3847
 Frc consts  --      0.9375                 2.8037                 2.1676
 IR Inten    --      1.7816                31.9550                31.0975

                     43                     44                     45
                      A                      A                      A
 Frequencies --   1256.2472              1335.2549              1350.5600
 Red. masses --      3.0335                 1.8484                 2.2524
 Frc consts  --      2.8206                 1.9417                 2.4206
 IR Inten    --     36.8304                 7.2091                36.5109

                     46                     47                     48
                      A                      A                      A
 Frequencies --   1371.8303              1405.9896              1408.2211
 Red. masses --      5.8968                 4.1960                 1.5582
 Frc consts  --      6.5383                 4.8871                 1.8206
 IR Inten    --      7.4452                24.2557                22.6887

                     49                     50                     51
                      A                      A                      A
 Frequencies --   1436.7654              1492.6223              1494.7982
 Red. masses --      4.0490                 1.6842                 1.4252
 Frc consts  --      4.9246                 2.2108                 1.8763
 IR Inten    --     27.3533               131.8599                 6.7721

                     52                     53                     54
                      A                      A                      A
 Frequencies --   1508.0469              1515.9563              1519.0378
 Red. masses --      1.0483                 2.3382                 1.2571
 Frc consts  --      1.4047                 3.1659                 1.7090
 IR Inten    --     12.2445                 8.3565                18.2358

                     55                     56                     57
                      A                      A                      A
 Frequencies --   1531.7850              1597.3019              1647.8529
 Red. masses --      3.8823                 7.9915                 6.1386
 Frc consts  --      5.3671                12.0131                 9.8209
 IR Inten    --     97.8183                70.9254                 0.6158

                     58                     59                     60
                      A                      A                      A
 Frequencies --   1677.9036              1762.0626              3048.4553
 Red. masses --      6.9981                10.5519                 1.0390
 Frc consts  --     11.6082                19.3030                 5.6887
 IR Inten    --      4.7349               292.7414                 4.6320

                     61                     62                     63
                      A                      A                      A
 Frequencies --   3066.6242              3102.9450              3108.9873
 Red. masses --      1.0569                 1.1062                 1.1010
 Frc consts  --      5.8560                 6.2752                 6.2701
 IR Inten    --     19.6321                 2.2416                19.9858

                     64                     65                     66
                      A                      A                      A
 Frequencies --   3170.1637              3188.5394              3198.8237
 Red. masses --      1.1004                 1.0873                 1.0895
 Frc consts  --      6.5157                 6.5128                 6.5686
 IR Inten    --     11.9837                 2.6485                11.1163

                     67                     68                     69
                      A                      A                      A
 Frequencies --   3212.5424              3223.9378              3276.2241
 Red. masses --      1.0940                 1.0954                 1.0963
 Frc consts  --      6.6523                 6.7081                 6.9334
 IR Inten    --     22.2987                 9.9090                 1.1952

 - Thermochemistry -
 -------------------
 Temperature   298.150 Kelvin.  Pressure   1.00000 Atm.
 Atom     1 has atomic number  6 and mass  12.00000

 Molecular mass:   198.07931 amu.
 Principal axes and moments of inertia in atomic units:
                           1         2         3
     Eigenvalues --  1096.481254771.784225845.67540
           X            0.99993   0.01184  -0.00000
           Y           -0.01184   0.99993  -0.00000
           Z            0.00000   0.00000   1.00000
 This molecule is an asymmetric top.
 Rotational symmetry number  1.
 Warning -- assumption of classical behavior for rotation
           may cause significant error
 Rotational temperatures (Kelvin)      0.07899     0.01815     0.01482
 Rotational constants (GHZ):           1.64594     0.37821     0.30873
 Zero-point vibrational energy     517735.7 (Joules/Mol)
                                  123.74181 (Kcal/Mol)
 Warning -- explicit consideration of  16 degrees of freedom as
           vibrations may cause significant error
 Vibrational temperatures:     77.19   102.35   190.38   200.15   243.69
          (Kelvin)            305.42   320.83   363.71   460.20   504.55
                              555.49   621.66   715.29   747.50   806.11
                              840.56   907.86   920.52   941.37  1022.54
                             1041.01  1073.98  1130.13  1130.98  1212.96
                             1273.37  1276.57  1359.75  1383.25  1415.43
                             1424.66  1460.10  1510.21  1513.24  1569.12
                             1621.75  1660.01  1712.50  1737.87  1739.11
                             1778.10  1787.07  1807.46  1921.13  1943.15
                             1973.76  2022.91  2026.12  2067.18  2147.55
                             2150.68  2169.74  2181.12  2185.56  2203.90
                             2298.16  2370.89  2414.13  2535.22  4386.05
                             4412.19  4464.45  4473.14  4561.16  4587.60
                             4602.39  4622.13  4638.53  4713.76

 Zero-point correction=                           0.197195 (Hartree/Particle)
 Thermal correction to Energy=                    0.208867
 Thermal correction to Enthalpy=                  0.209811
 Thermal correction to Gibbs Free Energy=         0.158991
 Sum of electronic and zero-point Energies=           -647.885305
 Sum of electronic and thermal Energies=              -647.873633
 Sum of electronic and thermal Enthalpies=            -647.872689
 Sum of electronic and thermal Free Energies=         -647.923509

                     E (Thermal)             CV                S
                      KCal/Mol        Cal/Mol-Kelvin    Cal/Mol-Kelvin
 Total                  131.066             45.761            106.961
 Electronic               0.000              0.000              0.000
 Translational            0.889              2.981             41.755
 Rotational               0.889              2.981             31.792
 Vibrational            129.289             39.799             33.413
 Vibration     1          0.596              1.976              4.678
 Vibration     2          0.598              1.968              4.122
 Vibration     3          0.612              1.921              2.912
 Vibration     4          0.615              1.914              2.816
 Vibration     5          0.625              1.880              2.442
 Vibration     6          0.643              1.822              2.024
 Vibration     7          0.649              1.806              1.935
 Vibration     8          0.664              1.758              1.711
 Vibration     9          0.706              1.636              1.311
 Vibration    10          0.728              1.574              1.163
 Vibration    11          0.755              1.500              1.015
 Vibration    12          0.793              1.400              0.852
 Vibration    13          0.853              1.256              0.665
 Vibration    14          0.875              1.207              0.611
 Vibration    15          0.916              1.117              0.523
 Vibration    16          0.941              1.065              0.478

                           ! Non-Optimized Parameters !
 Normal termination of Gaussian 16 at Thu Dec 10 14:52:42 2020.

 ----------------------------------------------------------------------
 # B3LYP/6-311++G(d,p) empiricaldispersion=gd3bj scf=xqc pop=npa geom=c
 heck
 ----------------------------------------------------------------------

 --------------------------------------
 CID_84668244_JID_5197_Energie_neutraal
 --------------------------------------
 Structure from the checkpoint file:  "JID_5197.chk"
 Charge =  0 Multiplicity = 1

 SCF Done:  E(RB3LYP) =  -648.249148600     A.U. after   15 cycles
 Normal termination of Gaussian 16 at Thu Dec 10 14:55:34 2020.

 ----------------------------------------------------------------------
 # B3LYP/6-311++G(d,p) empiricaldispersion=gd3bj scf=xqc pop=npa geom=c
 heck
 ----------------------------------------------------------------------

 ------------------------------------
 CID_84668244_JID_5197_Energie_kation
 ------------------------------------
 Structure from the checkpoint file:  "JID_5197.chk"
 Charge =  1 Multiplicity = 2

 SCF Done:  E(UB3LYP) =  -647.956231218     A.U. after   23 cycles
 Normal termination of Gaussian 16 at Thu Dec 10 15:01:41 2020.
 Gaussian 16:  ES64L-G16RevA.03 25-Dec-2016

 ----------------------------------------------------------------------
 # B3LYP/6-311++G(d,p) empiricaldispersion=gd3bj scf=xqc pop=npa geom=c
 heck
 ----------------------------------------------------------------------

 -----------------------------------
 CID_84668244_JID_5197_Energie_anion
 -----------------------------------
 Structure from the checkpoint file:  "JID_5197.chk"
 Charge = -1 Multiplicity = 2

                         Standard orientation:
 ---------------------------------------------------------------------
 Center     Atomic      Atomic             Coordinates (Angstroms)
 Number     Number       Type             X           Y           Z
 ---------------------------------------------------------------------
      1          6           0       -3.114706   -1.873454    0.000532
      2          6           0       -3.201439   -0.355563   -0.000090
      3          8           0       -4.283340    0.218074   -0.000032
      4          6           0       -1.958168    0.415156   -0.000309
      5          6           0       -1.802085    1.802397   -0.000754
      6          7           0       -0.489330    2.175345   -0.000278
      7          6           0        0.173055    1.025319    0.000539
      8          7           0       -0.654516   -0.064160    0.000830
      9          6           0        0.077428   -1.330017   -0.000558
     10          6           0        1.517785   -0.843545   -0.000281
     11          6           0        2.694367   -1.576722   -0.000433
     12          6           0        3.912121   -0.884601   -0.000175
     13          6           0        3.941912    0.514124    0.000264
     14          6           0        2.759289    1.256638    0.000510
     15          6           0        1.550238    0.565752    0.000214
     16          1           0       -4.126701   -2.281387   -0.002709
     17          1           0       -2.581363   -2.236846    0.887501
     18          1           0       -2.574736   -2.238310   -0.881689
     19          1           0       -2.605222    2.526033   -0.001101
     20          1           0       -0.165001   -1.924232   -0.888249
     21          1           0       -0.164982   -1.926487    0.885610
     22          1           0        2.679229   -2.663331   -0.000761
     23          1           0        4.843990   -1.441983   -0.000303
     24          1           0        4.897912    1.029242    0.000468
     25          1           0        2.771732    2.341517    0.000882
 ---------------------------------------------------------------------

 SCF Done:  E(UB3LYP) =  -648.262696147     A.U. after   25 cycles

 The electronic state is 2-A.
 Alpha  occ. eigenvalues --  -18.93433 -14.21282 -14.15670 -10.10368 -10.08956
 Alpha  occ. eigenvalues --  -10.07565 -10.05644 -10.05545 -10.05275 -10.05142
 Alpha  occ. eigenvalues --  -10.04677 -10.04567 -10.04555 -10.04522 -10.04381
 Alpha  occ. eigenvalues --   -0.88657  -0.87262  -0.76419  -0.73021  -0.66309
 Alpha  occ. eigenvalues --   -0.63560  -0.61347  -0.58531  -0.57848  -0.50230
 Alpha  occ. eigenvalues --   -0.48038  -0.46387  -0.43354  -0.41425  -0.36759
 Alpha  occ. eigenvalues --   -0.36335  -0.35988  -0.33648  -0.32304  -0.30918
 Alpha  occ. eigenvalues --   -0.30856  -0.30785  -0.28775  -0.27610  -0.27591
 Alpha  occ. eigenvalues --   -0.26662  -0.25073  -0.24634  -0.23129  -0.21892
 Alpha  occ. eigenvalues --   -0.21798  -0.15295  -0.14434  -0.14026  -0.13439
 Alpha  occ. eigenvalues --   -0.10063  -0.07901   0.04287
 Alpha virt. eigenvalues --    0.07728   0.08521   0.09605   0.09723   0.09953
 Alpha virt. eigenvalues --    0.10684   0.11697   0.11897   0.12205   0.13167
 Alpha virt. eigenvalues --    0.14222   0.14633   0.15754   0.16091   0.16536

  Beta  occ. eigenvalues --  -18.92979 -14.20921 -14.15734 -10.10405 -10.08690
  Beta  occ. eigenvalues --  -10.07411 -10.05678 -10.05413 -10.05306 -10.05079
  Beta  occ. eigenvalues --  -10.04583 -10.04539 -10.04534 -10.04428 -10.04137
  Beta  occ. eigenvalues --   -0.88224  -0.86497  -0.76269  -0.72728  -0.65959
  Beta  occ. eigenvalues --   -0.63304  -0.61021  -0.58374  -0.57604  -0.49994
  Beta  occ. eigenvalues --   -0.47559  -0.46088  -0.43208  -0.41101  -0.36602
  Beta  occ. eigenvalues --   -0.35703  -0.35684  -0.33405  -0.32179  -0.30743
  Beta  occ. eigenvalues --   -0.30649  -0.30378  -0.28593  -0.27483  -0.27023
  Beta  occ. eigenvalues --   -0.26492  -0.24734  -0.23910  -0.23008  -0.21776
  Beta  occ. eigenvalues --   -0.19892  -0.14031  -0.14017  -0.13579  -0.12762
  Beta  occ. eigenvalues --   -0.09662  -0.06620
  Beta virt. eigenvalues --    0.07700   0.08498   0.09569   0.09579   0.09971
  Beta virt. eigenvalues --    0.10667   0.11492   0.11668   0.12186   0.12483
  Beta virt. eigenvalues --    0.13134   0.14202   0.14666   0.15724   0.16134

 Mulliken charges and spin densities:
               1          2
     1  C   -0.414682  -0.017644
     2  C   -0.483527   0.179984
     3  O   -0.414666   0.157037
     4  C    0.485978   0.010006
     5  C    0.036333   0.084811
     6  N   -0.140298  -0.036008
     7  C   -0.230552   0.069057
     8  N    0.140326   0.119861
     9  C   -0.975638  -0.023907
    10  C    0.842487   0.100797
    11  C   -0.689052  -0.038188
    12  C   -0.338365   0.201465
    13  C   -0.282390  -0.021972
    14  C   -0.494532   0.094269
    15  C    0.595980   0.083427
    16  H    0.175640  -0.001497
    17  H    0.115067   0.003455
    18  H    0.114980   0.002978
    19  H    0.164756  -0.001589
    20  H    0.158025   0.026005
    21  H    0.158653   0.025213
    22  H    0.108346   0.001788
    23  H    0.107802  -0.016045
    24  H    0.121183   0.000990
    25  H    0.138145  -0.004293
 Sum of Mulliken charges =  -1.00000   1.00000

 Dipole moment (field-independent basis, Debye):
    X=              4.5656    Y=             -4.5297    Z=              0.0019  Tot=              6.4314
 Quadrupole moment (field-independent basis, Debye-Ang):
   XX=           -148.9267   YY=           -100.4689   ZZ=            -95.6042
   XY=              5.5192   XZ=              0.0006   YZ=              0.0009

 Summary of Natural Population Analysis:

                                       Natural Population
                Natural  -----------------------------------------------
    Atom  No    Charge         Core      Valence    Rydberg      Total
 -----------------------------------------------------------------------
      C    1   -0.32867      0.99965     2.32492    0.00411     3.32867
      C    2    0.28388      0.99964     1.69652    0.01996     2.71612
      O    3   -0.26233      0.99988     3.25518    0.00727     4.26233
      C    4    0.01686      0.99950     1.97150    0.01215     2.98314
      C    5   -0.00854      0.99958     1.98902    0.01994     3.00854
      N    6   -0.26903      0.99971     2.75997    0.00936     3.76903
      C    7    0.25785      0.99960     1.72612    0.01642     2.74215
      N    8   -0.16863      0.99960     2.65415    0.01487     3.66863
      C    9   -0.08693      0.99961     2.07955    0.00776     3.08693
      C   10    0.01380      0.99949     1.97866    0.00805     2.98620
      C   11   -0.12045      0.99951     2.11192    0.00902     3.12045
      C   12   -0.06769      0.99959     2.05821    0.00989     3.06769
      C   13   -0.12121      0.99961     2.11151    0.01009     3.12121
      C   14   -0.06973      0.99942     2.06039    0.00991     3.06973
      C   15   -0.04232      0.99948     2.02642    0.01641     3.04232
      H   16    0.10278      0.00000     0.39553    0.00168     0.39722
      H   17    0.09935      0.00000     0.39949    0.00116     0.40065
      H   18    0.09927      0.00000     0.39957    0.00116     0.40073
      H   19    0.09433      0.00000     0.40401    0.00166     0.40567
      H   20    0.10264      0.00000     0.39601    0.00135     0.39736
      H   21    0.10262      0.00000     0.39603    0.00135     0.39738
      H   22    0.09255      0.00000     0.40601    0.00144     0.40745
      H   23    0.08832      0.00000     0.41061    0.00107     0.41168
      H   24    0.09152      0.00000     0.40735    0.00113     0.40848
      H   25    0.10070      0.00000     0.39853    0.00078     0.39930
 =======================================================================
   * Total *    0.00095     14.99388    36.81718    0.18798    51.99905

 Normal termination of Gaussian 16 at Thu Dec 10 15:08:19 2020.
