 Gaussian 16, Revision A.03,

 -----------------------------------------------------------
 # opt freq B3LYP/6-31G(d) empiricaldispersion=gd3bj scf=xqc
 -----------------------------------------------------------

 -------------------------------
 CID_141910428_JID_5747_neutraal
 -------------------------------
 Symbolic Z-matrix:
 Charge =  0 Multiplicity = 1

 SCF Done:  E(RB3LYP) =  -625.649882925     A.U. after   12 cycles
 SCF Done:  E(RB3LYP) =  -625.651489746     A.U. after   10 cycles
 SCF Done:  E(RB3LYP) =  -625.651352822     A.U. after   11 cycles
 SCF Done:  E(RB3LYP) =  -625.652232444     A.U. after   11 cycles
 SCF Done:  E(RB3LYP) =  -625.653136454     A.U. after   10 cycles
 SCF Done:  E(RB3LYP) =  -625.653045114     A.U. after   10 cycles
 SCF Done:  E(RB3LYP) =  -625.653349680     A.U. after   10 cycles
 SCF Done:  E(RB3LYP) =  -625.653347749     A.U. after    9 cycles
 SCF Done:  E(RB3LYP) =  -625.653383873     A.U. after    9 cycles
 SCF Done:  E(RB3LYP) =  -625.653397045     A.U. after    9 cycles
 SCF Done:  E(RB3LYP) =  -625.653395886     A.U. after    6 cycles
 SCF Done:  E(RB3LYP) =  -625.653397726     A.U. after    8 cycles
 SCF Done:  E(RB3LYP) =  -625.653395716     A.U. after    8 cycles
 SCF Done:  E(RB3LYP) =  -625.653395585     A.U. after    6 cycles
 SCF Done:  E(RB3LYP) =  -625.653397744     A.U. after    8 cycles
 SCF Done:  E(RB3LYP) =  -625.653395562     A.U. after    8 cycles
 Optimization completed.
    -- Stationary point found.
 Normal termination of Gaussian 16 at Thu Dec 10 17:04:01 2020.

 --------------------------------------------------------------------
 #N Geom=AllCheck Guess=TCheck SCRF=Check GenChk RB3LYP/6-31G(d) Freq
 --------------------------------------------------------------------

 Structure from the checkpoint file:  "JID_5747.chk"
 -------------------------------
 CID_141910428_JID_5747_neutraal
 -------------------------------
 Charge =  0 Multiplicity = 1

 SCF Done:  E(RB3LYP) =  -625.653395562     A.U. after    1 cycles

  Exact polarizability: 156.787  -1.637 148.531   1.703   0.625 136.373
 Approx polarizability: 204.904  -1.555 206.764  -2.616  -2.325 200.382

                      1                      2                      3
                      A                      A                      A
 Frequencies --     19.5894                53.3102                74.7270
 Red. masses --      2.5990                 2.7470                 2.8131
 Frc consts  --      0.0006                 0.0046                 0.0093
 IR Inten    --      0.1471                 0.5600                 0.3264

                      4                      5                      6
                      A                      A                      A
 Frequencies --     83.8457               115.6600               146.4023
 Red. masses --      2.8096                 2.5529                 3.1021
 Frc consts  --      0.0116                 0.0201                 0.0392
 IR Inten    --      1.1184                 0.1478                 0.0413

                      7                      8                      9
                      A                      A                      A
 Frequencies --    160.5491               192.0189               208.4630
 Red. masses --      2.6665                 1.9073                 1.2510
 Frc consts  --      0.0405                 0.0414                 0.0320
 IR Inten    --      0.1240                 0.3075                 0.2440

                     10                     11                     12
                      A                      A                      A
 Frequencies --    213.6646               225.0255               245.8384
 Red. masses --      2.1071                 1.4159                 1.1825
 Frc consts  --      0.0567                 0.0422                 0.0421
 IR Inten    --      0.3600                 0.5224                 0.1485

                     13                     14                     15
                      A                      A                      A
 Frequencies --    256.9263               285.7207               301.9451
 Red. masses --      1.4451                 2.3593                 2.3191
 Frc consts  --      0.0562                 0.1135                 0.1246
 IR Inten    --      0.3149                 1.9693                 0.2412

                     16                     17                     18
                      A                      A                      A
 Frequencies --    313.4534               339.2619               348.1351
 Red. masses --      2.1161                 1.3723                 2.2669
 Frc consts  --      0.1225                 0.0931                 0.1619
 IR Inten    --      1.0359                86.1001                 5.2392

                     19                     20                     21
                      A                      A                      A
 Frequencies --    363.1231               368.4450               385.2771
 Red. masses --      2.5371                 2.0100                 2.0785
 Frc consts  --      0.1971                 0.1608                 0.1818
 IR Inten    --     21.5676                 0.6976                 7.9064

                     22                     23                     24
                      A                      A                      A
 Frequencies --    421.9510               454.4190               458.4055
 Red. masses --      2.3621                 2.7382                 2.8231
 Frc consts  --      0.2478                 0.3331                 0.3495
 IR Inten    --      0.2758                 0.2610                 8.3093

                     25                     26                     27
                      A                      A                      A
 Frequencies --    489.7948               508.5094               564.4140
 Red. masses --      1.9714                 2.9192                 2.6550
 Frc consts  --      0.2786                 0.4447                 0.4983
 IR Inten    --      2.1290                11.7201                 0.9349

                     28                     29                     30
                      A                      A                      A
 Frequencies --    589.3840               701.5710               714.4146
 Red. masses --      2.3169                 2.5188                 2.7775
 Frc consts  --      0.4742                 0.7305                 0.8352
 IR Inten    --      4.4893                 1.0120                 0.9679

                     31                     32                     33
                      A                      A                      A
 Frequencies --    792.7556               805.7038               825.7167
 Red. masses --      1.5272                 1.5760                 2.0169
 Frc consts  --      0.5655                 0.6028                 0.8102
 IR Inten    --      1.1523                 1.5555                 0.3239

                     34                     35                     36
                      A                      A                      A
 Frequencies --    846.3119               866.3782               901.4387
 Red. masses --      1.6685                 2.5327                 1.9080
 Frc consts  --      0.7041                 1.1201                 0.9135
 IR Inten    --      1.2085                 0.8640                 1.4074

                     37                     38                     39
                      A                      A                      A
 Frequencies --    918.9959               927.9096               950.9909
 Red. masses --      2.1691                 1.5392                 1.9834
 Frc consts  --      1.0793                 0.7808                 1.0568
 IR Inten    --      7.7925                 1.2633                 4.5836

                     40                     41                     42
                      A                      A                      A
 Frequencies --    966.6626               984.1397               995.5990
 Red. masses --      1.7802                 1.2562                 1.5746
 Frc consts  --      0.9801                 0.7168                 0.9196
 IR Inten    --      1.7928                 1.1105                 3.0114

                     43                     44                     45
                      A                      A                      A
 Frequencies --   1005.1184              1028.0813              1044.3935
 Red. masses --      1.5419                 1.6909                 2.2281
 Frc consts  --      0.9178                 1.0530                 1.4319
 IR Inten    --      4.6713                 5.0569                 1.2956

                     46                     47                     48
                      A                      A                      A
 Frequencies --   1049.4372              1060.4112              1065.3692
 Red. masses --      2.7390                 2.1039                 2.1205
 Frc consts  --      1.7772                 1.3939                 1.4181
 IR Inten    --     13.0419                11.9136                46.5307

                     49                     50                     51
                      A                      A                      A
 Frequencies --   1087.3422              1096.4048              1112.3993
 Red. masses --      1.7562                 1.6831                 1.9690
 Frc consts  --      1.2234                 1.1921                 1.4356
 IR Inten    --     14.7346                 7.0825                36.4589

                     52                     53                     54
                      A                      A                      A
 Frequencies --   1127.0992              1135.9414              1145.1080
 Red. masses --      2.1061                 2.1804                 1.3212
 Frc consts  --      1.5763                 1.6577                 1.0208
 IR Inten    --      4.3277                 2.6720                 2.1685

                     55                     56                     57
                      A                      A                      A
 Frequencies --   1163.5968              1184.4377              1193.3076
 Red. masses --      1.9429                 1.8272                 2.1241
 Frc consts  --      1.5499                 1.5103                 1.7821
 IR Inten    --      2.7738                11.5131                20.5087

                     58                     59                     60
                      A                      A                      A
 Frequencies --   1210.0338              1251.7856              1264.7298
 Red. masses --      2.0375                 1.6905                 1.3088
 Frc consts  --      1.7577                 1.5608                 1.2335
 IR Inten    --      3.3839                 1.9432                 2.4647

                     61                     62                     63
                      A                      A                      A
 Frequencies --   1290.7079              1310.4208              1317.0813
 Red. masses --      1.2486                 1.2959                 1.3216
 Frc consts  --      1.2256                 1.3111                 1.3508
 IR Inten    --      1.9413                 3.7532                 4.0679

                     64                     65                     66
                      A                      A                      A
 Frequencies --   1323.1015              1333.8707              1343.0200
 Red. masses --      1.3176                 1.2368                 1.2989
 Frc consts  --      1.3590                 1.2965                 1.3803
 IR Inten    --      3.0186                 4.1881                 6.1301

                     67                     68                     69
                      A                      A                      A
 Frequencies --   1363.3018              1370.9785              1376.3732
 Red. masses --      1.2299                 1.2614                 1.3315
 Frc consts  --      1.3468                 1.3968                 1.4862
 IR Inten    --      1.2875                 0.4693                 0.2709

                     70                     71                     72
                      A                      A                      A
 Frequencies --   1382.8751              1392.9550              1394.6435
 Red. masses --      1.3398                 1.3970                 1.4626
 Frc consts  --      1.5096                 1.5971                 1.6761
 IR Inten    --      1.9000                 0.4655                 1.6826

                     73                     74                     75
                      A                      A                      A
 Frequencies --   1405.7873              1411.3482              1417.2128
 Red. masses --      1.4462                 1.3302                 1.4214
 Frc consts  --      1.6840                 1.5612                 1.6821
 IR Inten    --      0.8660                 3.9482                 0.5952

                     76                     77                     78
                      A                      A                      A
 Frequencies --   1425.2618              1431.1262              1436.1105
 Red. masses --      1.4130                 1.3468                 1.2374
 Frc consts  --      1.6911                 1.6252                 1.5036
 IR Inten    --      2.0389                 2.9732                14.0357

                     79                     80                     81
                      A                      A                      A
 Frequencies --   1438.4063              1446.3611              1447.5754
 Red. masses --      1.2597                 1.2268                 1.2281
 Frc consts  --      1.5357                 1.5120                 1.5162
 IR Inten    --      1.9739                13.2164                 8.4003

                     82                     83                     84
                      A                      A                      A
 Frequencies --   1457.9837              1510.7358              1513.3811
 Red. masses --      1.1888                 1.0699                 1.0817
 Frc consts  --      1.4889                 1.4388                 1.4596
 IR Inten    --     20.8933                 1.0939                 1.4823

                     85                     86                     87
                      A                      A                      A
 Frequencies --   1517.8302              1521.6353              1522.3768
 Red. masses --      1.0676                 1.0646                 1.0638
 Frc consts  --      1.4491                 1.4523                 1.4527
 IR Inten    --      0.6385                 7.2646                 4.4310

                     88                     89                     90
                      A                      A                      A
 Frequencies --   1526.2983              1528.8517              1529.5594
 Red. masses --      1.0578                 1.0475                 1.0686
 Frc consts  --      1.4518                 1.4425                 1.4730
 IR Inten    --      3.2575                11.7931                 2.0804

                     91                     92                     93
                      A                      A                      A
 Frequencies --   1533.5188              1537.0071              1540.0421
 Red. masses --      1.0661                 1.0460                 1.0618
 Frc consts  --      1.4771                 1.4559                 1.4838
 IR Inten    --      7.2871                 3.4526                 4.8266

                     94                     95                     96
                      A                      A                      A
 Frequencies --   1542.0647              1548.3740              2969.4359
 Red. masses --      1.0793                 1.0588                 1.0816
 Frc consts  --      1.5121                 1.4956                 5.6189
 IR Inten    --      0.6414                 2.4597                14.0889

                     97                     98                     99
                      A                      A                      A
 Frequencies --   3012.1356              3017.5428              3020.6343
 Red. masses --      1.0824                 1.0731                 1.0671
 Frc consts  --      5.7862                 5.7571                 5.7364
 IR Inten    --     23.6835                 4.4568                33.4633

                    100                    101                    102
                      A                      A                      A
 Frequencies --   3028.7386              3036.1150              3037.2427
 Red. masses --      1.0796                 1.0502                 1.0780
 Frc consts  --      5.8350                 5.7036                 5.8590
 IR Inten    --     17.4036                19.8441                43.1084

                    103                    104                    105
                      A                      A                      A
 Frequencies --   3043.3825              3045.1757              3048.2710
 Red. masses --      1.0422                 1.0607                 1.0421
 Frc consts  --      5.6875                 5.7950                 5.7052
 IR Inten    --     29.1162                11.8517                23.9963

                    106                    107                    108
                      A                      A                      A
 Frequencies --   3054.9429              3059.7085              3065.2917
 Red. masses --      1.0644                 1.0718                 1.0589
 Frc consts  --      5.8527                 5.9119                 5.8619
 IR Inten    --     86.4450                 6.1502                23.3741

                    109                    110                    111
                      A                      A                      A
 Frequencies --   3067.8125              3071.8048              3086.0633
 Red. masses --      1.0640                 1.0884                 1.0909
 Frc consts  --      5.8998                 6.0508                 6.1213
 IR Inten    --     41.1103                47.6426                61.7037

                    112                    113                    114
                      A                      A                      A
 Frequencies --   3092.5520              3097.8415              3105.6377
 Red. masses --      1.0952                 1.0995                 1.0978
 Frc consts  --      6.1713                 6.2165                 6.2386
 IR Inten    --      8.4115                47.7274                46.8947

                    115                    116                    117
                      A                      A                      A
 Frequencies --   3109.1327              3110.4920              3113.8482
 Red. masses --      1.1004                 1.1015                 1.0912
 Frc consts  --      6.2674                 6.2790                 6.2340
 IR Inten    --     22.3982                57.2181                43.3128

                    118                    119                    120
                      A                      A                      A
 Frequencies --   3122.6270              3130.6142              3132.4936
 Red. masses --      1.0995                 1.0992                 1.0978
 Frc consts  --      6.3169                 6.3475                 6.3465
 IR Inten    --     50.3376                49.3215                32.5409

                    121                    122                    123
                      A                      A                      A
 Frequencies --   3144.0597              3155.4198              3723.5912
 Red. masses --      1.1015                 1.0995                 1.0659
 Frc consts  --      6.4151                 6.4498                 8.7074
 IR Inten    --     36.8831                23.9659                 7.2246

 - Thermochemistry -
 -------------------
 Temperature   298.150 Kelvin.  Pressure   1.00000 Atm.
 Atom     1 has atomic number  6 and mass  12.00000

 Molecular mass:   212.21402 amu.
 Principal axes and moments of inertia in atomic units:
                           1         2         3
     Eigenvalues --  2563.513524484.440745227.46840
           X            0.99990   0.01218   0.00767
           Y           -0.01216   0.99992  -0.00207
           Z           -0.00770   0.00198   0.99997
 This molecule is an asymmetric top.
 Rotational symmetry number  1.
 Warning -- assumption of classical behavior for rotation
           may cause significant error
 Rotational temperatures (Kelvin)      0.03379     0.01931     0.01657
 Rotational constants (GHZ):           0.70401     0.40245     0.34524
 Zero-point vibrational energy    1062897.8 (Joules/Mol)
                                  254.03866 (Kcal/Mol)
 Warning -- explicit consideration of  28 degrees of freedom as
           vibrations may cause significant error
 Vibrational temperatures:     28.18    76.70   107.52   120.64   166.41
          (Kelvin)            210.64   230.99   276.27   299.93   307.42
                              323.76   353.71   369.66   411.09   434.43
                              450.99   488.12   500.89   522.45   530.11
                              554.33   607.09   653.81   659.54   704.71
                              731.63   812.07   847.99  1009.40  1027.88
                             1140.60  1159.23  1188.02  1217.65  1246.53
                             1296.97  1322.23  1335.05  1368.26  1390.81
                             1415.96  1432.44  1446.14  1479.18  1502.65
                             1509.91  1525.70  1532.83  1564.44  1577.48
                             1600.49  1621.64  1634.37  1647.55  1674.16
                             1704.14  1716.90  1740.97  1801.04  1819.66
                             1857.04  1885.40  1894.99  1903.65  1919.14
                             1932.31  1961.49  1972.53  1980.29  1989.65
                             2004.15  2006.58  2022.61  2030.62  2039.05
                             2050.63  2059.07  2066.24  2069.55  2080.99
                             2082.74  2097.71  2173.61  2177.42  2183.82
                             2189.29  2190.36  2196.00  2199.68  2200.69
                             2206.39  2211.41  2215.78  2218.69  2227.76
                             4272.36  4333.79  4341.57  4346.02  4357.68
                             4368.29  4369.91  4378.75  4381.33  4385.78
                             4395.38  4402.24  4410.27  4413.90  4419.64
                             4440.16  4449.49  4457.10  4468.32  4473.35
                             4475.30  4480.13  4492.76  4504.26  4506.96
                             4523.60  4539.95  5357.42

 Zero-point correction=                           0.404836 (Hartree/Particle)
 Thermal correction to Energy=                    0.422238
 Thermal correction to Enthalpy=                  0.423183
 Thermal correction to Gibbs Free Energy=         0.360348
 Sum of electronic and zero-point Energies=           -625.248559
 Sum of electronic and thermal Energies=              -625.231157
 Sum of electronic and thermal Enthalpies=            -625.230213
 Sum of electronic and thermal Free Energies=         -625.293047

                     E (Thermal)             CV                S
                      KCal/Mol        Cal/Mol-Kelvin    Cal/Mol-Kelvin
 Total                  264.959             67.838            132.246
 Electronic               0.000              0.000              0.000
 Translational            0.889              2.981             41.961
 Rotational               0.889              2.981             32.463
 Vibrational            263.181             61.876             57.822
 Vibration     1          0.593              1.986              6.675
 Vibration     2          0.596              1.976              4.691
 Vibration     3          0.599              1.966              4.025
 Vibration     4          0.601              1.960              3.799
 Vibration     5          0.608              1.936              3.172
 Vibration     6          0.617              1.907              2.718
 Vibration     7          0.622              1.891              2.543
 Vibration     8          0.634              1.851              2.208
 Vibration     9          0.642              1.828              2.057
 Vibration    10          0.644              1.820              2.012
 Vibration    11          0.650              1.803              1.918
 Vibration    12          0.660              1.770              1.760
 Vibration    13          0.667              1.751              1.683
 Vibration    14          0.684              1.700              1.499
 Vibration    15          0.694              1.670              1.406
 Vibration    16          0.701              1.648              1.344
 Vibration    17          0.719              1.597              1.216
 Vibration    18          0.726              1.579              1.175
 Vibration    19          0.737              1.548              1.109
 Vibration    20          0.741              1.537              1.086
 Vibration    21          0.754              1.502              1.018
 Vibration    22          0.784              1.423              0.885
 Vibration    23          0.813              1.351              0.783
 Vibration    24          0.816              1.342              0.771
 Vibration    25          0.846              1.273              0.684
 Vibration    26          0.864              1.231              0.637
 Vibration    27          0.920              1.108              0.515
 Vibration    28          0.947              1.054              0.468

 Optimization completed.
    -- Stationary point found.
 Normal termination of Gaussian 16 at Thu Dec 10 17:24:28 2020.

 ----------------------------------------------------------------------
 # B3LYP/6-311++G(d,p) empiricaldispersion=gd3bj scf=xqc pop=npa geom=c
 heck
 ----------------------------------------------------------------------

 ---------------------------------------
 CID_141910428_JID_5747_Energie_neutraal
 ---------------------------------------
 Structure from the checkpoint file:  "JID_5747.chk"
 Charge =  0 Multiplicity = 1

 SCF Done:  E(RB3LYP) =  -625.835098447     A.U. after   14 cycles
 Normal termination of Gaussian 16 at Thu Dec 10 17:35:17 2020.

 ----------------------------------------------------------------------
 # B3LYP/6-311++G(d,p) empiricaldispersion=gd3bj scf=xqc pop=npa geom=c
 heck
 ----------------------------------------------------------------------

 -------------------------------------
 CID_141910428_JID_5747_Energie_kation
 -------------------------------------
 Structure from the checkpoint file:  "JID_5747.chk"
 Charge =  1 Multiplicity = 2

 SCF Done:  E(UB3LYP) =  -625.502341589     A.U. after   26 cycles
 Normal termination of Gaussian 16 at Thu Dec 10 17:57:37 2020.
 Gaussian 16:  ES64L-G16RevA.03 25-Dec-2016

 ----------------------------------------------------------------------
 # B3LYP/6-311++G(d,p) empiricaldispersion=gd3bj scf=xqc pop=npa geom=c
 heck
 ----------------------------------------------------------------------

 ------------------------------------
 CID_141910428_JID_5747_Energie_anion
 ------------------------------------
 Structure from the checkpoint file:  "JID_5747.chk"
 Charge = -1 Multiplicity = 2

                         Standard orientation:
 ---------------------------------------------------------------------
 Center     Atomic      Atomic             Coordinates (Angstroms)
 Number     Number       Type             X           Y           Z
 ---------------------------------------------------------------------
      1          6           0       -2.189764   -2.360234    1.821895
      2          6           0       -1.834396   -1.004979    1.199194
      3          6           0       -1.541302   -1.077772   -0.311196
      4          6           0       -2.772015   -1.582911   -1.085336
      5          6           0       -0.968076    0.205956   -0.984264
      6          6           0       -1.949235    1.399151   -1.071005
      7          6           0       -2.009142    2.286714    0.176514
      8          6           0       -0.609647    2.781199    0.541273
      9          6           0        0.363885    1.613949    0.739037
     10          6           0        0.436605    0.691774   -0.497232
     11          6           0        1.479401   -0.459021   -0.384985
     12          6           0        1.633224   -1.174084   -1.736629
     13          6           0        2.863304    0.050565    0.133370
     14          6           0        3.011350   -0.084980    1.650575
     15          8           0        3.980853   -0.585739   -0.496356
     16          1           0       -3.137102   -2.754073    1.439994
     17          1           0       -2.283866   -2.276784    2.910402
     18          1           0       -1.411344   -3.104671    1.611180
     19          1           0       -2.652156   -0.298413    1.387210
     20          1           0       -0.958598   -0.609702    1.721827
     21          1           0       -0.768717   -1.849150   -0.432645
     22          1           0       -3.660726   -0.975937   -0.876474
     23          1           0       -2.596476   -1.555640   -2.167123
     24          1           0       -3.013047   -2.616259   -0.818390
     25          1           0       -0.818321   -0.105142   -2.025867
     26          1           0       -1.625664    2.031419   -1.910621
     27          1           0       -2.950726    1.042584   -1.334593
     28          1           0       -2.434669    1.736914    1.024107
     29          1           0       -2.677772    3.136872   -0.009758
     30          1           0       -0.638710    3.399568    1.447122
     31          1           0       -0.235007    3.426245   -0.267361
     32          1           0        0.070646    1.049609    1.631438
     33          1           0        1.356493    2.025124    0.948403
     34          1           0        0.805075    1.337868   -1.312407
     35          1           0        1.109613   -1.191763    0.347426
     36          1           0        1.987258   -0.478226   -2.505531
     37          1           0        2.360318   -1.987295   -1.681710
     38          1           0        0.685888   -1.601574   -2.074424
     39          1           0        2.979681    1.099896   -0.160727
     40          1           0        2.974394   -1.147297    1.930802
     41          1           0        3.975354    0.319184    1.975085
     42          1           0        2.214371    0.421223    2.199761
     43          1           0        4.011834   -1.500625   -0.173552
 ---------------------------------------------------------------------

 SCF Done:  E(UB3LYP) =  -625.821557942     A.U. after   30 cycles

 The electronic state is 2-A.
 Alpha  occ. eigenvalues --  -19.02158 -10.12376 -10.07738 -10.07519 -10.07327
 Alpha  occ. eigenvalues --  -10.07302 -10.06889 -10.06646 -10.06643 -10.06617
 Alpha  occ. eigenvalues --  -10.06499 -10.06317 -10.05943 -10.05931 -10.05624
 Alpha  occ. eigenvalues --   -0.92467  -0.74968  -0.70352  -0.69558  -0.65207
 Alpha  occ. eigenvalues --   -0.64024  -0.62555  -0.61046  -0.55191  -0.54237
 Alpha  occ. eigenvalues --   -0.51692  -0.51480  -0.47830  -0.46894  -0.43368
 Alpha  occ. eigenvalues --   -0.39450  -0.38750  -0.37321  -0.35624  -0.35219
 Alpha  occ. eigenvalues --   -0.34980  -0.34481  -0.33260  -0.32426  -0.31535
 Alpha  occ. eigenvalues --   -0.30702  -0.30618  -0.29239  -0.28468  -0.27781
 Alpha  occ. eigenvalues --   -0.27745  -0.27045  -0.26797  -0.26123  -0.25414
 Alpha  occ. eigenvalues --   -0.25102  -0.23967  -0.23792  -0.22347  -0.22282
 Alpha  occ. eigenvalues --   -0.21913  -0.20039  -0.19563  -0.19341  -0.17280
 Alpha  occ. eigenvalues --    0.04224
 Alpha virt. eigenvalues --    0.06082   0.06695   0.06789   0.08052   0.08447
 Alpha virt. eigenvalues --    0.08607   0.09049   0.09159   0.10432   0.10800
 Alpha virt. eigenvalues --    0.11294   0.11492   0.11607   0.11794   0.11947

  Beta  occ. eigenvalues --  -19.02131 -10.12370 -10.07735 -10.07512 -10.07322
  Beta  occ. eigenvalues --  -10.07298 -10.06877 -10.06639 -10.06632 -10.06606
  Beta  occ. eigenvalues --  -10.06489 -10.06288 -10.05918 -10.05901 -10.05605
  Beta  occ. eigenvalues --   -0.92407  -0.74951  -0.70331  -0.69533  -0.65180
  Beta  occ. eigenvalues --   -0.63989  -0.62524  -0.61012  -0.55142  -0.54183
  Beta  occ. eigenvalues --   -0.51656  -0.51434  -0.47794  -0.46850  -0.43343
  Beta  occ. eigenvalues --   -0.39418  -0.38715  -0.37283  -0.35589  -0.35189
  Beta  occ. eigenvalues --   -0.34955  -0.34458  -0.33232  -0.32402  -0.31505
  Beta  occ. eigenvalues --   -0.30676  -0.30589  -0.29210  -0.28443  -0.27742
  Beta  occ. eigenvalues --   -0.27705  -0.27018  -0.26762  -0.26096  -0.25390
  Beta  occ. eigenvalues --   -0.25077  -0.23941  -0.23770  -0.22319  -0.22259
  Beta  occ. eigenvalues --   -0.21878  -0.20017  -0.19541  -0.19318  -0.17257
  Beta virt. eigenvalues --    0.06172   0.06954   0.07226   0.07283   0.08476
  Beta virt. eigenvalues --    0.08771   0.08994   0.09358   0.09502   0.10745
  Beta virt. eigenvalues --    0.11078   0.11615   0.11727   0.11898   0.11983

 Mulliken charges and spin densities:
               1          2
     1  C    1.250798  -1.994137
     2  C   -1.606127   1.290184
     3  C   -1.017157   1.349283
     4  C    0.881833  -1.612575
     5  C    0.339611   0.010026
     6  C    0.851925  -1.524904
     7  C   -0.907675   0.738051
     8  C    0.436516  -1.251722
     9  C   -0.249265   0.155107
    10  C    0.344935  -0.399610
    11  C    0.057613   0.106270
    12  C   -0.210789  -0.533303
    13  C   -0.727942   0.492414
    14  C    0.417742  -0.936719
    15  O   -0.185356  -0.006229
    16  H    0.023728   0.120653
    17  H   -0.263584   0.403760
    18  H   -0.392436   0.540881
    19  H   -0.100423   0.219293
    20  H    0.352781  -0.232134
    21  H    0.273435  -0.100434
    22  H   -0.043105   0.193945
    23  H   -0.190609   0.325503
    24  H   -0.075449   0.217081
    25  H    0.328060  -0.078116
    26  H   -0.076177   0.208372
    27  H    0.087751   0.074609
    28  H    0.028357   0.077480
    29  H   -0.282860   0.473450
    30  H   -0.241833   0.415437
    31  H    0.124836  -0.012241
    32  H   -0.091391   0.231655
    33  H    0.200779  -0.039329
    34  H    0.012103   0.185624
    35  H    0.401105  -0.204597
    36  H    0.154124   0.018419
    37  H   -0.358595   0.495206
    38  H   -0.161925   0.285167
    39  H    0.096911   0.106226
    40  H   -0.411604   0.579609
    41  H   -0.049983   0.202618
    42  H   -0.112023   0.258356
    43  H    0.091363   0.151377
 Sum of Mulliken charges =  -1.00000   1.00000

 Dipole moment (field-independent basis, Debye):
    X=             -0.4685    Y=              3.0742    Z=             -1.6432  Tot=              3.5172
 Quadrupole moment (field-independent basis, Debye-Ang):
   XX=           -168.7772   YY=           -155.4069   ZZ=           -143.9105
   XY=              5.1139   XZ=             -0.0328   YZ=              1.7598

 Summary of Natural Population Analysis:

                                       Natural Population
                Natural  -----------------------------------------------
    Atom  No    Charge         Core      Valence    Rydberg      Total
 -----------------------------------------------------------------------
      C    1   -0.28384      0.99967     2.27920    0.00498     3.28384
      C    2   -0.18992      0.99961     2.18226    0.00805     3.18992
      C    3   -0.11317      0.99957     2.10237    0.01123     3.11317
      C    4   -0.28611      0.99965     2.28012    0.00634     3.28611
      C    5   -0.10134      0.99956     2.09008    0.01170     3.10134
      C    6   -0.18944      0.99961     2.18038    0.00945     3.18944
      C    7   -0.19067      0.99962     2.18354    0.00750     3.19067
      C    8   -0.18542      0.99963     2.17763    0.00817     3.18542
      C    9   -0.19165      0.99960     2.18400    0.00805     3.19165
      C   10   -0.10011      0.99957     2.09037    0.01018     3.10011
      C   11   -0.12346      0.99956     2.11259    0.01131     3.12346
      C   12   -0.28332      0.99965     2.27679    0.00688     3.28332
      C   13    0.06753      0.99956     1.91979    0.01312     2.93247
      C   14   -0.29680      0.99964     2.29142    0.00574     3.29680
      O   15   -0.37076      0.99990     3.36438    0.00648     4.37076
      H   16    0.09544      0.00000     0.40362    0.00094     0.40456
      H   17    0.09891      0.00000     0.40026    0.00083     0.40109
      H   18    0.09761      0.00000     0.40113    0.00126     0.40239
      H   19    0.09212      0.00000     0.40642    0.00146     0.40788
      H   20    0.09628      0.00000     0.40175    0.00198     0.40372
      H   21    0.09690      0.00000     0.40083    0.00227     0.40310
      H   22    0.09542      0.00000     0.40359    0.00099     0.40458
      H   23    0.09884      0.00000     0.40021    0.00095     0.40116
      H   24    0.10130      0.00000     0.39792    0.00077     0.39870
      H   25    0.09967      0.00000     0.39876    0.00157     0.40033
      H   26    0.09406      0.00000     0.40480    0.00114     0.40594
      H   27    0.10104      0.00000     0.39795    0.00101     0.39896
      H   28    0.09400      0.00000     0.40422    0.00178     0.40600
      H   29    0.09665      0.00000     0.40236    0.00099     0.40335
      H   30    0.09801      0.00000     0.40111    0.00088     0.40199
      H   31    0.09035      0.00000     0.40846    0.00119     0.40965
      H   32    0.09513      0.00000     0.40308    0.00179     0.40487
      H   33    0.09814      0.00000     0.40065    0.00121     0.40186
      H   34    0.09299      0.00000     0.40524    0.00176     0.40701
      H   35    0.09556      0.00000     0.40171    0.00273     0.40444
      H   36    0.09828      0.00000     0.40086    0.00086     0.40172
      H   37    0.10281      0.00000     0.39617    0.00103     0.39719
      H   38    0.09814      0.00000     0.40083    0.00103     0.40186
      H   39    0.08229      0.00000     0.41590    0.00181     0.41771
      H   40    0.09828      0.00000     0.40006    0.00166     0.40172
      H   41    0.10042      0.00000     0.39875    0.00083     0.39958
      H   42    0.10367      0.00000     0.39508    0.00125     0.39633
      H   43    0.22616      0.00000     0.27056    0.00328     0.27384
 =======================================================================
   * Total *   -0.00000     14.99438    44.83720    0.16842    60.00000

 Normal termination of Gaussian 16 at Thu Dec 10 18:18:46 2020.
