 Gaussian 16, Revision A.03,

 -----------------------------------------------------------
 # opt freq B3LYP/6-31G(d) empiricaldispersion=gd3bj scf=xqc
 -----------------------------------------------------------

 -------------------------------
 CID_115386258_JID_3708_neutraal
 -------------------------------
 Symbolic Z-matrix:
 Charge =  0 Multiplicity = 1

 SCF Done:  E(RB3LYP) =  -1264.77868122     A.U. after   13 cycles
 SCF Done:  E(RB3LYP) =  -1264.78124149     A.U. after   11 cycles
 SCF Done:  E(RB3LYP) =  -1264.78133462     A.U. after   11 cycles
 SCF Done:  E(RB3LYP) =  -1264.78183139     A.U. after   11 cycles
 SCF Done:  E(RB3LYP) =  -1264.78193937     A.U. after   10 cycles
 SCF Done:  E(RB3LYP) =  -1264.78192358     A.U. after   10 cycles
 SCF Done:  E(RB3LYP) =  -1264.78197075     A.U. after   10 cycles
 SCF Done:  E(RB3LYP) =  -1264.78197596     A.U. after    9 cycles
 SCF Done:  E(RB3LYP) =  -1264.78197614     A.U. after    7 cycles
 SCF Done:  E(RB3LYP) =  -1264.78197618     A.U. after    6 cycles
 Optimization completed.
    -- Stationary point found.
 Normal termination of Gaussian 16 at Wed Dec  9 23:37:50 2020.

 --------------------------------------------------------------------
 #N Geom=AllCheck Guess=TCheck SCRF=Check GenChk RB3LYP/6-31G(d) Freq
 --------------------------------------------------------------------

 Structure from the checkpoint file:  "JID_3708.chk"
 -------------------------------
 CID_115386258_JID_3708_neutraal
 -------------------------------
 Charge =  0 Multiplicity = 1

 SCF Done:  E(RB3LYP) =  -1264.78197618     A.U. after    1 cycles

  Exact polarizability: 162.445   5.366 132.076  -6.242   3.059 121.383
 Approx polarizability: 219.094   9.123 198.002 -10.602   8.359 194.260

                      1                      2                      3
                      A                      A                      A
 Frequencies --     39.8511                62.2392                75.9100
 Red. masses --      3.5692                 3.1888                 3.0726
 Frc consts  --      0.0033                 0.0073                 0.0104
 IR Inten    --      0.2246                 0.1554                 0.1214

                      4                      5                      6
                      A                      A                      A
 Frequencies --    108.3051               129.3650               181.1094
 Red. masses --      6.0253                 3.4748                 2.6686
 Frc consts  --      0.0416                 0.0343                 0.0516
 IR Inten    --      0.4140                 2.3321                 0.6258

                      7                      8                      9
                      A                      A                      A
 Frequencies --    194.1606               221.0311               223.5641
 Red. masses --      3.8748                 1.0809                 3.0358
 Frc consts  --      0.0861                 0.0311                 0.0894
 IR Inten    --      1.0631                 0.2883                 2.0054

                     10                     11                     12
                      A                      A                      A
 Frequencies --    237.4601               249.4803               283.1040
 Red. masses --      1.1822                 1.3759                 3.0652
 Frc consts  --      0.0393                 0.0505                 0.1447
 IR Inten    --      1.5459                 1.1734                 3.0242

                     13                     14                     15
                      A                      A                      A
 Frequencies --    297.9549               309.9244               313.4709
 Red. masses --      2.6418                 2.6531                 4.0738
 Frc consts  --      0.1382                 0.1501                 0.2359
 IR Inten    --      1.4948                 0.6881                 0.9082

                     16                     17                     18
                      A                      A                      A
 Frequencies --    355.5121               386.9010               401.7238
 Red. masses --      3.1776                 2.6271                 3.2204
 Frc consts  --      0.2366                 0.2317                 0.3062
 IR Inten    --      1.3347                 0.3892                 0.3057

                     19                     20                     21
                      A                      A                      A
 Frequencies --    439.6088               448.7851               464.6330
 Red. masses --      1.9587                 2.6707                 1.1816
 Frc consts  --      0.2230                 0.3169                 0.1503
 IR Inten    --      0.8375                 0.0422                90.6993

                     22                     23                     24
                      A                      A                      A
 Frequencies --    481.0976               568.6809               595.8742
 Red. masses --      2.9062                 3.9485                 3.4495
 Frc consts  --      0.3963                 0.7523                 0.7216
 IR Inten    --      7.4526                 4.7007                 1.6293

                     25                     26                     27
                      A                      A                      A
 Frequencies --    633.7790               650.6269               683.5977
 Red. masses --      3.7217                 4.5695                 3.7693
 Frc consts  --      0.8808                 1.1397                 1.0378
 IR Inten    --      7.8067                 4.2141                 1.0984

                     28                     29                     30
                      A                      A                      A
 Frequencies --    779.4267               808.6448               882.6245
 Red. masses --      3.3558                 2.9757                 1.7930
 Frc consts  --      1.2011                 1.1465                 0.8229
 IR Inten    --      5.5104                 0.9360                14.5273

                     31                     32                     33
                      A                      A                      A
 Frequencies --    890.3983               919.9026               944.5387
 Red. masses --      1.6444                 2.3615                 1.5526
 Frc consts  --      0.7681                 1.1774                 0.8161
 IR Inten    --      7.8157                 3.2976                 1.4226

                     34                     35                     36
                      A                      A                      A
 Frequencies --    947.1877               957.9062               981.8631
 Red. masses --      1.4542                 1.7554                 1.5170
 Frc consts  --      0.7687                 0.9490                 0.8616
 IR Inten    --      4.1487                 1.9912                 0.2913

                     37                     38                     39
                      A                      A                      A
 Frequencies --    989.4664              1021.1738              1023.4244
 Red. masses --      2.3942                 1.8554                 2.1093
 Frc consts  --      1.3811                 1.1400                 1.3017
 IR Inten    --      2.1790                 2.8849                 1.6270

                     40                     41                     42
                      A                      A                      A
 Frequencies --   1040.9478              1079.0511              1119.6552
 Red. masses --      2.1388                 2.2204                 1.9854
 Frc consts  --      1.3654                 1.5232                 1.4664
 IR Inten    --      7.3368                32.9891                 3.5102

                     43                     44                     45
                      A                      A                      A
 Frequencies --   1133.7936              1158.2448              1168.6515
 Red. masses --      1.7585                 2.1523                 1.1035
 Frc consts  --      1.3319                 1.7012                 0.8879
 IR Inten    --     22.4848                 4.8903                10.6137

                     46                     47                     48
                      A                      A                      A
 Frequencies --   1185.8484              1207.0078              1212.5703
 Red. masses --      2.1890                 1.4219                 1.6091
 Frc consts  --      1.8136                 1.2205                 1.3939
 IR Inten    --     19.0321                 2.5437                 4.1937

                     49                     50                     51
                      A                      A                      A
 Frequencies --   1265.0537              1268.4998              1279.1967
 Red. masses --      1.2789                 1.2802                 1.1569
 Frc consts  --      1.2059                 1.2137                 1.1154
 IR Inten    --      9.1215                 4.3790                25.0488

                     52                     53                     54
                      A                      A                      A
 Frequencies --   1302.2556              1304.3632              1343.0977
 Red. masses --      1.2582                 1.2697                 1.3019
 Frc consts  --      1.2572                 1.2727                 1.3837
 IR Inten    --     45.5723                 1.6862                15.6108

                     55                     56                     57
                      A                      A                      A
 Frequencies --   1347.4507              1352.0495              1357.3581
 Red. masses --      1.2592                 1.2853                 1.2451
 Frc consts  --      1.3470                 1.3843                 1.3515
 IR Inten    --     19.6163                 3.4203                19.8235

                     58                     59                     60
                      A                      A                      A
 Frequencies --   1389.8718              1403.4399              1420.8487
 Red. masses --      1.3521                 1.2942                 1.5279
 Frc consts  --      1.5388                 1.5019                 1.8174
 IR Inten    --      3.2915                 6.7587                 6.4882

                     61                     62                     63
                      A                      A                      A
 Frequencies --   1431.6800              1438.0364              1445.6121
 Red. masses --      1.2517                 1.2230                 1.4264
 Frc consts  --      1.5117                 1.4901                 1.7563
 IR Inten    --      8.0076                 4.6879                39.7511

                     64                     65                     66
                      A                      A                      A
 Frequencies --   1455.1926              1487.2078              1494.5879
 Red. masses --      1.2458                 1.0803                 1.0942
 Frc consts  --      1.5543                 1.4078                 1.4401
 IR Inten    --     21.6565                 6.7486                 4.7156

                     67                     68                     69
                      A                      A                      A
 Frequencies --   1508.8227              1516.0326              1518.2355
 Red. masses --      1.0791                 1.0427                 1.0430
 Frc consts  --      1.4473                 1.4119                 1.4165
 IR Inten    --      3.5256                 2.3255                 5.5658

                     70                     71                     72
                      A                      A                      A
 Frequencies --   1526.5421              1531.6971              1533.6377
 Red. masses --      1.0596                 1.0472                 1.0465
 Frc consts  --      1.4549                 1.4475                 1.4502
 IR Inten    --      5.9851                 3.5632                 7.5040

                     73                     74                     75
                      A                      A                      A
 Frequencies --   1540.3768              3006.1679              3012.3257
 Red. masses --      1.0572                 1.0817                 1.0817
 Frc consts  --      1.4780                 5.7597                 5.7830
 IR Inten    --      6.2617                31.7760                29.0787

                     76                     77                     78
                      A                      A                      A
 Frequencies --   3036.7587              3043.8605              3048.7418
 Red. masses --      1.0370                 1.0502                 1.0499
 Frc consts  --      5.6343                 5.7326                 5.7495
 IR Inten    --     20.3692                46.0609                26.9319

                     79                     80                     81
                      A                      A                      A
 Frequencies --   3052.0762              3068.5740              3073.4061
 Red. masses --      1.0433                 1.0597                 1.0813
 Frc consts  --      5.7260                 5.8789                 6.0176
 IR Inten    --     21.8092                10.5971                 7.1407

                     82                     83                     84
                      A                      A                      A
 Frequencies --   3074.6548              3079.0582              3088.2974
 Red. masses --      1.0607                 1.0996                 1.0858
 Frc consts  --      5.9079                 6.1420                 6.1017
 IR Inten    --     36.2323                25.8832                 5.8949

                     85                     86                     87
                      A                      A                      A
 Frequencies --   3100.2740              3105.0267              3110.8919
 Red. masses --      1.1023                 1.1019                 1.1019
 Frc consts  --      6.2425                 6.2592                 6.2828
 IR Inten    --     11.4262                56.8605                56.8561

                     88                     89                     90
                      A                      A                      A
 Frequencies --   3116.4914              3124.5448              3130.2457
 Red. masses --      1.1064                 1.0941                 1.1058
 Frc consts  --      6.3313                 6.2934                 6.3842
 IR Inten    --      3.3825                18.2188                13.9760

                     91                     92                     93
                      A                      A                      A
 Frequencies --   3153.8996              3156.8757              3660.6797
 Red. masses --      1.1029                 1.0972                 1.0649
 Frc consts  --      6.4639                 6.4427                 8.4077
 IR Inten    --     14.6796                17.8163                42.4156

 - Thermochemistry -
 -------------------
 Temperature   298.150 Kelvin.  Pressure   1.00000 Atm.
 Atom     1 has atomic number  6 and mass  12.00000

 Molecular mass:   220.09556 amu.
 Principal axes and moments of inertia in atomic units:
                           1         2         3
     Eigenvalues --  1927.101174369.854465096.04309
           X            0.99992   0.01240  -0.00180
           Y           -0.01247   0.99854  -0.05255
           Z            0.00114   0.05257   0.99862
 This molecule is an asymmetric top.
 Rotational symmetry number  1.
 Warning -- assumption of classical behavior for rotation
           may cause significant error
 Rotational temperatures (Kelvin)      0.04495     0.01982     0.01700
 Rotational constants (GHZ):           0.93651     0.41300     0.35415
 Zero-point vibrational energy     766770.9 (Joules/Mol)
                                  183.26263 (Kcal/Mol)
 Warning -- explicit consideration of  24 degrees of freedom as
           vibrations may cause significant error
 Vibrational temperatures:     57.34    89.55   109.22   155.83   186.13
          (Kelvin)            260.58   279.35   318.01   321.66   341.65
                              358.95   407.32   428.69   445.91   451.01
                              511.50   556.66   577.99   632.50   645.70
                              668.50   692.19   818.20   857.33   911.87
                              936.11   983.54  1121.42  1163.46  1269.90
                             1281.08  1323.53  1358.98  1362.79  1378.21
                             1412.68  1423.62  1469.24  1472.48  1497.69
                             1552.51  1610.93  1631.28  1666.46  1681.43
                             1706.17  1736.61  1744.62  1820.13  1825.09
                             1840.48  1873.66  1876.69  1932.42  1938.68
                             1945.30  1952.94  1999.72  2019.24  2044.28
                             2059.87  2069.01  2079.91  2093.70  2139.76
                             2150.38  2170.86  2181.23  2184.40  2196.35
                             2203.77  2206.56  2216.26  4325.21  4334.06
                             4369.22  4379.44  4386.46  4391.26  4414.99
                             4421.95  4423.74  4430.08  4443.37  4460.60
                             4467.44  4475.88  4483.94  4495.52  4503.73
                             4537.76  4542.04  5266.90

 Zero-point correction=                           0.292048 (Hartree/Particle)
 Thermal correction to Energy=                    0.307338
 Thermal correction to Enthalpy=                  0.308282
 Thermal correction to Gibbs Free Energy=         0.250112
 Sum of electronic and zero-point Energies=          -1264.489929
 Sum of electronic and thermal Energies=             -1264.474639
 Sum of electronic and thermal Enthalpies=           -1264.473694
 Sum of electronic and thermal Free Energies=        -1264.531864

                     E (Thermal)             CV                S
                      KCal/Mol        Cal/Mol-Kelvin    Cal/Mol-Kelvin
 Total                  192.857             58.543            122.428
 Electronic               0.000              0.000              0.000
 Translational            0.889              2.981             42.070
 Rotational               0.889              2.981             32.129
 Vibrational            191.080             52.582             48.230
 Vibration     1          0.594              1.981              5.266
 Vibration     2          0.597              1.972              4.385
 Vibration     3          0.599              1.965              3.994
 Vibration     4          0.606              1.943              3.299
 Vibration     5          0.612              1.924              2.955
 Vibration     6          0.630              1.865              2.317
 Vibration     7          0.635              1.848              2.188
 Vibration     8          0.648              1.809              1.951
 Vibration     9          0.649              1.805              1.930
 Vibration    10          0.656              1.783              1.822
 Vibration    11          0.662              1.764              1.734
 Vibration    12          0.682              1.705              1.515
 Vibration    13          0.691              1.678              1.428
 Vibration    14          0.699              1.655              1.363
 Vibration    15          0.701              1.648              1.344
 Vibration    16          0.731              1.564              1.142
 Vibration    17          0.755              1.498              1.012
 Vibration    18          0.767              1.466              0.956
 Vibration    19          0.800              1.384              0.828
 Vibration    20          0.808              1.364              0.799
 Vibration    21          0.822              1.329              0.753
 Vibration    22          0.837              1.292              0.707
 Vibration    23          0.925              1.099              0.507
 Vibration    24          0.954              1.041              0.457

 Optimization completed.
    -- Stationary point found.
 Normal termination of Gaussian 16 at Wed Dec  9 23:47:35 2020.

 ----------------------------------------------------------------------
 # B3LYP/6-311++G(d,p) empiricaldispersion=gd3bj scf=xqc pop=npa geom=c
 heck
 ----------------------------------------------------------------------

 ---------------------------------------
 CID_115386258_JID_3708_Energie_neutraal
 ---------------------------------------
 Structure from the checkpoint file:  "JID_3708.chk"
 Charge =  0 Multiplicity = 1

 SCF Done:  E(RB3LYP) =  -1264.97674764     A.U. after   14 cycles
 Normal termination of Gaussian 16 at Wed Dec  9 23:51:52 2020.

 ----------------------------------------------------------------------
 # B3LYP/6-311++G(d,p) empiricaldispersion=gd3bj scf=xqc pop=npa geom=c
 heck
 ----------------------------------------------------------------------

 -------------------------------------
 CID_115386258_JID_3708_Energie_kation
 -------------------------------------
 Structure from the checkpoint file:  "JID_3708.chk"
 Charge =  1 Multiplicity = 2

 SCF Done:  E(UB3LYP) =  -1264.67766652     A.U. after   22 cycles
 Normal termination of Gaussian 16 at Thu Dec 10 00:00:52 2020.
 Gaussian 16:  ES64L-G16RevA.03 25-Dec-2016

 ----------------------------------------------------------------------
 # B3LYP/6-311++G(d,p) empiricaldispersion=gd3bj scf=xqc pop=npa geom=c
 heck
 ----------------------------------------------------------------------

 ------------------------------------
 CID_115386258_JID_3708_Energie_anion
 ------------------------------------
 Structure from the checkpoint file:  "JID_3708.chk"
 Charge = -1 Multiplicity = 2

                         Standard orientation:
 ---------------------------------------------------------------------
 Center     Atomic      Atomic             Coordinates (Angstroms)
 Number     Number       Type             X           Y           Z
 ---------------------------------------------------------------------
      1          6           0        1.130389   -1.579190    1.879510
      2          6           0        0.601998   -1.129637    0.516625
      3          6           0        0.155950    0.343473    0.496350
      4         16           0        1.557483    1.517344    0.804924
      5          6           0        2.699318    1.072813   -0.563375
      6          6           0        3.128969   -0.389600   -0.535571
      7         16           0        1.753789   -1.555837   -0.865267
      8          6           0       -0.651984    0.771391   -0.749183
      9          6           0       -1.880769   -0.107788   -1.019478
     10          6           0       -2.838622   -0.398261    0.151810
     11          6           0       -3.541730    0.859279    0.678913
     12          6           0       -3.869466   -1.450044   -0.280703
     13          8           0       -1.092848    2.117053   -0.615603
     14          1           0        0.372184   -1.399649    2.652199
     15          1           0        2.028820   -1.027227    2.166284
     16          1           0        1.364832   -2.646831    1.863642
     17          1           0       -0.275614   -1.737885    0.275988
     18          1           0       -0.477353    0.511603    1.374991
     19          1           0        3.567150    1.725154   -0.416928
     20          1           0        2.247931    1.322423   -1.527611
     21          1           0        3.609327   -0.632681    0.416755
     22          1           0        3.852490   -0.581437   -1.335335
     23          1           0        0.003421    0.679985   -1.627618
     24          1           0       -2.442281    0.381890   -1.825522
     25          1           0       -1.523654   -1.059202   -1.433842
     26          1           0       -2.259469   -0.834140    0.979990
     27          1           0       -4.144254    1.319474   -0.114003
     28          1           0       -4.213106    0.605929    1.508293
     29          1           0       -2.826880    1.612428    1.015475
     30          1           0       -3.385981   -2.379505   -0.604889
     31          1           0       -4.553529   -1.692866    0.540460
     32          1           0       -4.473501   -1.078558   -1.118238
     33          1           0       -0.312419    2.635944   -0.349166
 ---------------------------------------------------------------------

 SCF Done:  E(UB3LYP) =  -1264.96371146     A.U. after   30 cycles

 The electronic state is 2-A.
 Alpha  occ. eigenvalues --  -88.74919 -88.74217 -19.02332 -10.13010 -10.11841
 Alpha  occ. eigenvalues --  -10.11707 -10.10762 -10.10572 -10.08251 -10.07423
 Alpha  occ. eigenvalues --  -10.06897 -10.06671 -10.05889  -7.83549  -7.82852
 Alpha  occ. eigenvalues --   -5.79922  -5.79566  -5.79239  -5.78943  -5.78888
 Alpha  occ. eigenvalues --   -5.78212  -0.93025  -0.75916  -0.71936  -0.69307
 Alpha  occ. eigenvalues --   -0.67327  -0.63797  -0.59707  -0.58999  -0.54745
 Alpha  occ. eigenvalues --   -0.52463  -0.51698  -0.46755  -0.43794  -0.42661
 Alpha  occ. eigenvalues --   -0.39368  -0.37438  -0.37175  -0.35243  -0.34118
 Alpha  occ. eigenvalues --   -0.33432  -0.33000  -0.31840  -0.31170  -0.29882
 Alpha  occ. eigenvalues --   -0.29635  -0.29221  -0.28671  -0.27458  -0.26928
 Alpha  occ. eigenvalues --   -0.25811  -0.23863  -0.23612  -0.23167  -0.22953
 Alpha  occ. eigenvalues --   -0.21532  -0.20158  -0.18057  -0.14710  -0.12903
 Alpha  occ. eigenvalues --    0.04302
 Alpha virt. eigenvalues --    0.05880   0.07252   0.07942   0.08334   0.08545
 Alpha virt. eigenvalues --    0.08847   0.09695   0.10038   0.10431   0.10983
 Alpha virt. eigenvalues --    0.11229   0.11600   0.12000   0.12782   0.13035

  Beta  occ. eigenvalues --  -88.74915 -88.74214 -19.02324 -10.13004 -10.11836
  Beta  occ. eigenvalues --  -10.11705 -10.10718 -10.10533 -10.08239 -10.07419
  Beta  occ. eigenvalues --  -10.06865 -10.06646 -10.05876  -7.83544  -7.82849
  Beta  occ. eigenvalues --   -5.79914  -5.79561  -5.79234  -5.78940  -5.78886
  Beta  occ. eigenvalues --   -5.78211  -0.93007  -0.75886  -0.71911  -0.69263
  Beta  occ. eigenvalues --   -0.67295  -0.63766  -0.59659  -0.58958  -0.54704
  Beta  occ. eigenvalues --   -0.52388  -0.51658  -0.46708  -0.43753  -0.42630
  Beta  occ. eigenvalues --   -0.39323  -0.37396  -0.37147  -0.35193  -0.34089
  Beta  occ. eigenvalues --   -0.33395  -0.32955  -0.31811  -0.31125  -0.29837
  Beta  occ. eigenvalues --   -0.29608  -0.29199  -0.28633  -0.27432  -0.26898
  Beta  occ. eigenvalues --   -0.25783  -0.23839  -0.23574  -0.23140  -0.22907
  Beta  occ. eigenvalues --   -0.21513  -0.20126  -0.18041  -0.14688  -0.12886
  Beta virt. eigenvalues --    0.06362   0.07170   0.07719   0.08181   0.08755
  Beta virt. eigenvalues --    0.09040   0.09319   0.09891   0.10091   0.10855
  Beta virt. eigenvalues --    0.11171   0.11452   0.11804   0.12192   0.12944

 Mulliken charges and spin densities:
               1          2
     1  C    0.372281  -1.032208
     2  C   -0.938718   0.865543
     3  C    0.481050  -0.210679
     4  S    0.561107  -0.680872
     5  C    0.026129  -0.508809
     6  C    0.216810  -0.748320
     7  S    0.089326  -0.187667
     8  C   -0.606979   0.041148
     9  C    0.678281  -1.105204
    10  C   -0.783654   1.281485
    11  C   -0.093034  -0.627521
    12  C    0.131617  -0.767367
    13  O   -0.153459  -0.005347
    14  H   -0.193134   0.322230
    15  H   -0.041644   0.182801
    16  H   -0.213514   0.367668
    17  H    0.298443  -0.007380
    18  H    0.339917   0.035457
    19  H   -0.919644   1.166194
    20  H    0.043410   0.131858
    21  H    0.142119   0.046533
    22  H   -0.602068   0.827513
    23  H    0.197260   0.004581
    24  H    0.114451   0.097059
    25  H    0.194418  -0.053214
    26  H   -0.191826   0.366868
    27  H    0.056925   0.071155
    28  H   -0.107990   0.238059
    29  H    0.183741  -0.025740
    30  H   -0.195176   0.325013
    31  H   -0.275180   0.425656
    32  H    0.070123   0.051013
    33  H    0.118611   0.112497
 Sum of Mulliken charges =  -1.00000   1.00000

 Dipole moment (field-independent basis, Debye):
    X=             -3.4917    Y=              0.7177    Z=             -0.6674  Tot=              3.6266
 Quadrupole moment (field-independent basis, Debye-Ang):
   XX=           -183.1520   YY=           -143.0720   ZZ=           -133.9535
   XY=             -9.6998   XZ=             10.6427   YZ=              4.9461

 Summary of Natural Population Analysis:

                                       Natural Population
                Natural  -----------------------------------------------
    Atom  No    Charge         Core      Valence    Rydberg      Total
 -----------------------------------------------------------------------
      C    1   -0.29063      0.99963     2.28363    0.00737     3.29063
      C    2   -0.17640      0.99952     2.16198    0.01491     3.17640
      C    3   -0.17698      0.99949     2.16245    0.01504     3.17698
      S    4    0.08748      4.99961     2.89475    0.01816     7.91252
      C    5   -0.25649      0.99957     2.24429    0.01263     3.25649
      C    6   -0.25801      0.99957     2.24564    0.01280     3.25801
      S    7    0.09098      4.99961     2.89300    0.01640     7.90902
      C    8    0.05920      0.99950     1.92728    0.01401     2.94080
      C    9   -0.19486      0.99959     2.18628    0.00898     3.19486
      C   10   -0.11928      0.99961     2.11022    0.00945     3.11928
      C   11   -0.28601      0.99965     2.27985    0.00651     3.28601
      C   12   -0.28137      0.99965     2.27516    0.00656     3.28137
      O   13   -0.38106      0.99989     3.37465    0.00652     4.38106
      H   14    0.10159      0.00000     0.39693    0.00148     0.39841
      H   15    0.10536      0.00000     0.39334    0.00130     0.39464
      H   16    0.10507      0.00000     0.39376    0.00117     0.39493
      H   17    0.11190      0.00000     0.38644    0.00166     0.38810
      H   18    0.11272      0.00000     0.38541    0.00187     0.38728
      H   19    0.11548      0.00000     0.38052    0.00400     0.38452
      H   20    0.10287      0.00000     0.39524    0.00189     0.39713
      H   21    0.10428      0.00000     0.39396    0.00176     0.39572
      H   22    0.11378      0.00000     0.38371    0.00251     0.38622
      H   23    0.08600      0.00000     0.41204    0.00196     0.41400
      H   24    0.10355      0.00000     0.39535    0.00110     0.39645
      H   25    0.10258      0.00000     0.39630    0.00112     0.39742
      H   26    0.09261      0.00000     0.40488    0.00252     0.40739
      H   27    0.09482      0.00000     0.40443    0.00076     0.40518
      H   28    0.09523      0.00000     0.40402    0.00075     0.40477
      H   29    0.10875      0.00000     0.39021    0.00105     0.39125
      H   30    0.09893      0.00000     0.40016    0.00091     0.40107
      H   31    0.10000      0.00000     0.39907    0.00093     0.40000
      H   32    0.09374      0.00000     0.40540    0.00086     0.40626
      H   33    0.23416      0.00000     0.26243    0.00341     0.26584
 =======================================================================
   * Total *    0.00000     20.99490    38.82277    0.18233    60.00000

 Normal termination of Gaussian 16 at Thu Dec 10 00:12:46 2020.
