 Gaussian 16, Revision A.03,

 -----------------------------------------------------------
 # opt freq B3LYP/6-31G(d) empiricaldispersion=gd3bj scf=xqc
 -----------------------------------------------------------

 ------------------------------
 CID_152679827_JID_355_neutraal
 ------------------------------
 Symbolic Z-matrix:
 Charge =  0 Multiplicity = 1

 SCF Done:  E(RB3LYP) =  -510.576426991     A.U. after   15 cycles
 SCF Done:  E(RB3LYP) =  -510.582215098     A.U. after   14 cycles
 SCF Done:  E(RB3LYP) =  -510.582979735     A.U. after   14 cycles
 SCF Done:  E(RB3LYP) =  -510.583660039     A.U. after   13 cycles
 SCF Done:  E(RB3LYP) =  -510.583771161     A.U. after   13 cycles
 SCF Done:  E(RB3LYP) =  -510.584014393     A.U. after   13 cycles
 SCF Done:  E(RB3LYP) =  -510.584229891     A.U. after   12 cycles
 SCF Done:  E(RB3LYP) =  -510.584649925     A.U. after   13 cycles
 SCF Done:  E(RB3LYP) =  -510.584684123     A.U. after   13 cycles
 SCF Done:  E(RB3LYP) =  -510.584455436     A.U. after   12 cycles
 SCF Done:  E(RB3LYP) =  -510.586579909     A.U. after   12 cycles
 SCF Done:  E(RB3LYP) =  -510.586590866     A.U. after   12 cycles
 SCF Done:  E(RB3LYP) =  -510.586587688     A.U. after   11 cycles
 SCF Done:  E(RB3LYP) =  -510.586592470     A.U. after   11 cycles
 SCF Done:  E(RB3LYP) =  -510.586592560     A.U. after    8 cycles
 SCF Done:  E(RB3LYP) =  -510.586592580     A.U. after    7 cycles
 Optimization completed.
    -- Stationary point found.
 Normal termination of Gaussian 16 at Tue Dec  8 10:43:05 2020.

 --------------------------------------------------------------------
 #N Geom=AllCheck Guess=TCheck SCRF=Check GenChk RB3LYP/6-31G(d) Freq
 --------------------------------------------------------------------

 Structure from the checkpoint file:  "JID_355.chk"
 ------------------------------
 CID_152679827_JID_355_neutraal
 ------------------------------
 Charge =  0 Multiplicity = 1

 SCF Done:  E(RB3LYP) =  -510.586592580     A.U. after    1 cycles

  Exact polarizability:  91.879   0.288  61.871  12.758  -1.014  70.261
 Approx polarizability: 139.746  -6.608  86.450  43.001  -8.021 132.610

                      1                      2                      3
                      A                      A                      A
 Frequencies --     45.8656                72.2552               106.7970
 Red. masses --      3.5207                 8.3861                 4.6010
 Frc consts  --      0.0044                 0.0258                 0.0309
 IR Inten    --      5.1327                 0.0873                 0.4913

                      4                      5                      6
                      A                      A                      A
 Frequencies --    180.2384               262.2069               281.7580
 Red. masses --      5.8858                 5.9444                 1.1294
 Frc consts  --      0.1127                 0.2408                 0.0528
 IR Inten    --      0.8853                19.6734                30.4516

                      7                      8                      9
                      A                      A                      A
 Frequencies --    311.9296               342.2689               350.5592
 Red. masses --      1.2987                 4.4828                 3.0960
 Frc consts  --      0.0745                 0.3094                 0.2242
 IR Inten    --     75.5562                 5.8033               105.6304

                     10                     11                     12
                      A                      A                      A
 Frequencies --    408.3855               467.6522               515.1313
 Red. masses --      2.5912                 2.3690                 3.5970
 Frc consts  --      0.2546                 0.3053                 0.5624
 IR Inten    --      1.5126                 4.7168                12.0734

                     13                     14                     15
                      A                      A                      A
 Frequencies --    570.0255               642.6325               714.8410
 Red. masses --     13.3137                 3.1065                 4.2845
 Frc consts  --      2.5488                 0.7559                 1.2899
 IR Inten    --     17.4472                 3.8238                 2.1491

                     16                     17                     18
                      A                      A                      A
 Frequencies --    744.1588               821.2301               848.1430
 Red. masses --      5.3785                 3.9403                 2.9892
 Frc consts  --      1.7549                 1.5657                 1.2669
 IR Inten    --     15.4881                 2.3584                25.0918

                     19                     20                     21
                      A                      A                      A
 Frequencies --    876.9685               922.1149               945.8609
 Red. masses --      2.4307                 2.0541                 2.3537
 Frc consts  --      1.1014                 1.0291                 1.2407
 IR Inten    --      3.3258                 9.5844                15.7583

                     22                     23                     24
                      A                      A                      A
 Frequencies --   1007.3983              1038.4528              1056.8085
 Red. masses --      3.4153                 1.8400                 2.1683
 Frc consts  --      2.0421                 1.1691                 1.4268
 IR Inten    --     15.6521                25.7482                30.8892

                     25                     26                     27
                      A                      A                      A
 Frequencies --   1089.8791              1105.7011              1174.8449
 Red. masses --      2.2845                 3.0163                 1.1985
 Frc consts  --      1.5988                 2.1727                 0.9746
 IR Inten    --     11.5314                97.0468                54.4338

                     28                     29                     30
                      A                      A                      A
 Frequencies --   1192.5296              1227.6652              1279.9656
 Red. masses --      1.4833                 1.4504                 1.4674
 Frc consts  --      1.2429                 1.2879                 1.4165
 IR Inten    --     39.3184                 5.9852                 8.2839

                     31                     32                     33
                      A                      A                      A
 Frequencies --   1297.3116              1324.5180              1327.4547
 Red. masses --      1.5264                 1.6279                 1.5015
 Frc consts  --      1.5136                 1.6827                 1.5589
 IR Inten    --      2.3400                12.0205                 7.4873

                     34                     35                     36
                      A                      A                      A
 Frequencies --   1332.7435              1347.6233              1373.3869
 Red. masses --      2.0375                 1.7369                 1.5720
 Frc consts  --      2.1322                 1.8585                 1.7470
 IR Inten    --     85.5117                21.7038                 8.6723

                     37                     38                     39
                      A                      A                      A
 Frequencies --   1413.9638              1445.0239              1455.1787
 Red. masses --      1.3934                 1.2009                 1.2024
 Frc consts  --      1.6413                 1.4775                 1.5001
 IR Inten    --      9.9965                54.8568                33.7979

                     40                     41                     42
                      A                      A                      A
 Frequencies --   1506.4144              1519.7440              2262.0339
 Red. masses --      1.0797                 1.0956                13.8789
 Frc consts  --      1.4436                 1.4909                41.8411
 IR Inten    --      6.0936                 7.6092               468.1188

                     43                     44                     45
                      A                      A                      A
 Frequencies --   3043.2196              3071.6229              3074.2334
 Red. masses --      1.0716                 1.0694                 1.0767
 Frc consts  --      5.8470                 5.9449                 5.9956
 IR Inten    --      8.3965                10.5581                33.9546

                     46                     47                     48
                      A                      A                      A
 Frequencies --   3106.4177              3119.1619              3124.2449
 Red. masses --      1.0958                 1.0939                 1.0915
 Frc consts  --      6.2301                 6.2706                 6.2772
 IR Inten    --     17.1232                15.4501                42.1979

                     49                     50                     51
                      A                      A                      A
 Frequencies --   3138.5318              3729.4022              3741.4910
 Red. masses --      1.0949                 1.0661                 1.0661
 Frc consts  --      6.3543                 8.7359                 8.7928
 IR Inten    --     13.5529                 6.4014                 9.6300

 - Thermochemistry -
 -------------------
 Temperature   298.150 Kelvin.  Pressure   1.00000 Atm.
 Atom     1 has atomic number  6 and mass  12.00000

 Molecular mass:   143.06948 amu.
 Principal axes and moments of inertia in atomic units:
                           1         2         3
     Eigenvalues --   694.224891958.813372265.76524
           X            0.99999   0.00250   0.00207
           Y           -0.00252   0.99997   0.00671
           Z           -0.00206  -0.00671   0.99998
 This molecule is an asymmetric top.
 Rotational symmetry number  1.
 Warning -- assumption of classical behavior for rotation
           may cause significant error
 Rotational temperatures (Kelvin)      0.12476     0.04422     0.03823
 Rotational constants (GHZ):           2.59965     0.92134     0.79653
 Zero-point vibrational energy     402890.3 (Joules/Mol)
                                   96.29308 (Kcal/Mol)
 Warning -- explicit consideration of  13 degrees of freedom as
           vibrations may cause significant error
 Vibrational temperatures:     65.99   103.96   153.66   259.32   377.26
          (Kelvin)            405.39   448.80   492.45   504.38   587.58
                              672.85   741.16   820.14   924.60  1028.50
                             1070.68  1181.57  1220.29  1261.76  1326.72
                             1360.88  1449.42  1494.10  1520.51  1568.09
                             1590.86  1690.34  1715.78  1766.34  1841.59
                             1866.54  1905.69  1909.91  1917.52  1938.93
                             1976.00  2034.38  2079.07  2093.68  2167.39
                             2186.57  3254.56  4378.51  4419.38  4423.14
                             4469.44  4487.78  4495.09  4515.65  5365.78
                             5383.17

 Zero-point correction=                           0.153453 (Hartree/Particle)
 Thermal correction to Energy=                    0.163153
 Thermal correction to Enthalpy=                  0.164097
 Thermal correction to Gibbs Free Energy=         0.117941
 Sum of electronic and zero-point Energies=           -510.433140
 Sum of electronic and thermal Energies=              -510.423440
 Sum of electronic and thermal Enthalpies=            -510.422496
 Sum of electronic and thermal Free Energies=         -510.468652

                     E (Thermal)             CV                S
                      KCal/Mol        Cal/Mol-Kelvin    Cal/Mol-Kelvin
 Total                  102.380             35.785             97.144
 Electronic               0.000              0.000              0.000
 Translational            0.889              2.981             40.786
 Rotational               0.889              2.981             29.512
 Vibrational            100.602             29.824             26.847
 Vibration     1          0.595              1.979              4.988
 Vibration     2          0.598              1.967              4.091
 Vibration     3          0.606              1.944              3.326
 Vibration     4          0.629              1.867              2.326
 Vibration     5          0.670              1.742              1.647
 Vibration     6          0.681              1.707              1.523
 Vibration     7          0.700              1.651              1.352
 Vibration     8          0.721              1.591              1.202
 Vibration     9          0.727              1.574              1.164
 Vibration    10          0.773              1.452              0.932
 Vibration    11          0.825              1.322              0.744
 Vibration    12          0.870              1.216              0.621
 Vibration    13          0.926              1.096              0.504

 Optimization completed.
    -- Stationary point found.
 Normal termination of Gaussian 16 at Tue Dec  8 10:47:34 2020.

 ----------------------------------------------------------------------
 # B3LYP/6-311++G(d,p) empiricaldispersion=gd3bj scf=xqc pop=npa geom=c
 heck
 ----------------------------------------------------------------------

 --------------------------------------
 CID_152679827_JID_355_Energie_neutraal
 --------------------------------------
 Structure from the checkpoint file:  "JID_355.chk"
 Charge =  0 Multiplicity = 1

 SCF Done:  E(RB3LYP) =  -510.750848029     A.U. after   15 cycles
 Normal termination of Gaussian 16 at Tue Dec  8 10:49:02 2020.

 ----------------------------------------------------------------------
 # B3LYP/6-311++G(d,p) empiricaldispersion=gd3bj scf=xqc pop=npa geom=c
 heck
 ----------------------------------------------------------------------

 ------------------------------------
 CID_152679827_JID_355_Energie_kation
 ------------------------------------
 Structure from the checkpoint file:  "JID_355.chk"
 Charge =  1 Multiplicity = 2

 SCF Done:  E(UB3LYP) =  -510.414283316     A.U. after   24 cycles
 Normal termination of Gaussian 16 at Tue Dec  8 10:53:52 2020.
 Gaussian 16:  ES64L-G16RevA.03 25-Dec-2016

 ----------------------------------------------------------------------
 # B3LYP/6-311++G(d,p) empiricaldispersion=gd3bj scf=xqc pop=npa geom=c
 heck
 ----------------------------------------------------------------------

 -----------------------------------
 CID_152679827_JID_355_Energie_anion
 -----------------------------------
 Structure from the checkpoint file:  "JID_355.chk"
 Charge = -1 Multiplicity = 2

                         Standard orientation:
 ---------------------------------------------------------------------
 Center     Atomic      Atomic             Coordinates (Angstroms)
 Number     Number       Type             X           Y           Z
 ---------------------------------------------------------------------
      1          6           0        0.499046   -0.999296   -0.515288
      2          6           0        1.846172   -0.251096   -0.623593
      3          6           0        1.585088    1.141482    0.035550
      4          6           0        0.138747    1.129861    0.569768
      5          6           0       -0.160201   -0.383661    0.730203
      6          7           0       -1.567088   -0.715807    0.970845
      7          7           0       -2.348257   -0.525173    0.031104
      8          7           0       -3.178764   -0.435476   -0.747139
      9          8           0       -0.790346    1.750167   -0.310670
     10          8           0        2.914993   -0.957659   -0.001444
     11          1           0        0.640759   -2.080616   -0.454227
     12          1           0       -0.126426   -0.797940   -1.395833
     13          1           0        2.164840   -0.154435   -1.663930
     14          1           0        1.724448    1.977382   -0.657625
     15          1           0        2.309111    1.284241    0.844970
     16          1           0        0.024535    1.662415    1.516406
     17          1           0        0.355424   -0.740245    1.628845
     18          1           0       -0.578140    1.493741   -1.221660
     19          1           0        2.693919   -1.073161    0.936456
 ---------------------------------------------------------------------

 SCF Done:  E(UB3LYP) =  -510.743698120     A.U. after   31 cycles

 The electronic state is 2-A.
 Alpha  occ. eigenvalues --  -19.01977 -19.00885 -14.34196 -14.24070 -14.22864
 Alpha  occ. eigenvalues --  -10.11703 -10.11415 -10.09933 -10.06359 -10.05989
 Alpha  occ. eigenvalues --   -1.00651  -0.92505  -0.91262  -0.84919  -0.71841
 Alpha  occ. eigenvalues --   -0.61904  -0.60291  -0.51222  -0.49176  -0.43483
 Alpha  occ. eigenvalues --   -0.40577  -0.38221  -0.37660  -0.36958  -0.34962
 Alpha  occ. eigenvalues --   -0.33850  -0.33216  -0.31343  -0.28273  -0.27020
 Alpha  occ. eigenvalues --   -0.25705  -0.25126  -0.24262  -0.21307  -0.18962
 Alpha  occ. eigenvalues --   -0.17279  -0.15927  -0.12328   0.04870
 Alpha virt. eigenvalues --    0.07277   0.08226   0.09314   0.10261   0.11072
 Alpha virt. eigenvalues --    0.11350   0.12201   0.12692   0.13897   0.14921
 Alpha virt. eigenvalues --    0.15367   0.17267   0.17982   0.18364   0.18501

  Beta  occ. eigenvalues --  -19.01959 -19.00825 -14.34033 -14.23808 -14.22903
  Beta  occ. eigenvalues --  -10.11690 -10.11404 -10.09844 -10.06343 -10.05951
  Beta  occ. eigenvalues --   -1.00308  -0.92456  -0.91145  -0.84738  -0.71758
  Beta  occ. eigenvalues --   -0.61767  -0.60202  -0.51082  -0.49081  -0.43374
  Beta  occ. eigenvalues --   -0.40232  -0.38001  -0.37500  -0.36794  -0.34745
  Beta  occ. eigenvalues --   -0.33536  -0.33038  -0.30976  -0.28208  -0.26945
  Beta  occ. eigenvalues --   -0.25626  -0.25030  -0.24165  -0.21236  -0.18872
  Beta  occ. eigenvalues --   -0.17020  -0.15750  -0.12245
  Beta virt. eigenvalues --    0.07675   0.08647   0.09854   0.10153   0.10574
  Beta virt. eigenvalues --    0.11648   0.11772   0.12767   0.13212   0.14180
  Beta virt. eigenvalues --    0.15075   0.15472   0.17404   0.18382   0.18683

 Mulliken charges and spin densities:
               1          2
     1  C    0.984700  -1.257389
     2  C   -0.392975   0.207225
     3  C    1.272891  -1.778643
     4  C    0.065241  -0.070582
     5  C   -0.660927   0.108937
     6  N   -0.296397   0.185661
     7  N    0.612014  -0.065395
     8  N   -0.252338  -0.022986
     9  O   -0.188204  -0.021832
    10  O   -0.181241  -0.044417
    11  H    0.033489   0.167386
    12  H    0.109900   0.012404
    13  H   -0.332245   0.535888
    14  H   -0.289403   0.448491
    15  H   -0.181115   0.352386
    16  H   -0.298487   0.546470
    17  H   -1.191057   1.409908
    18  H    0.205293   0.012160
    19  H   -0.019139   0.274329
 Sum of Mulliken charges =  -1.00000   1.00000

 Dipole moment (field-independent basis, Debye):
    X=             -1.6886    Y=              0.3414    Z=             -3.4834  Tot=              3.8861
 Quadrupole moment (field-independent basis, Debye-Ang):
   XX=           -111.0060   YY=            -86.9372   ZZ=            -88.8274
   XY=              1.3428   XZ=             -4.3007   YZ=              3.0475

 Summary of Natural Population Analysis:

                                       Natural Population
                Natural  -----------------------------------------------
    Atom  No    Charge         Core      Valence    Rydberg      Total
 -----------------------------------------------------------------------
      C    1   -0.21408      0.99959     2.20411    0.01038     3.21408
      C    2    0.06319      0.99958     1.92255    0.01468     2.93681
      C    3   -0.22168      0.99961     2.21342    0.00865     3.22168
      C    4    0.05953      0.99954     1.92470    0.01623     2.94047
      C    5   -0.02932      0.99952     2.01318    0.01663     3.02932
      N    6   -0.19189      0.99968     2.67715    0.01506     3.69189
      N    7    0.13042      0.99969     2.35339    0.01650     3.36958
      N    8   -0.03368      0.99982     2.51996    0.01391     3.53368
      O    9   -0.36773      0.99990     3.36115    0.00668     4.36773
      O   10   -0.37162      0.99990     3.36495    0.00678     4.37162
      H   11    0.11126      0.00000     0.38753    0.00122     0.38874
      H   12    0.09654      0.00000     0.40193    0.00153     0.40346
      H   13    0.08800      0.00000     0.41072    0.00128     0.41200
      H   14    0.10718      0.00000     0.39105    0.00177     0.39282
      H   15    0.11449      0.00000     0.38309    0.00241     0.38551
      H   16    0.09450      0.00000     0.40399    0.00151     0.40550
      H   17    0.10750      0.00000     0.38625    0.00626     0.39250
      H   18    0.22534      0.00000     0.27158    0.00308     0.27466
      H   19    0.23206      0.00000     0.26051    0.00744     0.26794
 =======================================================================
   * Total *   -0.00000      9.99683    27.85118    0.15199    38.00000

 Normal termination of Gaussian 16 at Tue Dec  8 11:01:26 2020.
