 Gaussian 16, Revision A.03,

 -----------------------------------------------------------
 # opt freq B3LYP/6-31G(d) empiricaldispersion=gd3bj scf=xqc
 -----------------------------------------------------------

 ------------------------------
 CID_62148591_JID_9364_neutraal
 ------------------------------
 Symbolic Z-matrix:
 Charge =  0 Multiplicity = 1

 SCF Done:  E(RB3LYP) =  -1220.93732486     A.U. after   15 cycles
 SCF Done:  E(RB3LYP) =  -1220.94717603     A.U. after   12 cycles
 SCF Done:  E(RB3LYP) =  -1220.94969603     A.U. after   12 cycles
 SCF Done:  E(RB3LYP) =  -1220.95054821     A.U. after   12 cycles
 SCF Done:  E(RB3LYP) =  -1220.95126331     A.U. after   12 cycles
 SCF Done:  E(RB3LYP) =  -1220.95144965     A.U. after   11 cycles
 SCF Done:  E(RB3LYP) =  -1220.95152187     A.U. after   11 cycles
 SCF Done:  E(RB3LYP) =  -1220.95155874     A.U. after   11 cycles
 SCF Done:  E(RB3LYP) =  -1220.95157161     A.U. after   10 cycles
 SCF Done:  E(RB3LYP) =  -1220.95157927     A.U. after   10 cycles
 SCF Done:  E(RB3LYP) =  -1220.95159402     A.U. after    8 cycles
 SCF Done:  E(RB3LYP) =  -1220.95159476     A.U. after    8 cycles
 SCF Done:  E(RB3LYP) =  -1220.95159490     A.U. after    7 cycles
 SCF Done:  E(RB3LYP) =  -1220.95159501     A.U. after    7 cycles
 SCF Done:  E(RB3LYP) =  -1220.95159507     A.U. after    7 cycles
 Optimization completed.
    -- Stationary point found.
 Normal termination of Gaussian 16 at Mon Dec 14 13:36:54 2020.

 --------------------------------------------------------------------
 #N Geom=AllCheck Guess=TCheck SCRF=Check GenChk RB3LYP/6-31G(d) Freq
 --------------------------------------------------------------------

 Structure from the checkpoint file:  "JID_9364.chk"
 ------------------------------
 CID_62148591_JID_9364_neutraal
 ------------------------------
 Charge =  0 Multiplicity = 1

 SCF Done:  E(RB3LYP) =  -1220.95159507     A.U. after    1 cycles

  Exact polarizability: 241.818 -13.222 150.481  11.612  13.513 144.348
 Approx polarizability: 311.777 -26.881 245.196  24.029  32.407 237.749

                      1                      2                      3
                      A                      A                      A
 Frequencies --     28.2937                31.1889                37.3021
 Red. masses --      3.8950                 3.7554                 3.7762
 Frc consts  --      0.0018                 0.0022                 0.0031
 IR Inten    --      1.5401                 0.4619                 1.6413

                      4                      5                      6
                      A                      A                      A
 Frequencies --     73.8604               102.6407               103.5059
 Red. masses --      4.2113                 4.0194                 1.3078
 Frc consts  --      0.0135                 0.0249                 0.0083
 IR Inten    --      1.6462                 4.2678                 4.6565

                      7                      8                      9
                      A                      A                      A
 Frequencies --    132.9950               137.9452               166.9085
 Red. masses --      2.4946                 3.0397                 3.9898
 Frc consts  --      0.0260                 0.0341                 0.0655
 IR Inten    --      0.0196                 2.7472                 3.8744

                     10                     11                     12
                      A                      A                      A
 Frequencies --    177.6509               192.3785               214.7562
 Red. masses --      2.3478                 1.1010                 3.6538
 Frc consts  --      0.0437                 0.0240                 0.0993
 IR Inten    --      2.2854                 0.4794                 3.5141

                     13                     14                     15
                      A                      A                      A
 Frequencies --    230.1934               249.1408               265.5020
 Red. masses --      3.9546                 4.2031                 3.4320
 Frc consts  --      0.1235                 0.1537                 0.1425
 IR Inten    --      2.0044                 7.1779                 1.9230

                     16                     17                     18
                      A                      A                      A
 Frequencies --    281.6416               305.3410               332.7932
 Red. masses --      1.4716                 3.3771                 4.5977
 Frc consts  --      0.0688                 0.1855                 0.3000
 IR Inten    --      1.5737                 1.7449                 8.8680

                     19                     20                     21
                      A                      A                      A
 Frequencies --    335.2502               349.3334               362.5570
 Red. masses --      2.6745                 2.7469                 1.3405
 Frc consts  --      0.1771                 0.1975                 0.1038
 IR Inten    --      1.5921                13.0803                87.5576

                     22                     23                     24
                      A                      A                      A
 Frequencies --    387.9122               420.6948               422.6700
 Red. masses --      2.8709                 2.9842                 3.0038
 Frc consts  --      0.2545                 0.3112                 0.3162
 IR Inten    --     21.0502                 5.7446                 1.4168

                     25                     26                     27
                      A                      A                      A
 Frequencies --    446.0579               478.9431               500.7557
 Red. masses --      3.4892                 4.5396                 4.5004
 Frc consts  --      0.4090                 0.6135                 0.6649
 IR Inten    --     10.9567                12.3997                18.9507

                     28                     29                     30
                      A                      A                      A
 Frequencies --    527.2175               557.1111               568.0554
 Red. masses --      3.4091                 4.2414                 3.2431
 Frc consts  --      0.5583                 0.7756                 0.6166
 IR Inten    --      3.0168                15.2367                 3.1082

                     31                     32                     33
                      A                      A                      A
 Frequencies --    593.9409               620.5759               650.0003
 Red. masses --      3.5332                 4.5446                 7.7465
 Frc consts  --      0.7344                 1.0312                 1.9283
 IR Inten    --     35.9465               159.0340                 4.6027

                     34                     35                     36
                      A                      A                      A
 Frequencies --    701.0629               712.3372               762.6645
 Red. masses --      2.8977                 3.6184                 4.0308
 Frc consts  --      0.8391                 1.0818                 1.3814
 IR Inten    --     31.6324                21.7456                 5.9954

                     37                     38                     39
                      A                      A                      A
 Frequencies --    810.0096               829.0133               837.2157
 Red. masses --      3.1412                 1.6980                 2.2961
 Frc consts  --      1.2143                 0.6876                 0.9482
 IR Inten    --     55.8712                30.7130                 0.8369

                     40                     41                     42
                      A                      A                      A
 Frequencies --    857.5622               875.4969               883.3562
 Red. masses --      4.2794                 2.7059                 1.5786
 Frc consts  --      1.8542                 1.2220                 0.7258
 IR Inten    --      1.6768                82.4151                11.2388

                     43                     44                     45
                      A                      A                      A
 Frequencies --    953.5121               956.8002               973.0461
 Red. masses --      1.8765                 1.4528                 1.7382
 Frc consts  --      1.0052                 0.7836                 0.9697
 IR Inten    --     73.0128                18.3703                 0.2150

                     46                     47                     48
                      A                      A                      A
 Frequencies --    987.6056               992.4557               996.9861
 Red. masses --      1.8569                 1.2924                 1.7471
 Frc consts  --      1.0671                 0.7500                 1.0232
 IR Inten    --     24.7095                 1.0178                 7.9485

                     49                     50                     51
                      A                      A                      A
 Frequencies --   1023.7395              1031.1196              1062.9190
 Red. masses --      4.1688                 1.7922                 1.6378
 Frc consts  --      2.5742                 1.1227                 1.0902
 IR Inten    --     25.7845                 8.2968                12.4489

                     52                     53                     54
                      A                      A                      A
 Frequencies --   1087.6771              1094.2720              1100.5437
 Red. masses --      3.3687                 2.6174                 1.5315
 Frc consts  --      2.3481                 1.8466                 1.0929
 IR Inten    --     72.4300                 6.1658                27.4586

                     55                     56                     57
                      A                      A                      A
 Frequencies --   1105.0815              1144.7367              1160.7299
 Red. masses --      2.2194                 2.3183                 1.5152
 Frc consts  --      1.5969                 1.7899                 1.2028
 IR Inten    --     37.7929               161.7492                 0.3616

                     58                     59                     60
                      A                      A                      A
 Frequencies --   1167.3831              1167.5273              1179.4045
 Red. masses --      2.0162                 1.7033                 2.8091
 Frc consts  --      1.6188                 1.3680                 2.3022
 IR Inten    --     54.4566                43.1170                24.2422

                     61                     62                     63
                      A                      A                      A
 Frequencies --   1186.2198              1197.0876              1228.4428
 Red. masses --      1.4280                 2.4119                 1.4579
 Frc consts  --      1.1838                 2.0364                 1.2962
 IR Inten    --      9.5588                18.7882                 4.2199

                     64                     65                     66
                      A                      A                      A
 Frequencies --   1257.6735              1292.1855              1308.1434
 Red. masses --      1.6586                 6.7845                 2.3977
 Frc consts  --      1.5457                 6.6745                 2.4174
 IR Inten    --     39.2265               132.4431                37.9072

                     67                     68                     69
                      A                      A                      A
 Frequencies --   1324.4590              1342.1032              1350.6305
 Red. masses --      1.2178                 2.2854                 1.3550
 Frc consts  --      1.2587                 2.4255                 1.4563
 IR Inten    --      2.9160                30.2072                 2.8928

                     70                     71                     72
                      A                      A                      A
 Frequencies --   1368.9077              1382.0634              1386.2390
 Red. masses --      1.5133                 2.1701                 1.4239
 Frc consts  --      1.6707                 2.4422                 1.6122
 IR Inten    --      6.2834                28.0266                 0.8602

                     73                     74                     75
                      A                      A                      A
 Frequencies --   1404.9565              1411.6943              1416.9262
 Red. masses --      1.3969                 1.4116                 1.2115
 Frc consts  --      1.6245                 1.6575                 1.4331
 IR Inten    --      0.1743                 1.0529                 2.4544

                     76                     77                     78
                      A                      A                      A
 Frequencies --   1421.2226              1436.0565              1441.0733
 Red. masses --      2.8510                 1.2687                 1.2503
 Frc consts  --      3.3929                 1.5415                 1.5298
 IR Inten    --     45.6236                 4.4892                11.1033

                     79                     80                     81
                      A                      A                      A
 Frequencies --   1464.4391              1477.1539              1505.7484
 Red. masses --      1.2565                 1.2396                 1.0740
 Frc consts  --      1.5876                 1.5936                 1.4347
 IR Inten    --     13.9535                44.1015                30.1707

                     82                     83                     84
                      A                      A                      A
 Frequencies --   1507.9198              1514.3080              1518.0064
 Red. masses --      1.0767                 1.0728                 1.0607
 Frc consts  --      1.4425                 1.4494                 1.4400
 IR Inten    --      0.7043                 2.4732                 4.8120

                     85                     86                     87
                      A                      A                      A
 Frequencies --   1520.9439              1522.1160              1530.1980
 Red. masses --      1.6803                 1.0554                 1.0821
 Frc consts  --      2.2902                 1.4406                 1.4928
 IR Inten    --      7.0388                 4.8103                 4.3385

                     88                     89                     90
                      A                      A                      A
 Frequencies --   1537.8888              1541.1199              1545.8170
 Red. masses --      1.0693                 1.2742                 1.0597
 Frc consts  --      1.4901                 1.7830                 1.4919
 IR Inten    --      9.3503                 2.9162                 1.5133

                     91                     92                     93
                      A                      A                      A
 Frequencies --   1568.6369              1624.5216              1659.0652
 Red. masses --      2.4720                 3.9667                 5.6211
 Frc consts  --      3.5838                 6.1678                 9.1160
 IR Inten    --    197.9598                34.5953               517.9870

                     94                     95                     96
                      A                      A                      A
 Frequencies --   3043.5589              3044.2188              3045.0470
 Red. masses --      1.0642                 1.0452                 1.0602
 Frc consts  --      5.8082                 5.7071                 5.7920
 IR Inten    --     19.8950                68.4280                21.2470

                     97                     98                     99
                      A                      A                      A
 Frequencies --   3051.9133              3061.4877              3064.8072
 Red. masses --      1.0611                 1.0380                 1.0417
 Frc consts  --      5.8233                 5.7318                 5.7649
 IR Inten    --     20.2034                18.2447                25.1505

                    100                    101                    102
                      A                      A                      A
 Frequencies --   3081.1594              3086.4792              3088.6284
 Red. masses --      1.0965                 1.0888                 1.1007
 Frc consts  --      6.1333                 6.1110                 6.1864
 IR Inten    --     55.0858                21.5908                20.7050

                    103                    104                    105
                      A                      A                      A
 Frequencies --   3102.3001              3120.2285              3121.0594
 Red. masses --      1.1026                 1.0901                 1.0929
 Frc consts  --      6.2525                 6.2530                 6.2722
 IR Inten    --     32.3547                28.2503                17.0064

                    106                    107                    108
                      A                      A                      A
 Frequencies --   3129.5331              3132.7487              3145.2360
 Red. masses --      1.0977                 1.0972                 1.1009
 Frc consts  --      6.3339                 6.3442                 6.4165
 IR Inten    --     27.9196                27.8827                12.8172

                    109                    110                    111
                      A                      A                      A
 Frequencies --   3158.2059              3158.7958              3193.7032
 Red. masses --      1.0989                 1.1054                 1.0903
 Frc consts  --      6.4580                 6.4983                 6.5519
 IR Inten    --     38.6995                14.4911                22.3069

                    112                    113                    114
                      A                      A                      A
 Frequencies --   3195.9554              3231.6545              3643.4340
 Red. masses --      1.0906                 1.0934                 1.0771
 Frc consts  --      6.5635                 6.7277                 8.4244
 IR Inten    --      0.2215                 2.5769                49.0027

 - Thermochemistry -
 -------------------
 Temperature   298.150 Kelvin.  Pressure   1.00000 Atm.
 Atom     1 has atomic number  6 and mass  12.00000

 Molecular mass:   283.13545 amu.
 Principal axes and moments of inertia in atomic units:
                           1         2         3
     Eigenvalues --  2584.980568938.221859422.43218
           X            0.99998   0.00541  -0.00132
           Y           -0.00532   0.99816   0.06046
           Z            0.00165  -0.06045   0.99817
 This molecule is an asymmetric top.
 Rotational symmetry number  1.
 Warning -- assumption of classical behavior for rotation
           may cause significant error
 Rotational temperatures (Kelvin)      0.03351     0.00969     0.00919
 Rotational constants (GHZ):           0.69816     0.20191     0.19154
 Zero-point vibrational energy     896203.3 (Joules/Mol)
                                  214.19773 (Kcal/Mol)
 Warning -- explicit consideration of  32 degrees of freedom as
           vibrations may cause significant error
 Vibrational temperatures:     40.71    44.87    53.67   106.27   147.68
          (Kelvin)            148.92   191.35   198.47   240.14   255.60
                              276.79   308.99   331.20   358.46   382.00
                              405.22   439.32   478.82   482.35   502.61
                              521.64   558.12   605.29   608.13   641.78
                              689.09   720.48   758.55   801.56   817.31
                              854.55   892.87   935.21  1008.67  1024.89
                             1097.30  1165.42  1192.77  1204.57  1233.84
                             1259.64  1270.95  1371.89  1376.62  1400.00
                             1420.94  1427.92  1434.44  1472.93  1483.55
                             1529.30  1564.92  1574.41  1583.44  1589.97
                             1647.02  1670.03  1679.60  1679.81  1696.90
                             1706.71  1722.34  1767.46  1809.51  1859.17
                             1882.13  1905.60  1930.99  1943.26  1969.55
                             1988.48  1994.49  2021.42  2031.11  2038.64
                             2044.82  2066.17  2073.38  2107.00  2125.30
                             2166.44  2169.56  2178.75  2184.07  2188.30
                             2189.99  2201.61  2212.68  2217.33  2224.09
                             2256.92  2337.32  2387.02  4379.00  4379.95
                             4381.14  4391.02  4404.80  4409.57  4433.10
                             4440.76  4443.85  4463.52  4489.31  4490.51
                             4502.70  4507.33  4525.29  4543.95  4544.80
                             4595.03  4598.27  4649.63  5242.09

 Zero-point correction=                           0.341346 (Hartree/Particle)
 Thermal correction to Energy=                    0.360621
 Thermal correction to Enthalpy=                  0.361565
 Thermal correction to Gibbs Free Energy=         0.293232
 Sum of electronic and zero-point Energies=          -1220.610249
 Sum of electronic and thermal Energies=             -1220.590974
 Sum of electronic and thermal Enthalpies=           -1220.590030
 Sum of electronic and thermal Free Energies=        -1220.658363

                     E (Thermal)             CV                S
                      KCal/Mol        Cal/Mol-Kelvin    Cal/Mol-Kelvin
 Total                  226.293             73.576            143.819
 Electronic               0.000              0.000              0.000
 Translational            0.889              2.981             42.820
 Rotational               0.889              2.981             33.742
 Vibrational            224.515             67.615             67.257
 Vibration     1          0.593              1.984              5.946
 Vibration     2          0.594              1.983              5.752
 Vibration     3          0.594              1.982              5.397
 Vibration     4          0.599              1.966              4.048
 Vibration     5          0.605              1.947              3.404
 Vibration     6          0.605              1.946              3.387
 Vibration     7          0.613              1.920              2.902
 Vibration     8          0.614              1.915              2.832
 Vibration     9          0.624              1.883              2.470
 Vibration    10          0.628              1.870              2.353
 Vibration    11          0.634              1.850              2.205
 Vibration    12          0.645              1.819              2.003
 Vibration    13          0.652              1.795              1.877
 Vibration    14          0.662              1.764              1.737
 Vibration    15          0.671              1.736              1.625
 Vibration    16          0.681              1.708              1.524
 Vibration    17          0.696              1.664              1.387
 Vibration    18          0.715              1.610              1.246
 Vibration    19          0.716              1.605              1.235
 Vibration    20          0.727              1.577              1.169
 Vibration    21          0.736              1.549              1.111
 Vibration    22          0.756              1.496              1.008
 Vibration    23          0.783              1.425              0.890
 Vibration    24          0.785              1.421              0.883
 Vibration    25          0.805              1.370              0.808
 Vibration    26          0.835              1.297              0.713
 Vibration    27          0.856              1.248              0.656
 Vibration    28          0.882              1.190              0.593
 Vibration    29          0.913              1.124              0.530
 Vibration    30          0.924              1.100              0.508
 Vibration    31          0.952              1.045              0.460
 Vibration    32          0.981              0.988              0.416

                           ! Non-Optimized Parameters !
 Normal termination of Gaussian 16 at Mon Dec 14 14:00:39 2020.

 ----------------------------------------------------------------------
 # B3LYP/6-311++G(d,p) empiricaldispersion=gd3bj scf=xqc pop=npa geom=c
 heck
 ----------------------------------------------------------------------

 --------------------------------------
 CID_62148591_JID_9364_Energie_neutraal
 --------------------------------------
 Structure from the checkpoint file:  "JID_9364.chk"
 Charge =  0 Multiplicity = 1

 SCF Done:  E(RB3LYP) =  -1221.20486882     A.U. after   16 cycles
 Normal termination of Gaussian 16 at Mon Dec 14 14:12:47 2020.

 ----------------------------------------------------------------------
 # B3LYP/6-311++G(d,p) empiricaldispersion=gd3bj scf=xqc pop=npa geom=c
 heck
 ----------------------------------------------------------------------

 ------------------------------------
 CID_62148591_JID_9364_Energie_kation
 ------------------------------------
 Structure from the checkpoint file:  "JID_9364.chk"
 Charge =  1 Multiplicity = 2

 SCF Done:  E(UB3LYP) =  -1220.91907029     A.U. after   24 cycles
 Normal termination of Gaussian 16 at Mon Dec 14 14:38:34 2020.
 Gaussian 16:  ES64L-G16RevA.03 25-Dec-2016

 ----------------------------------------------------------------------
 # B3LYP/6-311++G(d,p) empiricaldispersion=gd3bj scf=xqc pop=npa geom=c
 heck
 ----------------------------------------------------------------------

 -----------------------------------
 CID_62148591_JID_9364_Energie_anion
 -----------------------------------
 Structure from the checkpoint file:  "JID_9364.chk"
 Charge = -1 Multiplicity = 2

                         Standard orientation:
 ---------------------------------------------------------------------
 Center     Atomic      Atomic             Coordinates (Angstroms)
 Number     Number       Type             X           Y           Z
 ---------------------------------------------------------------------
      1          6           0        1.166177    2.197182   -1.159133
      2          6           0        1.464515    0.694837   -1.126170
      3          6           0        2.762236    0.303372   -1.852001
      4          6           0        4.010297    0.622700   -1.022633
      5          6           0        3.924750   -0.075499    0.338639
      6          6           0        2.655497    0.315829    1.114008
      7          7           0        1.437345    0.174575    0.269554
      8         16           0        0.617908   -1.295250    0.418891
      9          8           0        0.968460   -2.243664   -0.653910
     10          8           0        0.759336   -1.716662    1.818457
     11          6           0       -1.050339   -0.768349    0.108160
     12          6           0       -1.608225    0.296515    0.812779
     13          7           0       -2.868499    0.700655    0.655478
     14          6           0       -3.637508    0.037562   -0.231550
     15          6           0       -3.155989   -1.059653   -0.988874
     16          6           0       -1.849135   -1.463385   -0.810311
     17          7           0       -4.915411    0.487917   -0.393459
     18          6           0       -5.496679    1.503384    0.467063
     19          6           0        2.732842    1.712600    1.740853
     20          1           0        0.986610    2.509283   -2.194106
     21          1           0        1.990264    2.800110   -0.771050
     22          1           0        0.271783    2.419010   -0.569787
     23          1           0        0.634838    0.204390   -1.643086
     24          1           0        2.728214   -0.774554   -2.046302
     25          1           0        2.796765    0.812699   -2.822955
     26          1           0        4.114526    1.707462   -0.888761
     27          1           0        4.907572    0.291283   -1.557885
     28          1           0        4.804830    0.154013    0.951818
     29          1           0        3.914800   -1.161531    0.181067
     30          1           0        2.515609   -0.389975    1.933770
     31          1           0       -1.005614    0.851682    1.527193
     32          1           0       -3.806013   -1.564717   -1.697492
     33          1           0       -1.426852   -2.293013   -1.366881
     34          1           0       -5.544718   -0.105860   -0.911735
     35          1           0       -6.489098    1.752775    0.084203
     36          1           0       -5.584481    1.166168    1.508193
     37          1           0       -4.873161    2.400169    0.458155
     38          1           0        1.772870    1.978990    2.192287
     39          1           0        3.496410    1.712980    2.526821
     40          1           0        3.001269    2.490648    1.021912
 ---------------------------------------------------------------------

 SCF Done:  E(UB3LYP) =  -1221.19926556     A.U. after   33 cycles
 SCF Done:  E(UB3LYP) =  -1221.19926556     a.u. after    1 cycles

 The electronic state is 2-A.
 Alpha  occ. eigenvalues --  -88.96394 -19.01842 -19.01680 -14.24777 -14.23432
 Alpha  occ. eigenvalues --  -14.20288 -10.15163 -10.12807 -10.12643 -10.11226
 Alpha  occ. eigenvalues --  -10.10121 -10.09769 -10.09372 -10.08751 -10.08631
 Alpha  occ. eigenvalues --  -10.08310 -10.08207 -10.07927 -10.07611  -8.02551
 Alpha  occ. eigenvalues --   -5.98831  -5.98798  -5.98642  -1.01891  -0.90768
 Alpha  occ. eigenvalues --   -0.87633  -0.85073  -0.81074  -0.72603  -0.71258
 Alpha  occ. eigenvalues --   -0.70909  -0.67345  -0.65133  -0.60680  -0.59981
 Alpha  occ. eigenvalues --   -0.57393  -0.54825  -0.53364  -0.52737  -0.50724
 Alpha  occ. eigenvalues --   -0.45979  -0.45096  -0.43850  -0.41415  -0.40581
 Alpha  occ. eigenvalues --   -0.39013  -0.37978  -0.37042  -0.36132  -0.35877
 Alpha  occ. eigenvalues --   -0.35211  -0.34994  -0.34865  -0.33124  -0.32819
 Alpha  occ. eigenvalues --   -0.32300  -0.31810  -0.31013  -0.30285  -0.30174
 Alpha  occ. eigenvalues --   -0.29522  -0.29392  -0.27294  -0.26633  -0.26154
 Alpha  occ. eigenvalues --   -0.24979  -0.24306  -0.24037  -0.23036  -0.21845
 Alpha  occ. eigenvalues --   -0.21069  -0.20747  -0.19399  -0.16688  -0.15960
 Alpha  occ. eigenvalues --   -0.11932   0.03783
 Alpha virt. eigenvalues --    0.05001   0.05924   0.06570   0.06920   0.07241
 Alpha virt. eigenvalues --    0.07538   0.08036   0.09107   0.09289   0.09660
 Alpha virt. eigenvalues --    0.10221   0.10585   0.11090   0.11657   0.11974

  Beta  occ. eigenvalues --  -88.96390 -19.01840 -19.01675 -14.24772 -14.23394
  Beta  occ. eigenvalues --  -14.20201 -10.15178 -10.12803 -10.12643 -10.11098
  Beta  occ. eigenvalues --  -10.10093 -10.09800 -10.09302 -10.08738 -10.08625
  Beta  occ. eigenvalues --  -10.08305 -10.08194 -10.07916 -10.07522  -8.02547
  Beta  occ. eigenvalues --   -5.98825  -5.98795  -5.98638  -1.01882  -0.90761
  Beta  occ. eigenvalues --   -0.87521  -0.85060  -0.80947  -0.72556  -0.71173
  Beta  occ. eigenvalues --   -0.70874  -0.67231  -0.65100  -0.60623  -0.59962
  Beta  occ. eigenvalues --   -0.57269  -0.54719  -0.53316  -0.52657  -0.50643
  Beta  occ. eigenvalues --   -0.45935  -0.44985  -0.43830  -0.41385  -0.40512
  Beta  occ. eigenvalues --   -0.39001  -0.37960  -0.37016  -0.36053  -0.35862
  Beta  occ. eigenvalues --   -0.35167  -0.34917  -0.34773  -0.33106  -0.32784
  Beta  occ. eigenvalues --   -0.32261  -0.31768  -0.30989  -0.30122  -0.30014
  Beta  occ. eigenvalues --   -0.29470  -0.29346  -0.27277  -0.26617  -0.26145
  Beta  occ. eigenvalues --   -0.24965  -0.24282  -0.24023  -0.22973  -0.21832
  Beta  occ. eigenvalues --   -0.21021  -0.20678  -0.18821  -0.16588  -0.15933
  Beta  occ. eigenvalues --   -0.11722
  Beta virt. eigenvalues --    0.05333   0.06605   0.06840   0.06962   0.07267
  Beta virt. eigenvalues --    0.07363   0.07954   0.08408   0.09230   0.09394
  Beta virt. eigenvalues --    0.09947   0.10397   0.10566   0.11146   0.11789

 Mulliken charges and spin densities:
               1          2
     1  C   -0.215361  -0.361974
     2  C   -0.331727   0.139527
     3  C   -0.402745  -0.018988
     4  C    0.029322  -0.334347
     5  C   -0.381859  -0.046867
     6  C   -0.628608   0.367453
     7  N    0.205579  -0.040034
     8  S    1.151390  -0.604790
     9  O   -0.127639   0.005656
    10  O   -0.121153   0.003733
    11  C    0.098582  -0.652516
    12  C   -1.214860   0.661313
    13  N   -0.030116   0.018031
    14  C    0.481613  -0.717724
    15  C   -0.078677  -0.022163
    16  C    0.176362   0.082792
    17  N   -0.200041   0.077724
    18  C    0.414701  -0.755578
    19  C    0.065176  -0.546962
    20  H   -0.010369   0.161481
    21  H    0.077557   0.061794
    22  H    0.214096  -0.011985
    23  H    0.316279  -0.042861
    24  H    0.136232   0.063870
    25  H    0.012980   0.131796
    26  H    0.016817   0.108475
    27  H   -0.119744   0.297307
    28  H   -0.001000   0.155517
    29  H    0.179502   0.003289
    30  H    0.232974   0.017313
    31  H    0.073234   0.160290
    32  H   -0.584826   0.765447
    33  H    0.137156   0.086939
    34  H   -0.387880   0.686815
    35  H   -0.473545   0.617289
    36  H    0.044386   0.119141
    37  H    0.033450   0.134495
    38  H    0.161216   0.005199
    39  H   -0.015306   0.155415
    40  H    0.066849   0.068687
 Sum of Mulliken charges =  -1.00000   1.00000

 Dipole moment (field-independent basis, Debye):
    X=              8.6822    Y=              2.2306    Z=              0.8615  Tot=              9.0055
 Quadrupole moment (field-independent basis, Debye-Ang):
   XX=           -242.2662   YY=           -159.9454   ZZ=           -155.1340
   XY=             -0.2605   XZ=             -8.8050   YZ=              1.6614

 Summary of Natural Population Analysis:

                                       Natural Population
                Natural  -----------------------------------------------
    Atom  No    Charge         Core      Valence    Rydberg      Total
 -----------------------------------------------------------------------
      C    1   -0.28834      0.99963     2.28277    0.00593     3.28834
      C    2   -0.01322      0.99958     2.00071    0.01293     3.01322
      C    3   -0.19853      0.99960     2.18984    0.00909     3.19853
      C    4   -0.19413      0.99963     2.18625    0.00825     3.19413
      C    5   -0.19719      0.99960     2.18859    0.00899     3.19719
      C    6   -0.01544      0.99957     2.00277    0.01310     3.01544
      N    7   -0.37840      0.99970     2.86386    0.01483     3.87840
      S    8    1.11392      4.99910     1.78764    0.09934     6.88608
      O    9   -0.47205      0.99991     3.46711    0.00504     4.47205
      O   10   -0.46543      0.99990     3.46016    0.00536     4.46543
      C   11   -0.20188      0.99936     2.18765    0.01487     3.20188
      C   12    0.07206      0.99952     1.91498    0.01344     2.92794
      N   13   -0.25293      0.99967     2.74386    0.00940     3.75293
      C   14    0.20925      0.99954     1.77536    0.01585     2.79075
      C   15   -0.12571      0.99952     2.11661    0.00957     3.12571
      C   16   -0.06265      0.99951     2.05250    0.01064     3.06265
      N   17   -0.29920      0.99967     2.78803    0.01150     3.79920
      C   18   -0.17849      0.99965     2.16954    0.00930     3.17849
      C   19   -0.28805      0.99964     2.28267    0.00574     3.28805
      H   20    0.10061      0.00000     0.39868    0.00071     0.39939
      H   21    0.09528      0.00000     0.40382    0.00090     0.40472
      H   22    0.10780      0.00000     0.39125    0.00095     0.39220
      H   23    0.10962      0.00000     0.38870    0.00168     0.39038
      H   24    0.10828      0.00000     0.39055    0.00117     0.39172
      H   25    0.09993      0.00000     0.39932    0.00075     0.40007
      H   26    0.09348      0.00000     0.40537    0.00115     0.40652
      H   27    0.10049      0.00000     0.39857    0.00093     0.39951
      H   28    0.09971      0.00000     0.39950    0.00079     0.40029
      H   29    0.10206      0.00000     0.39680    0.00114     0.39794
      H   30    0.11733      0.00000     0.38135    0.00132     0.38267
      H   31    0.09440      0.00000     0.40414    0.00146     0.40560
      H   32    0.10609      0.00000     0.39255    0.00137     0.39391
      H   33    0.11413      0.00000     0.38476    0.00112     0.38587
      H   34    0.19674      0.00000     0.28896    0.01429     0.30326
      H   35    0.09798      0.00000     0.40057    0.00144     0.40202
      H   36    0.09118      0.00000     0.40748    0.00134     0.40882
      H   37    0.10071      0.00000     0.39782    0.00147     0.39929
      H   38    0.10534      0.00000     0.39381    0.00085     0.39466
      H   39    0.09951      0.00000     0.39978    0.00071     0.40049
      H   40    0.09574      0.00000     0.40333    0.00093     0.40426
 =======================================================================
   * Total *   -0.00000     22.99231    52.68804    0.31965    76.00000

 Normal termination of Gaussian 16 at Mon Dec 14 15:13:24 2020.
