 Gaussian 16, Revision A.03,

 -----------------------------------------------------------
 # opt freq B3LYP/6-31G(d) empiricaldispersion=gd3bj scf=xqc
 -----------------------------------------------------------

 ----------------------------
 CID_701394_JID_6280_neutraal
 ----------------------------
 Symbolic Z-matrix:
 Charge =  0 Multiplicity = 1

 SCF Done:  E(RB3LYP) =  -1084.57659431     A.U. after   15 cycles
 SCF Done:  E(RB3LYP) =  -1084.57362131     A.U. after   14 cycles
 SCF Done:  E(RB3LYP) =  -1084.58173643     A.U. after   13 cycles
 SCF Done:  E(RB3LYP) =  -1084.58171434     A.U. after   12 cycles
 SCF Done:  E(RB3LYP) =  -1084.58281662     A.U. after   13 cycles
 SCF Done:  E(RB3LYP) =  -1084.58329752     A.U. after   12 cycles
 SCF Done:  E(RB3LYP) =  -1084.58336076     A.U. after   11 cycles
 SCF Done:  E(RB3LYP) =  -1084.58347470     A.U. after   11 cycles
 SCF Done:  E(RB3LYP) =  -1084.58350588     A.U. after   11 cycles
 SCF Done:  E(RB3LYP) =  -1084.58351904     A.U. after   10 cycles
 SCF Done:  E(RB3LYP) =  -1084.59056850     A.U. after   11 cycles
 SCF Done:  E(RB3LYP) =  -1084.59057406     A.U. after    9 cycles
 SCF Done:  E(RB3LYP) =  -1084.59057481     A.U. after    8 cycles
 SCF Done:  E(RB3LYP) =  -1084.59057495     A.U. after    8 cycles
 SCF Done:  E(RB3LYP) =  -1084.59057498     A.U. after    7 cycles
 Optimization completed.
    -- Stationary point found.
 Normal termination of Gaussian 16 at Thu Dec 10 22:17:14 2020.

 --------------------------------------------------------------------
 #N Geom=AllCheck Guess=TCheck SCRF=Check GenChk RB3LYP/6-31G(d) Freq
 --------------------------------------------------------------------

 Structure from the checkpoint file:  "JID_6280.chk"
 ----------------------------
 CID_701394_JID_6280_neutraal
 ----------------------------
 Charge =  0 Multiplicity = 1

 SCF Done:  E(RB3LYP) =  -1084.59057498     A.U. after    1 cycles

  Exact polarizability: 287.716 -13.190 163.960 -13.202   1.080  67.714
 Approx polarizability: 414.058 -20.501 272.352 -27.760   2.853 105.180

                      1                      2                      3
                      A                      A                      A
 Frequencies --     21.8240                35.6426                47.3351
 Red. masses --      6.2519                 5.3274                 6.8118
 Frc consts  --      0.0018                 0.0040                 0.0090
 IR Inten    --      0.2235                 2.0147                 3.3211

                      4                      5                      6
                      A                      A                      A
 Frequencies --     79.6348                94.2743               115.8173
 Red. masses --      4.6318                 3.2822                 6.4430
 Frc consts  --      0.0173                 0.0172                 0.0509
 IR Inten    --      2.2170                 2.2963                 9.3871

                      7                      8                      9
                      A                      A                      A
 Frequencies --    131.9225               196.4341               210.4819
 Red. masses --      4.7520                 3.4958                 4.5559
 Frc consts  --      0.0487                 0.0795                 0.1189
 IR Inten    --      1.3554                 0.7981                 2.7991

                     10                     11                     12
                      A                      A                      A
 Frequencies --    242.5500               254.3445               274.1586
 Red. masses --      4.2863                 5.0128                 1.3438
 Frc consts  --      0.1486                 0.1911                 0.0595
 IR Inten    --      2.9641                21.0509                 1.5830

                     13                     14                     15
                      A                      A                      A
 Frequencies --    295.6459               326.9368               363.8161
 Red. masses --      4.0044                 2.7934                 3.9185
 Frc consts  --      0.2062                 0.1759                 0.3056
 IR Inten    --      1.8226                 4.9020                52.4400

                     16                     17                     18
                      A                      A                      A
 Frequencies --    406.3228               430.8579               477.4890
 Red. masses --      4.3147                 1.5121                 2.7997
 Frc consts  --      0.4197                 0.1654                 0.3761
 IR Inten    --      1.2752               171.6883                19.3149

                     19                     20                     21
                      A                      A                      A
 Frequencies --    503.9596               532.2598               550.8484
 Red. masses --      4.5027                 3.8892                 2.5687
 Frc consts  --      0.6738                 0.6492                 0.4592
 IR Inten    --     23.9526                21.0208                 9.9132

                     22                     23                     24
                      A                      A                      A
 Frequencies --    566.2438               571.3561               609.9248
 Red. masses --      2.8705                 1.9550                 5.7024
 Frc consts  --      0.5423                 0.3760                 1.2499
 IR Inten    --     20.3281                19.0088                32.8687

                     25                     26                     27
                      A                      A                      A
 Frequencies --    629.2946               672.4797               686.2420
 Red. masses --      7.2543                 6.0200                 1.8521
 Frc consts  --      1.6926                 1.6040                 0.5139
 IR Inten    --      0.7583                15.3147                23.3143

                     28                     29                     30
                      A                      A                      A
 Frequencies --    729.1523               756.8897               770.1186
 Red. masses --      1.8872                 3.5433                 1.3495
 Frc consts  --      0.5911                 1.1960                 0.4716
 IR Inten    --     92.9672                24.3042                88.8622

                     31                     32                     33
                      A                      A                      A
 Frequencies --    783.4059               857.6329               862.9800
 Red. masses --      4.7170                 3.1027                 1.5885
 Frc consts  --      1.7057                 1.3446                 0.6970
 IR Inten    --      8.0737                25.0034                 3.2864

                     34                     35                     36
                      A                      A                      A
 Frequencies --    878.5487               917.3496               948.2968
 Red. masses --      5.3977                 1.7754                 1.4325
 Frc consts  --      2.4547                 0.8803                 0.7590
 IR Inten    --      0.2909                 5.6726                 1.2340

                     37                     38                     39
                      A                      A                      A
 Frequencies --    956.9494               980.8351              1053.4092
 Red. masses --      3.8423                 1.2669                 1.1139
 Frc consts  --      2.0731                 0.7181                 0.7283
 IR Inten    --     22.9340                 0.2108                24.4292

                     40                     41                     42
                      A                      A                      A
 Frequencies --   1066.7083              1086.9069              1090.6749
 Red. masses --      6.5049                 2.3359                 2.1180
 Frc consts  --      4.3610                 1.6259                 1.4845
 IR Inten    --     39.7637                40.6036                14.9921

                     43                     44                     45
                      A                      A                      A
 Frequencies --   1161.0180              1184.7267              1201.7478
 Red. masses --      1.6707                 1.2687                 1.1244
 Frc consts  --      1.3269                 1.0491                 0.9567
 IR Inten    --     38.7228                 1.0949                22.5925

                     46                     47                     48
                      A                      A                      A
 Frequencies --   1209.9241              1220.2982              1243.3840
 Red. masses --      2.4420                 1.4749                 1.9966
 Frc consts  --      2.1063                 1.2941                 1.8187
 IR Inten    --    260.1494                24.5987                45.6064

                     49                     50                     51
                      A                      A                      A
 Frequencies --   1291.4370              1295.3012              1319.4422
 Red. masses --      2.5311                 1.7970                 2.3687
 Frc consts  --      2.4872                 1.7764                 2.4297
 IR Inten    --     80.4044               207.4728               378.7849

                     52                     53                     54
                      A                      A                      A
 Frequencies --   1357.4224              1375.4761              1384.2999
 Red. masses --      3.0599                 1.8211                 2.0271
 Frc consts  --      3.3219                 2.0300                 2.2887
 IR Inten    --     32.8598               215.6706                84.6711

                     55                     56                     57
                      A                      A                      A
 Frequencies --   1451.5135              1486.2169              1510.1809
 Red. masses --      4.5163                 1.5514                 1.6395
 Frc consts  --      5.6063                 2.0190                 2.2030
 IR Inten    --    108.9061                33.1661                17.6841

                     58                     59                     60
                      A                      A                      A
 Frequencies --   1513.8793              1522.8706              1532.1569
 Red. masses --      1.7331                 1.0482                 1.1740
 Frc consts  --      2.3402                 1.4322                 1.6238
 IR Inten    --    429.9304                 5.7738                96.5180

                     61                     62                     63
                      A                      A                      A
 Frequencies --   1548.9451              1629.8975              1659.5519
 Red. masses --      1.9737                 5.5048                 3.2960
 Frc consts  --      2.7900                 8.6162                 5.3484
 IR Inten    --     44.9609                61.1392                60.5615

                     64                     65                     66
                      A                      A                      A
 Frequencies --   1662.4941              1686.3159              1773.7725
 Red. masses --      1.5755                 4.9689                 7.8143
 Frc consts  --      2.5656                 8.3251                14.4857
 IR Inten    --     86.8794               343.4328               259.4373

                     67                     68                     69
                      A                      A                      A
 Frequencies --   3039.1890              3104.7407              3167.5476
 Red. masses --      1.0336                 1.1072                 1.1016
 Frc consts  --      5.6250                 6.2883                 6.5118
 IR Inten    --     47.9178                31.5020                13.1924

                     70                     71                     72
                      A                      A                      A
 Frequencies --   3171.4815              3191.9664              3199.5020
 Red. masses --      1.0879                 1.0870                 1.0898
 Frc consts  --      6.4468                 6.5250                 6.5729
 IR Inten    --      1.3854                 2.3084                 8.7316

                     73                     74                     75
                      A                      A                      A
 Frequencies --   3219.1789              3236.7550              3292.2414
 Red. masses --      1.0955                 1.0919                 1.0895
 Frc consts  --      6.6890                 6.7399                 6.9577
 IR Inten    --     23.6151                 9.6339                 0.6896

                     76                     77                     78
                      A                      A                      A
 Frequencies --   3560.0317              3595.2282              3693.7837
 Red. masses --      1.0484                 1.0766                 1.1015
 Frc consts  --      7.8288                 8.1987                 8.8544
 IR Inten    --     54.7954                62.9828                71.3813

 - Thermochemistry -
 -------------------
 Temperature   298.150 Kelvin.  Pressure   1.00000 Atm.
 Atom     1 has atomic number  6 and mass  12.00000

 Molecular mass:   236.06195 amu.
 Principal axes and moments of inertia in atomic units:
                           1         2         3
     Eigenvalues --  1879.520958146.580969875.61581
           X            0.99999   0.00378   0.00068
           Y           -0.00379   0.99998   0.00552
           Z           -0.00066  -0.00552   0.99998
 This molecule is an asymmetric top.
 Rotational symmetry number  1.
 Warning -- assumption of classical behavior for rotation
           may cause significant error
 Rotational temperatures (Kelvin)      0.04608     0.01063     0.00877
 Rotational constants (GHZ):           0.96021     0.22153     0.18275
 Zero-point vibrational energy     578764.5 (Joules/Mol)
                                  138.32804 (Kcal/Mol)
 Warning -- explicit consideration of  24 degrees of freedom as
           vibrations may cause significant error
 Vibrational temperatures:     31.40    51.28    68.10   114.58   135.64
          (Kelvin)            166.64   189.81   282.62   302.84   348.98
                              365.95   394.45   425.37   470.39   523.45
                              584.61   619.91   687.00   725.09   765.80
                              792.55   814.70   822.05   877.55   905.41
                              967.55   987.35  1049.09  1089.00  1108.03
                             1127.15  1233.94  1241.64  1264.04  1319.86
                             1364.39  1376.84  1411.20  1515.62  1534.76
                             1563.82  1569.24  1670.45  1704.56  1729.05
                             1740.81  1755.74  1788.95  1858.09  1863.65
                             1898.38  1953.03  1979.00  1991.70  2088.40
                             2138.33  2172.81  2178.13  2191.07  2204.43
                             2228.59  2345.06  2387.73  2391.96  2426.23
                             2552.06  4372.72  4467.03  4557.39  4563.05
                             4592.53  4603.37  4631.68  4656.97  4736.80
                             5122.09  5172.73  5314.53

 Zero-point correction=                           0.220440 (Hartree/Particle)
 Thermal correction to Energy=                    0.235849
 Thermal correction to Enthalpy=                  0.236793
 Thermal correction to Gibbs Free Energy=         0.175668
 Sum of electronic and zero-point Energies=          -1084.370135
 Sum of electronic and thermal Energies=             -1084.354726
 Sum of electronic and thermal Enthalpies=           -1084.353782
 Sum of electronic and thermal Free Energies=        -1084.414907

                     E (Thermal)             CV                S
                      KCal/Mol        Cal/Mol-Kelvin    Cal/Mol-Kelvin
 Total                  147.998             57.279            128.650
 Electronic               0.000              0.000              0.000
 Translational            0.889              2.981             42.278
 Rotational               0.889              2.981             33.380
 Vibrational            146.220             51.317             52.991
 Vibration     1          0.593              1.985              6.461
 Vibration     2          0.594              1.982              5.488
 Vibration     3          0.595              1.979              4.926
 Vibration     4          0.600              1.963              3.900
 Vibration     5          0.603              1.953              3.569
 Vibration     6          0.608              1.936              3.169
 Vibration     7          0.612              1.921              2.918
 Vibration     8          0.636              1.845              2.166
 Vibration     9          0.643              1.825              2.039
 Vibration    10          0.659              1.775              1.784
 Vibration    11          0.665              1.755              1.700
 Vibration    12          0.676              1.721              1.570
 Vibration    13          0.690              1.682              1.441
 Vibration    14          0.711              1.622              1.275
 Vibration    15          0.737              1.547              1.106
 Vibration    16          0.771              1.456              0.940
 Vibration    17          0.792              1.403              0.856
 Vibration    18          0.834              1.300              0.717
 Vibration    19          0.859              1.241              0.648
 Vibration    20          0.887              1.179              0.582
 Vibration    21          0.906              1.138              0.542
 Vibration    22          0.922              1.104              0.512
 Vibration    23          0.928              1.093              0.502
 Vibration    24          0.969              1.011              0.433

                           ! Non-Optimized Parameters !
 Normal termination of Gaussian 16 at Thu Dec 10 22:25:14 2020.

 ----------------------------------------------------------------------
 # B3LYP/6-311++G(d,p) empiricaldispersion=gd3bj scf=xqc pop=npa geom=c
 heck
 ----------------------------------------------------------------------

 ------------------------------------
 CID_701394_JID_6280_Energie_neutraal
 ------------------------------------
 Structure from the checkpoint file:  "JID_6280.chk"
 Charge =  0 Multiplicity = 1

 SCF Done:  E(RB3LYP) =  -1084.81480381     A.U. after   16 cycles
 Normal termination of Gaussian 16 at Thu Dec 10 22:28:51 2020.

 ----------------------------------------------------------------------
 # B3LYP/6-311++G(d,p) empiricaldispersion=gd3bj scf=xqc pop=npa geom=c
 heck
 ----------------------------------------------------------------------

 ----------------------------------
 CID_701394_JID_6280_Energie_kation
 ----------------------------------
 Structure from the checkpoint file:  "JID_6280.chk"
 Charge =  1 Multiplicity = 2

 SCF Done:  E(UB3LYP) =  -1084.52584409     A.U. after   33 cycles
 SCF Done:  E(UB3LYP) =  -1084.52584409     a.u. after    1 cycles
 Normal termination of Gaussian 16 at Thu Dec 10 22:39:51 2020.
 Gaussian 16:  ES64L-G16RevA.03 25-Dec-2016

 ----------------------------------------------------------------------
 # B3LYP/6-311++G(d,p) empiricaldispersion=gd3bj scf=xqc pop=npa geom=c
 heck
 ----------------------------------------------------------------------

 ---------------------------------
 CID_701394_JID_6280_Energie_anion
 ---------------------------------
 Structure from the checkpoint file:  "JID_6280.chk"
 Charge = -1 Multiplicity = 2

                         Standard orientation:
 ---------------------------------------------------------------------
 Center     Atomic      Atomic             Coordinates (Angstroms)
 Number     Number       Type             X           Y           Z
 ---------------------------------------------------------------------
      1          6           0       -1.462719   -2.882037   -0.376373
      2          8           0       -1.260135   -1.482998   -0.226094
      3          6           0       -2.342989   -0.670305   -0.087098
      4          6           0       -3.655717   -1.147953   -0.056869
      5          6           0       -4.721787   -0.262625    0.108273
      6          6           0       -4.491889    1.104322    0.253083
      7          6           0       -3.184404    1.575392    0.226219
      8          6           0       -2.082281    0.720103    0.046194
      9          6           0       -0.758932    1.323026    0.025344
     10          6           0        0.436060    0.760267   -0.254942
     11          6           0        1.650118    1.595705   -0.220192
     12          8           0        1.648241    2.817822   -0.262100
     13          7           0        2.898376    0.937485   -0.191537
     14          6           0        3.308187   -0.323486    0.198553
     15         16           0        4.902028   -0.792000   -0.012304
     16          7           0        2.382016   -1.149019    0.749637
     17          1           0       -0.465756   -3.312706   -0.478527
     18          1           0       -2.051139   -3.104345   -1.274400
     19          1           0       -1.960606   -3.309385    0.502538
     20          1           0       -3.856117   -2.207076   -0.160646
     21          1           0       -5.735235   -0.652758    0.126572
     22          1           0       -5.319694    1.793028    0.386507
     23          1           0       -2.990477    2.638627    0.338192
     24          1           0       -0.738627    2.385131    0.265456
     25          1           0        0.520376   -0.273261   -0.551166
     26          1           0        3.670714    1.559825   -0.401365
     27          1           0        1.516876   -0.790307    1.133203
     28          1           0        2.747757   -2.007078    1.136197
 ---------------------------------------------------------------------

 SCF Done:  E(UB3LYP) =  -1084.85368319     A.U. after   23 cycles

 The electronic state is 2-A.
 Alpha  occ. eigenvalues --  -88.67400 -19.05221 -18.94401 -14.22992 -14.22965
 Alpha  occ. eigenvalues --  -10.17177 -10.13680 -10.12483 -10.11856 -10.06136
 Alpha  occ. eigenvalues --  -10.05697 -10.05524 -10.05468 -10.05173 -10.02936
 Alpha  occ. eigenvalues --  -10.01823  -7.76208  -5.72623  -5.72025  -5.71759
 Alpha  occ. eigenvalues --   -0.96958  -0.90539  -0.85649  -0.77864  -0.74150
 Alpha  occ. eigenvalues --   -0.67101  -0.64691  -0.62965  -0.61319  -0.59450
 Alpha  occ. eigenvalues --   -0.52451  -0.50832  -0.49065  -0.47950  -0.45276
 Alpha  occ. eigenvalues --   -0.43106  -0.40911  -0.39294  -0.37960  -0.37302
 Alpha  occ. eigenvalues --   -0.36227  -0.34809  -0.33496  -0.32109  -0.30955
 Alpha  occ. eigenvalues --   -0.29714  -0.28714  -0.28047  -0.26472  -0.25961
 Alpha  occ. eigenvalues --   -0.25387  -0.24691  -0.24125  -0.22323  -0.20763
 Alpha  occ. eigenvalues --   -0.18047  -0.16153  -0.13227  -0.12878  -0.11306
 Alpha  occ. eigenvalues --   -0.10318  -0.09902   0.01497
 Alpha virt. eigenvalues --    0.06502   0.07842   0.08441   0.08820   0.09775
 Alpha virt. eigenvalues --    0.10188   0.10743   0.11052   0.11830   0.12142
 Alpha virt. eigenvalues --    0.12472   0.13016   0.13486   0.13828   0.14689

  Beta  occ. eigenvalues --  -88.67387 -19.05185 -18.94038 -14.23022 -14.22948
  Beta  occ. eigenvalues --  -10.17030 -10.13679 -10.12277 -10.11711 -10.06193
  Beta  occ. eigenvalues --  -10.05709 -10.05580 -10.05223 -10.05000 -10.02588
  Beta  occ. eigenvalues --  -10.01722  -7.76196  -5.72621  -5.71977  -5.71752
  Beta  occ. eigenvalues --   -0.96864  -0.90042  -0.85400  -0.77766  -0.73909
  Beta  occ. eigenvalues --   -0.66669  -0.64457  -0.62644  -0.61105  -0.59290
  Beta  occ. eigenvalues --   -0.51765  -0.50656  -0.48959  -0.47738  -0.45088
  Beta  occ. eigenvalues --   -0.42994  -0.40665  -0.39159  -0.37837  -0.37248
  Beta  occ. eigenvalues --   -0.36073  -0.34642  -0.33311  -0.31866  -0.30511
  Beta  occ. eigenvalues --   -0.29461  -0.28360  -0.27542  -0.26200  -0.25794
  Beta  occ. eigenvalues --   -0.24679  -0.24191  -0.23932  -0.21832  -0.20578
  Beta  occ. eigenvalues --   -0.16754  -0.15450  -0.12794  -0.12355  -0.10922
  Beta  occ. eigenvalues --   -0.10001  -0.08875
  Beta virt. eigenvalues --    0.06480   0.06802   0.07825   0.08738   0.09574
  Beta virt. eigenvalues --    0.09893   0.10266   0.11017   0.11153   0.11835
  Beta virt. eigenvalues --    0.12138   0.12477   0.13421   0.13605   0.14398

 Mulliken charges and spin densities:
               1          2
     1  C   -0.278452  -0.005061
     2  O   -0.125147   0.009067
     3  C   -1.083810   0.059854
     4  C   -0.737388  -0.051690
     5  C   -0.391139   0.215635
     6  C   -0.466873  -0.050796
     7  C   -0.089645   0.161352
     8  C    1.663557  -0.008322
     9  C   -0.050148   0.223955
    10  C    0.055376   0.084571
    11  C   -0.133376   0.152079
    12  O   -0.399895   0.134128
    13  N   -0.073140  -0.037076
    14  C    0.086158   0.059540
    15  S   -0.790206   0.037445
    16  N   -0.314828   0.017027
    17  H    0.162722   0.002764
    18  H    0.128521   0.003492
    19  H    0.124272   0.002901
    20  H    0.111534   0.003007
    21  H    0.117042  -0.016086
    22  H    0.113517   0.003248
    23  H    0.104459  -0.007128
    24  H    0.181197  -0.020241
    25  H    0.255087  -0.009065
    26  H    0.293841   0.007500
    27  H    0.291669   0.015617
    28  H    0.245096   0.012282
 Sum of Mulliken charges =  -1.00000   1.00000

 Dipole moment (field-independent basis, Debye):
    X=             -6.0345    Y=             -5.5922    Z=              1.2404  Tot=              8.3203
 Quadrupole moment (field-independent basis, Debye-Ang):
   XX=           -179.1782   YY=           -118.3151   ZZ=           -111.0277
   XY=              3.8585   XZ=              2.5063   YZ=              0.6772

 Summary of Natural Population Analysis:

                                       Natural Population
                Natural  -----------------------------------------------
    Atom  No    Charge         Core      Valence    Rydberg      Total
 -----------------------------------------------------------------------
      C    1   -0.10048      0.99961     2.09293    0.00794     3.10048
      O    2   -0.27002      0.99985     3.25975    0.01041     4.27002
      C    3    0.19905      0.99937     1.79058    0.01101     2.80095
      C    4   -0.16810      0.99954     2.16060    0.00797     3.16810
      C    5   -0.04751      0.99959     2.03815    0.00976     3.04751
      C    6   -0.14273      0.99957     2.13361    0.00955     3.14273
      C    7   -0.04448      0.99955     2.03650    0.00843     3.04448
      C    8   -0.06140      0.99948     2.05307    0.00885     3.06140
      C    9    0.00540      0.99953     1.98578    0.00928     2.99460
      C   10   -0.16235      0.99949     2.15404    0.00882     3.16235
      C   11    0.35391      0.99966     1.62481    0.02162     2.64609
      O   12   -0.28204      0.99988     3.27583    0.00632     4.28204
      N   13   -0.32647      0.99962     2.81510    0.01176     3.82647
      C   14    0.16927      0.99972     1.81095    0.02006     2.83073
      S   15   -0.16442      4.99958     3.15004    0.01480     8.16442
      N   16   -0.39316      0.99967     2.88294    0.01055     3.89316
      H   17    0.09212      0.00000     0.40704    0.00083     0.40788
      H   18    0.08195      0.00000     0.41660    0.00145     0.41805
      H   19    0.08056      0.00000     0.41801    0.00143     0.41944
      H   20    0.09663      0.00000     0.40230    0.00107     0.40337
      H   21    0.08853      0.00000     0.41044    0.00103     0.41147
      H   22    0.09389      0.00000     0.40508    0.00103     0.40611
      H   23    0.09401      0.00000     0.40463    0.00136     0.40599
      H   24    0.09654      0.00000     0.40160    0.00187     0.40346
      H   25    0.10679      0.00000     0.39134    0.00186     0.39321
      H   26    0.20398      0.00000     0.29422    0.00180     0.29602
      H   27    0.20514      0.00000     0.29312    0.00174     0.29486
      H   28    0.19538      0.00000     0.30322    0.00141     0.30462
 =======================================================================
   * Total *   -0.00000     19.99370    41.81228    0.19402    62.00000

 Normal termination of Gaussian 16 at Thu Dec 10 22:47:22 2020.
