 Gaussian 16, Revision A.03,

 -----------------------------------------------------------
 # opt freq B3LYP/6-31G(d) empiricaldispersion=gd3bj scf=xqc
 -----------------------------------------------------------

 ------------------------------
 CID_148895025_JID_500_neutraal
 ------------------------------
 Symbolic Z-matrix:
 Charge =  0 Multiplicity = 1

 SCF Done:  E(RB3LYP) =  -747.078342166     A.U. after   14 cycles
 SCF Done:  E(RB3LYP) =  -747.099993661     A.U. after   12 cycles
 SCF Done:  E(RB3LYP) =  -747.104354609     A.U. after   12 cycles
 SCF Done:  E(RB3LYP) =  -747.104611879     A.U. after   10 cycles
 SCF Done:  E(RB3LYP) =  -747.104672729     A.U. after    9 cycles
 SCF Done:  E(RB3LYP) =  -747.104682064     A.U. after    8 cycles
 SCF Done:  E(RB3LYP) =  -747.104687442     A.U. after    9 cycles
 SCF Done:  E(RB3LYP) =  -747.104688580     A.U. after    8 cycles
 SCF Done:  E(RB3LYP) =  -747.104688705     A.U. after    7 cycles
 Optimization completed.
    -- Stationary point found.

 1\1\GINC-NODE379\FOpt\RB3LYP\6-31G(d)\C9H10S1\VSC10255\08-Dec-2020\0\\
 # opt freq B3LYP/6-31G(d) empiricaldispersion=gd3bj scf=xqc\\CID_14889
 5025_JID_500_neutraal\\0,1\C,-2.1516016294,-0.0191204684,-0.1393890768
 \C,-1.2149487553,-1.2905163199,-0.0890907342\C,-0.578273608,-1.6983003
 254,1.2093547937\C,0.4921545917,-1.0660880297,1.7090421268\C,1.0753102
 815,0.1299320937,1.0459978753\C,2.1265271765,0.0685420804,-0.062459951
 1\C,0.7015522853,0.3690626609,-0.3862935847\C,-0.2768248621,-0.5760562
 712,-1.0885822176\C,-1.328866635,0.5268210362,-1.344944352\S,-0.118341

 Normal termination of Gaussian 16 at Tue Dec  8 12:11:46 2020.

 --------------------------------------------------------------------
 #N Geom=AllCheck Guess=TCheck SCRF=Check GenChk RB3LYP/6-31G(d) Freq
 --------------------------------------------------------------------

 Structure from the checkpoint file:  "JID_500.chk"
 ------------------------------
 CID_148895025_JID_500_neutraal
 ------------------------------
 Charge =  0 Multiplicity = 1

 SCF Done:  E(RB3LYP) =  -747.104688705     A.U. after    1 cycles

  Exact polarizability: 105.103   0.067 110.964   0.533   3.607  75.243
 Approx polarizability: 152.030  -0.575 174.712   2.559  11.528 120.676

                      1                      2                      3
                      A                      A                      A
 Frequencies --    130.6089               228.4398               279.9015
 Red. masses --      3.4031                 3.0450                 3.6020
 Frc consts  --      0.0342                 0.0936                 0.1663
 IR Inten    --      0.7445                 0.0077                 1.3614

                      4                      5                      6
                      A                      A                      A
 Frequencies --    321.1679               348.9382               418.8481
 Red. masses --      2.6391                 2.9158                 4.5425
 Frc consts  --      0.1604                 0.2092                 0.4695
 IR Inten    --      0.1421                 0.9462                 1.7340

                      7                      8                      9
                      A                      A                      A
 Frequencies --    456.5330               500.8696               555.8809
 Red. masses --      6.0586                 4.7207                 2.8959
 Frc consts  --      0.7440                 0.6978                 0.5272
 IR Inten    --      1.7955                 0.3103                 0.9741

                     10                     11                     12
                      A                      A                      A
 Frequencies --    588.9959               660.2811               719.3814
 Red. masses --      4.9902                 3.0085                 3.1284
 Frc consts  --      1.0200                 0.7728                 0.9539
 IR Inten    --      1.5612                 2.9037                 4.8933

                     13                     14                     15
                      A                      A                      A
 Frequencies --    738.0866               785.3825               813.4227
 Red. masses --      1.4863                 1.7685                 2.3440
 Frc consts  --      0.4770                 0.6427                 0.9138
 IR Inten    --     32.5260                 2.7342                 0.6684

                     16                     17                     18
                      A                      A                      A
 Frequencies --    832.7901               881.4131               919.6822
 Red. masses --      2.6110                 1.9026                 3.1923
 Frc consts  --      1.0669                 0.8709                 1.5908
 IR Inten    --      3.6933                 1.7741                 7.0451

                     19                     20                     21
                      A                      A                      A
 Frequencies --    927.9952               955.4481               982.6580
 Red. masses --      1.8753                 2.8512                 2.2654
 Frc consts  --      0.9515                 1.5336                 1.2888
 IR Inten    --      0.5662                 6.4434                 1.2834

                     22                     23                     24
                      A                      A                      A
 Frequencies --    989.1790              1009.1589              1025.4740
 Red. masses --      1.4185                 2.7348                 2.3118
 Frc consts  --      0.8178                 1.6410                 1.4324
 IR Inten    --      0.6136                 2.0232                 0.5443

                     25                     26                     27
                      A                      A                      A
 Frequencies --   1052.0157              1063.2156              1082.2837
 Red. masses --      2.2974                 1.3398                 1.6618
 Frc consts  --      1.4981                 0.8923                 1.1468
 IR Inten    --      5.0629                 1.5956                 4.6124

                     28                     29                     30
                      A                      A                      A
 Frequencies --   1100.1976              1122.4821              1158.9187
 Red. masses --      1.4468                 1.4649                 1.6719
 Frc consts  --      1.0318                 1.0875                 1.3230
 IR Inten    --      4.0326                 1.8205                 9.2479

                     31                     32                     33
                      A                      A                      A
 Frequencies --   1193.7407              1218.0193              1232.6157
 Red. masses --      1.5705                 1.2724                 1.3938
 Frc consts  --      1.3186                 1.1122                 1.2477
 IR Inten    --      2.0735                 1.8085                 2.8060

                     34                     35                     36
                      A                      A                      A
 Frequencies --   1255.5536              1263.2941              1278.3570
 Red. masses --      1.5040                 1.2051                 1.5350
 Frc consts  --      1.3969                 1.1331                 1.4780
 IR Inten    --      1.8181                 8.3512                 0.6601

                     37                     38                     39
                      A                      A                      A
 Frequencies --   1287.8729              1346.5700              1375.8647
 Red. masses --      1.4098                 1.9019                 1.6369
 Frc consts  --      1.3777                 2.0319                 1.8257
 IR Inten    --      0.2436                 2.2764                 0.5311

                     40                     41                     42
                      A                      A                      A
 Frequencies --   1406.9860              1441.2506              1502.0421
 Red. masses --      1.6908                 2.0010                 1.3533
 Frc consts  --      1.9721                 2.4489                 1.7990
 IR Inten    --      2.5445                 4.3703                 3.7445

                     43                     44                     45
                      A                      A                      A
 Frequencies --   1505.7400              1710.3115              3075.8992
 Red. masses --      1.1241                 6.4352                 1.0853
 Frc consts  --      1.5016                11.0908                 6.0497
 IR Inten    --      5.5500                 5.9362                16.2132

                     46                     47                     48
                      A                      A                      A
 Frequencies --   3086.5741              3098.4875              3135.5378
 Red. masses --      1.0612                 1.0877                 1.0540
 Frc consts  --      5.9569                 6.1528                 6.1055
 IR Inten    --     44.9193                36.8683                16.3340

                     49                     50                     51
                      A                      A                      A
 Frequencies --   3139.2656              3143.1809              3153.8869
 Red. masses --      1.0870                 1.0984                 1.0985
 Frc consts  --      6.3115                 6.3939                 6.4379
 IR Inten    --      5.4227                 4.1932                38.3639

                     52                     53                     54
                      A                      A                      A
 Frequencies --   3156.6851              3180.0829              3221.0712
 Red. masses --      1.0850                 1.0967                 1.1175
 Frc consts  --      6.3698                 6.5348                 6.8315
 IR Inten    --     15.3417                50.4704                 6.8835

 - Thermochemistry -
 -------------------
 Temperature   298.150 Kelvin.  Pressure   1.00000 Atm.
 Atom     1 has atomic number  6 and mass  12.00000

 Molecular mass:   150.05032 amu.
 Principal axes and moments of inertia in atomic units:
                           1         2         3
     Eigenvalues --  1007.187471250.361981875.02925
           X            0.99740  -0.07106  -0.01176
           Y            0.07099   0.99746  -0.00597
           Z            0.01215   0.00512   0.99991
 This molecule is an asymmetric top.
 Rotational symmetry number  1.
 Warning -- assumption of classical behavior for rotation
           may cause significant error
 Rotational temperatures (Kelvin)      0.08600     0.06927     0.04619
 Rotational constants (GHZ):           1.79186     1.44337     0.96251
 Zero-point vibrational energy     436987.1 (Joules/Mol)
                                  104.44243 (Kcal/Mol)
 Warning -- explicit consideration of  10 degrees of freedom as
           vibrations may cause significant error
 Vibrational temperatures:    187.92   328.67   402.72   462.09   502.04
          (Kelvin)            602.63   656.85   720.64   799.79   847.43
                              950.00  1035.03  1061.94  1129.99  1170.33
                             1198.20  1268.16  1323.22  1335.18  1374.68
                             1413.83  1423.21  1451.95  1475.43  1513.62
                             1529.73  1557.16  1582.94  1615.00  1667.43
                             1717.53  1752.46  1773.46  1806.46  1817.60
                             1839.27  1852.96  1937.41  1979.56  2024.34
                             2073.64  2161.10  2166.42  2460.76  4425.53
                             4440.89  4458.03  4511.34  4516.70  4522.34
                             4537.74  4541.77  4575.43  4634.40

 Zero-point correction=                           0.166440 (Hartree/Particle)
 Thermal correction to Energy=                    0.173996
 Thermal correction to Enthalpy=                  0.174940
 Thermal correction to Gibbs Free Energy=         0.134335
 Sum of electronic and zero-point Energies=           -746.938249
 Sum of electronic and thermal Energies=              -746.930693
 Sum of electronic and thermal Enthalpies=            -746.929749
 Sum of electronic and thermal Free Energies=         -746.970354

                     E (Thermal)             CV                S
                      KCal/Mol        Cal/Mol-Kelvin    Cal/Mol-Kelvin
 Total                  109.184             32.129             85.460
 Electronic               0.000              0.000              0.000
 Translational            0.889              2.981             40.928
 Rotational               0.889              2.981             29.247
 Vibrational            107.407             26.168             15.285
 Vibration     1          0.612              1.923              2.937
 Vibration     2          0.651              1.798              1.891
 Vibration     3          0.680              1.711              1.534
 Vibration     4          0.707              1.633              1.304
 Vibration     5          0.726              1.577              1.171
 Vibration     6          0.782              1.429              0.896
 Vibration     7          0.815              1.346              0.776
 Vibration     8          0.856              1.248              0.656
 Vibration     9          0.911              1.127              0.532
 Vibration    10          0.946              1.055              0.469

 Optimization completed.
    -- Stationary point found.

 1\1\GINC-NODE379\Freq\RB3LYP\6-31G(d)\C9H10S1\VSC10255\08-Dec-2020\0\\
 #N Geom=AllCheck Guess=TCheck SCRF=Check GenChk RB3LYP/6-31G(d) Freq\\
 CID_148895025_JID_500_neutraal\\0,1\C,-2.1516016294,-0.0191204684,-0.1
 393890768\C,-1.2149487553,-1.2905163199,-0.0890907342\C,-0.578273608,-
 1.6983003254,1.2093547937\C,0.4921545917,-1.0660880297,1.7090421268\C,
 1.0753102815,0.1299320937,1.0459978753\C,2.1265271765,0.0685420804,-0.
 0624599511\C,0.7015522853,0.3690626609,-0.3862935847\C,-0.2768248621,-
 0.5760562712,-1.0885822176\C,-1.328866635,0.5268210362,-1.344944352\S,

 Normal termination of Gaussian 16 at Tue Dec  8 12:17:07 2020.

 ----------------------------------------------------------------------
 # B3LYP/6-311++G(d,p) empiricaldispersion=gd3bj scf=xqc pop=npa geom=c
 heck
 ----------------------------------------------------------------------

 --------------------------------------
 CID_148895025_JID_500_Energie_neutraal
 --------------------------------------
 Structure from the checkpoint file:  "JID_500.chk"
 Charge =  0 Multiplicity = 1

 SCF Done:  E(RB3LYP) =  -747.218151405     A.U. after   15 cycles
 Normal termination of Gaussian 16 at Tue Dec  8 12:18:41 2020.

 ----------------------------------------------------------------------
 # B3LYP/6-311++G(d,p) empiricaldispersion=gd3bj scf=xqc pop=npa geom=c
 heck
 ----------------------------------------------------------------------

 ------------------------------------
 CID_148895025_JID_500_Energie_kation
 ------------------------------------
 Structure from the checkpoint file:  "JID_500.chk"
 Charge =  1 Multiplicity = 2

 SCF Done:  E(UB3LYP) =  -746.925586177     A.U. after   25 cycles
 Normal termination of Gaussian 16 at Tue Dec  8 12:24:54 2020.
 Gaussian 16:  ES64L-G16RevA.03 25-Dec-2016

 -----------------------------------
 CID_148895025_JID_500_Energie_anion
 -----------------------------------
 Structure from the checkpoint file:  "JID_500.chk"
 Charge = -1 Multiplicity = 2

                         Standard orientation:
 ---------------------------------------------------------------------
 Center     Atomic      Atomic             Coordinates (Angstroms)
 Number     Number       Type             X           Y           Z
 ---------------------------------------------------------------------
      1          6           0       -0.383330    1.894543   -0.566753
      2          6           0        0.767130    1.474290    0.431309
      3          6           0        2.047434    0.898649   -0.104474
      4          6           0        2.139717   -0.371390   -0.521225
      5          6           0        0.958685   -1.273899   -0.549583
      6          6           0        0.495113   -2.116837    0.638718
      7          6           0       -0.232293   -0.868665    0.266318
      8          6           0       -0.211324    0.448083    1.046970
      9          6           0       -1.398771    1.056388    0.266724
     10         16           0       -1.916728   -0.590624   -0.419346
     11          1           0       -0.235162    1.515451   -1.580008
     12          1           0       -0.592879    2.967152   -0.611696
     13          1           0        0.976053    2.291891    1.128460
     14          1           0        2.923560    1.543261   -0.137230
     15          1           0        3.086133   -0.759957   -0.894100
     16          1           0        0.742637   -1.721304   -1.519337
     17          1           0        1.077801   -2.090346    1.557241
     18          1           0        0.040344   -3.078678    0.416644
     19          1           0       -0.247855    0.331682    2.134141
     20          1           0       -2.197145    1.603872    0.767394
 ---------------------------------------------------------------------

 SCF Done:  E(UB3LYP) =  -747.200642280     A.U. after   33 cycles
 SCF Done:  E(UB3LYP) =  -747.200642280     a.u. after    1 cycles

 The electronic state is 2-A.
 Alpha  occ. eigenvalues --  -88.73438 -10.10618 -10.09822 -10.07916 -10.07759
 Alpha  occ. eigenvalues --  -10.07655 -10.06953 -10.06499 -10.06391 -10.06054
 Alpha  occ. eigenvalues --   -7.82028  -5.78362  -5.78127  -5.77399  -0.80263
 Alpha  occ. eigenvalues --   -0.73970  -0.68404  -0.61993  -0.57352  -0.54220
 Alpha  occ. eigenvalues --   -0.50508  -0.47076  -0.44325  -0.39868  -0.39375
 Alpha  occ. eigenvalues --   -0.37864  -0.35092  -0.33342  -0.30756  -0.27727
 Alpha  occ. eigenvalues --   -0.27595  -0.26390  -0.25567  -0.23333  -0.23036
 Alpha  occ. eigenvalues --   -0.20528  -0.18750  -0.16874  -0.13509  -0.11288
 Alpha  occ. eigenvalues --    0.04962
 Alpha virt. eigenvalues --    0.06827   0.07920   0.08442   0.08563   0.09458
 Alpha virt. eigenvalues --    0.10491   0.10583   0.10761   0.11096   0.11984
 Alpha virt. eigenvalues --    0.12743   0.13455   0.15089   0.15514   0.15991

  Beta  occ. eigenvalues --  -88.73436 -10.10616 -10.09803 -10.07909 -10.07732
  Beta  occ. eigenvalues --  -10.07642 -10.06936 -10.06470 -10.06370 -10.06017
  Beta  occ. eigenvalues --   -7.82026  -5.78359  -5.78125  -5.77397  -0.80234
  Beta  occ. eigenvalues --   -0.73936  -0.68345  -0.61951  -0.57300  -0.54163
  Beta  occ. eigenvalues --   -0.50451  -0.47027  -0.44262  -0.39780  -0.39328
  Beta  occ. eigenvalues --   -0.37811  -0.35047  -0.33292  -0.30711  -0.27676
  Beta  occ. eigenvalues --   -0.27553  -0.26339  -0.25529  -0.23291  -0.22992
  Beta  occ. eigenvalues --   -0.20480  -0.18703  -0.16843  -0.13418  -0.11271
  Beta virt. eigenvalues --    0.07241   0.07745   0.08639   0.09069   0.09257
  Beta virt. eigenvalues --    0.09868   0.10977   0.11073   0.11231   0.11794
  Beta virt. eigenvalues --    0.12198   0.13274   0.14083   0.15248   0.15587

 Mulliken charges and spin densities:
               1          2
     1  C    0.922483  -1.704095
     2  C    0.647306  -0.334152
     3  C   -0.482551  -0.062833
     4  C    0.853516  -1.023898
     5  C   -1.155321   1.098684
     6  C    1.517720  -1.982259
     7  C   -0.167221   0.468030
     8  C    1.136054  -1.294497
     9  C   -1.162757   1.094721
    10  S    0.202079  -0.447356
    11  H   -0.048933   0.194676
    12  H   -0.433726   0.597546
    13  H   -0.764239   0.996507
    14  H   -0.695380   0.856749
    15  H   -0.214220   0.362393
    16  H   -0.065566   0.268231
    17  H    0.064313   0.087064
    18  H   -0.305319   0.450428
    19  H   -0.386060   0.667668
    20  H   -0.462177   0.706392
 Sum of Mulliken charges =  -1.00000   1.00000

 Dipole moment (field-independent basis, Debye):
    X=             -2.4055    Y=             -4.6754    Z=             -1.9149  Tot=              5.5958
 Quadrupole moment (field-independent basis, Debye-Ang):
   XX=           -111.0119   YY=           -121.7508   ZZ=            -99.7135
   XY=             -4.3777   XZ=              1.4603   YZ=             -5.0379

 Summary of Natural Population Analysis:

                                       Natural Population
                Natural  -----------------------------------------------
    Atom  No    Charge         Core      Valence    Rydberg      Total
 -----------------------------------------------------------------------
      C    1   -0.18387      0.99960     2.17438    0.00989     3.18387
      C    2   -0.12895      0.99959     2.11477    0.01460     3.12895
      C    3   -0.07921      0.99951     2.06836    0.01134     3.07921
      C    4   -0.09524      0.99951     2.08502    0.01071     3.09524
      C    5   -0.12969      0.99949     2.11784    0.01235     3.12969
      C    6   -0.18823      0.99953     2.17856    0.01014     3.18823
      C    7   -0.08579      0.99945     2.06857    0.01777     3.08579
      C    8   -0.09695      0.99952     2.08276    0.01467     3.09695
      C    9   -0.14655      0.99956     2.13222    0.01477     3.14655
      S   10    0.08355      4.99958     2.90153    0.01534     7.91645
      H   11    0.10243      0.00000     0.39603    0.00155     0.39757
      H   12    0.10608      0.00000     0.39083    0.00308     0.39392
      H   13    0.11159      0.00000     0.38150    0.00691     0.38841
      H   14    0.10051      0.00000     0.39753    0.00196     0.39949
      H   15    0.09793      0.00000     0.40095    0.00112     0.40207
      H   16    0.10928      0.00000     0.38928    0.00144     0.39072
      H   17    0.10626      0.00000     0.39218    0.00157     0.39374
      H   18    0.10527      0.00000     0.39339    0.00134     0.39473
      H   19    0.10775      0.00000     0.39017    0.00208     0.39225
      H   20    0.10385      0.00000     0.39477    0.00139     0.39615
 =======================================================================
   * Total *   -0.00000     13.99535    25.85063    0.15402    40.00000

 Normal termination of Gaussian 16 at Tue Dec  8 12:32:53 2020.
