 Gaussian 16, Revision A.03,

 -----------------------------------------------------------
 # opt freq B3LYP/6-31G(d) empiricaldispersion=gd3bj scf=xqc
 -----------------------------------------------------------

 -------------------------------
 CID_130676312_JID_2475_neutraal
 -------------------------------
 Symbolic Z-matrix:
 Charge =  0 Multiplicity = 1

 SCF Done:  E(RB3LYP) =  -569.600622285     A.U. after   15 cycles
 SCF Done:  E(RB3LYP) =  -569.604807616     A.U. after   12 cycles
 SCF Done:  E(RB3LYP) =  -569.605322632     A.U. after   11 cycles
 SCF Done:  E(RB3LYP) =  -569.605456094     A.U. after   11 cycles
 SCF Done:  E(RB3LYP) =  -569.605547409     A.U. after   11 cycles
 SCF Done:  E(RB3LYP) =  -569.605622548     A.U. after   10 cycles
 SCF Done:  E(RB3LYP) =  -569.605697204     A.U. after   11 cycles
 SCF Done:  E(RB3LYP) =  -569.605790673     A.U. after   10 cycles
 SCF Done:  E(RB3LYP) =  -569.605844611     A.U. after   11 cycles
 SCF Done:  E(RB3LYP) =  -569.605848482     A.U. after   10 cycles
 SCF Done:  E(RB3LYP) =  -569.605849376     A.U. after    8 cycles
 SCF Done:  E(RB3LYP) =  -569.605849477     A.U. after    7 cycles
 SCF Done:  E(RB3LYP) =  -569.605849498     A.U. after    6 cycles
 Optimization completed.
    -- Stationary point found.
 Normal termination of Gaussian 16 at Wed Dec  9 17:24:33 2020.

 --------------------------------------------------------------------
 #N Geom=AllCheck Guess=TCheck SCRF=Check GenChk RB3LYP/6-31G(d) Freq
 --------------------------------------------------------------------

 Structure from the checkpoint file:  "JID_2475.chk"
 -------------------------------
 CID_130676312_JID_2475_neutraal
 -------------------------------
 Charge =  0 Multiplicity = 1

 SCF Done:  E(RB3LYP) =  -569.605849498     A.U. after    1 cycles

  Exact polarizability: 150.657   0.213  93.057  -0.001   0.000  48.825
 Approx polarizability: 196.337  16.023 174.874  -0.001   0.000  75.078

                      1                      2                      3
                      A                      A                      A
 Frequencies --     42.1988                63.3291                94.9021
 Red. masses --      2.5833                 3.5027                 4.6592
 Frc consts  --      0.0027                 0.0083                 0.0247
 IR Inten    --      0.0459                 3.0397                 1.4734

                      4                      5                      6
                      A                      A                      A
 Frequencies --    110.2075               190.1319               204.7518
 Red. masses --      5.2495                 1.7390                 3.8750
 Frc consts  --      0.0376                 0.0370                 0.0957
 IR Inten    --      0.3054                 0.0267                 3.8815

                      7                      8                      9
                      A                      A                      A
 Frequencies --    265.2207               319.9916               370.5651
 Red. masses --      1.8209                 4.7210                 5.9735
 Frc consts  --      0.0755                 0.2848                 0.4833
 IR Inten    --      0.4188                 0.2850                 0.0542

                     10                     11                     12
                      A                      A                      A
 Frequencies --    437.4532               529.8901               615.7924
 Red. masses --      6.6989                 6.2792                 3.8834
 Frc consts  --      0.7553                 1.0388                 0.8676
 IR Inten    --      1.5851                 0.4659                14.3528

                     13                     14                     15
                      A                      A                      A
 Frequencies --    636.6556               664.2973               688.2828
 Red. masses --      3.2200                 4.8724                 3.6693
 Frc consts  --      0.7690                 1.2668                 1.0242
 IR Inten    --      0.8487                 0.1123                 2.5896

                     16                     17                     18
                      A                      A                      A
 Frequencies --    724.2775               741.1395               795.3013
 Red. masses --      2.4261                 1.8765                 1.4820
 Frc consts  --      0.7498                 0.6073                 0.5523
 IR Inten    --      2.5608                22.0873                38.1002

                     19                     20                     21
                      A                      A                      A
 Frequencies --    813.6558               865.7206               895.3234
 Red. masses --      1.3251                 1.3236                 5.8154
 Frc consts  --      0.5169                 0.5845                 2.7466
 IR Inten    --      4.8594                 4.6379                34.3538

                     22                     23                     24
                      A                      A                      A
 Frequencies --    935.9325               973.8371               993.9981
 Red. masses --      8.1242                 3.0739                 9.8083
 Frc consts  --      4.1929                 1.7176                 5.7097
 IR Inten    --     15.9061                 5.9194                16.6187

                     25                     26                     27
                      A                      A                      A
 Frequencies --   1020.9884              1042.9493              1062.3626
 Red. masses --      3.0982                 2.1275                 4.7006
 Frc consts  --      1.9028                 1.3635                 3.1257
 IR Inten    --     17.1961                 4.3554                19.7843

                     28                     29                     30
                      A                      A                      A
 Frequencies --   1106.7356              1113.4483              1128.9058
 Red. masses --      2.4516                 1.8464                 1.5348
 Frc consts  --      1.7692                 1.3487                 1.1524
 IR Inten    --     18.6991                10.2938                 0.0185

                     31                     32                     33
                      A                      A                      A
 Frequencies --   1147.6172              1211.1065              1244.2725
 Red. masses --      4.5543                 4.0833                 3.2675
 Frc consts  --      3.5340                 3.5288                 2.9805
 IR Inten    --     18.1222               110.2694                 5.7553

                     34                     35                     36
                      A                      A                      A
 Frequencies --   1267.0325              1296.3005              1356.6596
 Red. masses --      1.2728                 1.1604                 2.3437
 Frc consts  --      1.2039                 1.1489                 2.5415
 IR Inten    --      0.9763                 0.0011                 5.8644

                     37                     38                     39
                      A                      A                      A
 Frequencies --   1408.3161              1445.2698              1455.6313
 Red. masses --      2.4315                 1.4170                 3.4338
 Frc consts  --      2.8414                 1.7439                 4.2867
 IR Inten    --      9.0059                10.2257                10.0827

                     40                     41                     42
                      A                      A                      A
 Frequencies --   1507.9875              1523.6232              1533.4095
 Red. masses --      1.1116                 1.0380                 1.1025
 Frc consts  --      1.4893                 1.4197                 1.5274
 IR Inten    --      1.8406                 6.2812                 3.8318

                     43                     44                     45
                      A                      A                      A
 Frequencies --   1537.2256              1581.6589              1624.6996
 Red. masses --      4.0791                 5.7939                 8.4942
 Frc consts  --      5.6793                 8.5398                13.2104
 IR Inten    --      0.1444                23.8463                66.0779

                     46                     47                     48
                      A                      A                      A
 Frequencies --   1690.2398              3042.7467              3069.7490
 Red. masses --      8.7013                 1.0602                 1.1020
 Frc consts  --     14.6464                 5.7830                 6.1183
 IR Inten    --     73.3881                13.6992                 9.9764

                     49                     50                     51
                      A                      A                      A
 Frequencies --   3072.3219              3143.7218              3149.9762
 Red. masses --      1.0352                 1.1034                 1.1033
 Frc consts  --      5.7574                 6.4250                 6.4499
 IR Inten    --     23.5341                24.8370                18.2341

                     52                     53                     54
                      A                      A                      A
 Frequencies --   3290.0572              3309.5537              3314.8888
 Red. masses --      1.0911                 1.0979                 1.1073
 Frc consts  --      6.9584                 7.0855                 7.1687
 IR Inten    --      0.8504                 0.7963                 0.6493

 - Thermochemistry -
 -------------------
 Temperature   298.150 Kelvin.  Pressure   1.00000 Atm.
 Atom     1 has atomic number  6 and mass  12.00000

 Molecular mass:   164.05858 amu.
 Principal axes and moments of inertia in atomic units:
                           1         2         3
     Eigenvalues --   486.764444032.110604496.62041
           X            0.99991  -0.01327   0.00000
           Y            0.01327   0.99991   0.00000
           Z           -0.00000  -0.00000   1.00000
 This molecule is an asymmetric top.
 Rotational symmetry number  1.
 Warning -- assumption of classical behavior for rotation
           may cause significant error
 Rotational temperatures (Kelvin)      0.17794     0.02148     0.01926
 Rotational constants (GHZ):           3.70763     0.44759     0.40136
 Zero-point vibrational energy     404770.3 (Joules/Mol)
                                   96.74243 (Kcal/Mol)
 Warning -- explicit consideration of  12 degrees of freedom as
           vibrations may cause significant error
 Vibrational temperatures:     60.71    91.12   136.54   158.56   273.56
          (Kelvin)            294.59   381.59   460.40   533.16   629.40
                              762.39   885.99   916.01   955.78   990.29
                             1042.07  1066.33  1144.26  1170.67  1245.58
                             1288.17  1346.60  1401.13  1430.14  1468.97
                             1500.57  1528.50  1592.35  1602.00  1624.24
                             1651.17  1742.51  1790.23  1822.98  1865.09
                             1951.93  2026.25  2079.42  2094.33  2169.66
                             2192.15  2206.23  2211.72  2275.65  2337.58
                             2431.88  4377.83  4416.68  4420.39  4523.11
                             4532.11  4733.66  4761.71  4769.39

 Zero-point correction=                           0.154169 (Hartree/Particle)
 Thermal correction to Energy=                    0.164355
 Thermal correction to Enthalpy=                  0.165299
 Thermal correction to Gibbs Free Energy=         0.117020
 Sum of electronic and zero-point Energies=           -569.451681
 Sum of electronic and thermal Energies=              -569.441494
 Sum of electronic and thermal Enthalpies=            -569.440550
 Sum of electronic and thermal Free Energies=         -569.488830

                     E (Thermal)             CV                S
                      KCal/Mol        Cal/Mol-Kelvin    Cal/Mol-Kelvin
 Total                  103.134             37.350            101.613
 Electronic               0.000              0.000              0.000
 Translational            0.889              2.981             41.194
 Rotational               0.889              2.981             30.557
 Vibrational            101.357             31.388             29.862
 Vibration     1          0.595              1.980              5.153
 Vibration     2          0.597              1.972              4.351
 Vibration     3          0.603              1.953              3.556
 Vibration     4          0.606              1.941              3.265
 Vibration     5          0.633              1.853              2.227
 Vibration     6          0.640              1.833              2.090
 Vibration     7          0.671              1.737              1.627
 Vibration     8          0.706              1.635              1.310
 Vibration     9          0.743              1.533              1.077
 Vibration    10          0.798              1.389              0.835
 Vibration    11          0.885              1.184              0.587
 Vibration    12          0.975              0.998              0.423

 Optimization completed.
    -- Stationary point found.
 Normal termination of Gaussian 16 at Wed Dec  9 17:28:29 2020.

 ----------------------------------------------------------------------
 # B3LYP/6-311++G(d,p) empiricaldispersion=gd3bj scf=xqc pop=npa geom=c
 heck
 ----------------------------------------------------------------------

 ---------------------------------------
 CID_130676312_JID_2475_Energie_neutraal
 ---------------------------------------
 Structure from the checkpoint file:  "JID_2475.chk"
 Charge =  0 Multiplicity = 1

 SCF Done:  E(RB3LYP) =  -569.759196773     A.U. after   14 cycles
 Normal termination of Gaussian 16 at Wed Dec  9 17:29:41 2020.

 ----------------------------------------------------------------------
 # B3LYP/6-311++G(d,p) empiricaldispersion=gd3bj scf=xqc pop=npa geom=c
 heck
 ----------------------------------------------------------------------

 -------------------------------------
 CID_130676312_JID_2475_Energie_kation
 -------------------------------------
 Structure from the checkpoint file:  "JID_2475.chk"
 Charge =  1 Multiplicity = 2

 SCF Done:  E(UB3LYP) =  -569.443983334     A.U. after   21 cycles
 Normal termination of Gaussian 16 at Wed Dec  9 17:32:35 2020.
 Gaussian 16:  ES64L-G16RevA.03 25-Dec-2016

 ----------------------------------------------------------------------
 # B3LYP/6-311++G(d,p) empiricaldispersion=gd3bj scf=xqc pop=npa geom=c
 heck
 ----------------------------------------------------------------------

 ------------------------------------
 CID_130676312_JID_2475_Energie_anion
 ------------------------------------
 Structure from the checkpoint file:  "JID_2475.chk"
 Charge = -1 Multiplicity = 2

                         Standard orientation:
 ---------------------------------------------------------------------
 Center     Atomic      Atomic             Coordinates (Angstroms)
 Number     Number       Type             X           Y           Z
 ---------------------------------------------------------------------
      1          6           0        4.446557   -0.078285    0.000089
      2          6           0        3.171767   -0.925328   -0.000051
      3          6           0        1.938360   -0.091305   -0.000027
      4          7           0        1.819756    1.198080   -0.000028
      5          7           0        0.447282    1.477797   -0.000025
      6          6           0       -0.158835    0.328303   -0.000010
      7          8           0        0.721043   -0.721881   -0.000013
      8          6           0       -1.575301    0.061878   -0.000001
      9          6           0       -2.195980   -1.157905   -0.000000
     10          8           0       -3.543069   -0.997606    0.000023
     11          6           0       -3.789273    0.350199    0.000018
     12          6           0       -2.625687    1.047748    0.000008
     13          1           0        4.486003    0.566955   -0.881732
     14          1           0        5.327751   -0.726752   -0.000161
     15          1           0        4.486166    0.566477    0.882252
     16          1           0        3.145398   -1.586572   -0.876472
     17          1           0        3.145324   -1.586777    0.876212
     18          1           0       -1.830553   -2.172424   -0.000003
     19          1           0       -4.830074    0.632970    0.000030
     20          1           0       -2.492722    2.119044    0.000010
 ---------------------------------------------------------------------

 SCF Done:  E(UB3LYP) =  -569.746544343     A.U. after   33 cycles
 SCF Done:  E(UB3LYP) =  -569.746544343     a.u. after    1 cycles

 The electronic state is 2-A.
 Alpha  occ. eigenvalues --  -19.03614 -19.03609 -14.17770 -14.15813 -10.09897
 Alpha  occ. eigenvalues --  -10.08804 -10.08401 -10.06734 -10.05669 -10.05574
 Alpha  occ. eigenvalues --  -10.03731 -10.02660  -0.98907  -0.96671  -0.81183
 Alpha  occ. eigenvalues --   -0.70681  -0.66656  -0.63196  -0.60471  -0.53940
 Alpha  occ. eigenvalues --   -0.50403  -0.45247  -0.43846  -0.42177  -0.39767
 Alpha  occ. eigenvalues --   -0.35786  -0.35335  -0.32168  -0.31326  -0.30901
 Alpha  occ. eigenvalues --   -0.29749  -0.27708  -0.26898  -0.25672  -0.25113
 Alpha  occ. eigenvalues --   -0.24647  -0.23054  -0.18672  -0.16997  -0.16416
 Alpha  occ. eigenvalues --   -0.12225  -0.11826  -0.08439   0.06945
 Alpha virt. eigenvalues --    0.07683   0.09197   0.09855   0.10569   0.11462
 Alpha virt. eigenvalues --    0.12071   0.12511   0.13532   0.14083   0.15801
 Alpha virt. eigenvalues --    0.15902   0.17009   0.17024   0.17656   0.18257

  Beta  occ. eigenvalues --  -19.03400 -19.03340 -14.17862 -14.15625 -10.09637
  Beta  occ. eigenvalues --  -10.08518 -10.08420 -10.06753 -10.05669 -10.05094
  Beta  occ. eigenvalues --  -10.03748 -10.02632  -0.98554  -0.96197  -0.80951
  Beta  occ. eigenvalues --   -0.70301  -0.66482  -0.63087  -0.60027  -0.53846
  Beta  occ. eigenvalues --   -0.49948  -0.44894  -0.43714  -0.41796  -0.39558
  Beta  occ. eigenvalues --   -0.35268  -0.35180  -0.31357  -0.31047  -0.29825
  Beta  occ. eigenvalues --   -0.29613  -0.27546  -0.26762  -0.25556  -0.24950
  Beta  occ. eigenvalues --   -0.24450  -0.22835  -0.17825  -0.16371  -0.15849
  Beta  occ. eigenvalues --   -0.12011  -0.11028  -0.06716
  Beta virt. eigenvalues --    0.07724   0.09126   0.09921   0.10662   0.11325
  Beta virt. eigenvalues --    0.11951   0.12403   0.12991   0.14065   0.14649
  Beta virt. eigenvalues --    0.15636   0.16122   0.16797   0.17469   0.17880

 Mulliken charges and spin densities:
               1          2
     1  C   -0.680446   0.039297
     2  C   -0.015710  -0.205768
     3  C    0.258545   0.127898
     4  N   -0.084125  -0.046879
     5  N   -0.168904   0.095699
     6  C   -0.340023   0.154126
     7  O   -0.092608   0.053123
     8  C    0.050304  -0.097419
     9  C   -0.770806   0.495348
    10  O   -0.031469   0.018737
    11  C   -0.420086   0.012638
    12  C    0.452725   0.037188
    13  H    0.154689   0.002250
    14  H    0.120203   0.000061
    15  H    0.155389   0.001498
    16  H   -0.018381   0.169555
    17  H   -0.022500   0.173917
    18  H    0.155926  -0.032485
    19  H    0.131166  -0.000094
    20  H    0.166111   0.001310
 Sum of Mulliken charges =  -1.00000   1.00000

 Dipole moment (field-independent basis, Debye):
    X=              0.3714    Y=             -1.0437    Z=             -0.0193  Tot=              1.1080
 Quadrupole moment (field-independent basis, Debye-Ang):
   XX=           -102.7858   YY=            -89.1833   ZZ=            -81.5309
   XY=             -6.9395   XZ=              0.0611   YZ=              0.0618

 Summary of Natural Population Analysis:

                                       Natural Population
                Natural  -----------------------------------------------
    Atom  No    Charge         Core      Valence    Rydberg      Total
 -----------------------------------------------------------------------
      C    1   -0.28265      0.99967     2.27704    0.00594     3.28265
      C    2   -0.23519      0.99967     2.22373    0.01178     3.23519
      C    3    0.34103      0.99960     1.63650    0.02286     2.65897
      N    4   -0.21591      0.99969     2.69672    0.01950     3.71591
      N    5   -0.16020      0.99967     2.64782    0.01271     3.66020
      C    6    0.28217      0.99954     1.69265    0.02564     2.71783
      O    7   -0.23904      0.99986     3.22823    0.01095     4.23904
      C    8   -0.11015      0.99950     2.09891    0.01175     3.11015
      C    9    0.16720      0.99950     1.81560    0.01771     2.83280
      O   10   -0.21883      0.99987     3.21017    0.00878     4.21883
      C   11    0.03197      0.99953     1.95403    0.01447     2.96803
      C   12   -0.13732      0.99954     2.13015    0.00763     3.13732
      H   13    0.10167      0.00000     0.39737    0.00096     0.39833
      H   14    0.08977      0.00000     0.40934    0.00089     0.41023
      H   15    0.10165      0.00000     0.39739    0.00096     0.39835
      H   16    0.10544      0.00000     0.39230    0.00226     0.39456
      H   17    0.10548      0.00000     0.39225    0.00228     0.39452
      H   18    0.08738      0.00000     0.41180    0.00082     0.41262
      H   19    0.08564      0.00000     0.41335    0.00102     0.41436
      H   20    0.10915      0.00000     0.39003    0.00082     0.39085
 =======================================================================
   * Total *    0.00925     11.99565    30.81539    0.17971    42.99075

 Normal termination of Gaussian 16 at Wed Dec  9 17:36:40 2020.
