 Gaussian 16, Revision A.03,

 -----------------------------------------------------------
 # opt freq B3LYP/6-31G(d) empiricaldispersion=gd3bj scf=xqc
 -----------------------------------------------------------

 -------------------------------
 CID_120162361_JID_8457_neutraal
 -------------------------------
 Symbolic Z-matrix:
 Charge =  0 Multiplicity = 1

 SCF Done:  E(RB3LYP) =  -858.596358467     A.U. after   15 cycles
 SCF Done:  E(RB3LYP) =  -858.603724619     A.U. after   12 cycles
 SCF Done:  E(RB3LYP) =  -858.604978334     A.U. after   13 cycles
 SCF Done:  E(RB3LYP) =  -858.605417042     A.U. after   12 cycles
 SCF Done:  E(RB3LYP) =  -858.603568164     A.U. after   13 cycles
 SCF Done:  E(RB3LYP) =  -858.605758292     A.U. after   12 cycles
 SCF Done:  E(RB3LYP) =  -858.605998192     A.U. after   12 cycles
 SCF Done:  E(RB3LYP) =  -858.606249639     A.U. after   12 cycles
 SCF Done:  E(RB3LYP) =  -858.606317930     A.U. after   12 cycles
 SCF Done:  E(RB3LYP) =  -858.606393154     A.U. after   11 cycles
 SCF Done:  E(RB3LYP) =  -858.613670483     A.U. after    8 cycles
 SCF Done:  E(RB3LYP) =  -858.613670739     A.U. after    8 cycles
 SCF Done:  E(RB3LYP) =  -858.613670919     A.U. after    8 cycles
 SCF Done:  E(RB3LYP) =  -858.613671055     A.U. after    8 cycles
 SCF Done:  E(RB3LYP) =  -858.613671094     A.U. after    7 cycles
 Optimization completed.
    -- Stationary point found.
 Normal termination of Gaussian 16 at Fri Dec 11 20:52:32 2020.

 --------------------------------------------------------------------
 #N Geom=AllCheck Guess=TCheck SCRF=Check GenChk RB3LYP/6-31G(d) Freq
 --------------------------------------------------------------------

 Structure from the checkpoint file:  "JID_8457.chk"
 -------------------------------
 CID_120162361_JID_8457_neutraal
 -------------------------------
 Charge =  0 Multiplicity = 1

 SCF Done:  E(RB3LYP) =  -858.613671094     A.U. after    1 cycles

  Exact polarizability: 210.480   6.860 148.439  -8.823  -2.826 104.506
 Approx polarizability: 252.263   6.918 245.805 -16.305  -7.066 160.126

                      1                      2                      3
                      A                      A                      A
 Frequencies --     14.3937                28.2386                37.7194
 Red. masses --      4.2381                 3.4539                 4.9664
 Frc consts  --      0.0005                 0.0016                 0.0042
 IR Inten    --      1.2496                 1.0788                 1.3749

                      4                      5                      6
                      A                      A                      A
 Frequencies --     44.2114                60.4415                75.5664
 Red. masses --      4.6587                 4.5672                 3.4675
 Frc consts  --      0.0054                 0.0098                 0.0117
 IR Inten    --      0.4383                 1.7977                 5.0790

                      7                      8                      9
                      A                      A                      A
 Frequencies --     99.4234               107.1562               117.7249
 Red. masses --      3.3311                 3.9691                 3.7083
 Frc consts  --      0.0194                 0.0269                 0.0303
 IR Inten    --      1.9911                 0.0377                 1.0431

                     10                     11                     12
                      A                      A                      A
 Frequencies --    127.1746               156.8357               216.0953
 Red. masses --      3.2367                 3.3253                 1.5396
 Frc consts  --      0.0308                 0.0482                 0.0424
 IR Inten    --      3.4125                 1.7410                 9.4414

                     13                     14                     15
                      A                      A                      A
 Frequencies --    229.9943               239.1708               250.0541
 Red. masses --      3.4263                 3.1865                 2.5648
 Frc consts  --      0.1068                 0.1074                 0.0945
 IR Inten    --      1.5292                10.0640                 3.7752

                     16                     17                     18
                      A                      A                      A
 Frequencies --    282.7887               336.4529               368.0845
 Red. masses --      3.3339                 2.7095                 2.3101
 Frc consts  --      0.1571                 0.1807                 0.1844
 IR Inten    --     11.0937                 5.3526                 3.3477

                     19                     20                     21
                      A                      A                      A
 Frequencies --    370.2977               386.9545               407.9747
 Red. masses --      2.9209                 3.8877                 4.3658
 Frc consts  --      0.2360                 0.3430                 0.4281
 IR Inten    --      1.4625                 2.5927                 0.1352

                     22                     23                     24
                      A                      A                      A
 Frequencies --    440.3348               513.6242               537.2560
 Red. masses --      4.5285                 2.7224                 4.1148
 Frc consts  --      0.5173                 0.4232                 0.6998
 IR Inten    --      1.3527                 3.0885                 8.1147

                     25                     26                     27
                      A                      A                      A
 Frequencies --    580.3013               620.1788               659.5994
 Red. masses --      3.2385                 5.1075                 4.1621
 Frc consts  --      0.6425                 1.1574                 1.0669
 IR Inten    --      8.7715                 1.4396                17.6280

                     28                     29                     30
                      A                      A                      A
 Frequencies --    673.5089               700.1437               731.8721
 Red. masses --      2.7214                 4.9246                 1.5281
 Frc consts  --      0.7273                 1.4223                 0.4823
 IR Inten    --      6.1121                 0.2095               131.9836

                     31                     32                     33
                      A                      A                      A
 Frequencies --    763.7124               801.7810               805.0089
 Red. masses --      2.7534                 1.0812                 1.7389
 Frc consts  --      0.9462                 0.4095                 0.6639
 IR Inten    --      3.9238                 1.1885                54.3709

                     34                     35                     36
                      A                      A                      A
 Frequencies --    829.4316               832.2366               838.8731
 Red. masses --      1.6857                 1.4491                 1.7277
 Frc consts  --      0.6833                 0.5913                 0.7163
 IR Inten    --     17.3815                62.1283                16.1299

                     37                     38                     39
                      A                      A                      A
 Frequencies --    856.8793               910.0430               915.9373
 Red. masses --      1.9914                 2.5777                 2.6737
 Frc consts  --      0.8615                 1.2578                 1.3216
 IR Inten    --     52.2850                 2.7129                 0.0214

                     40                     41                     42
                      A                      A                      A
 Frequencies --    919.2199               941.5307               957.5144
 Red. masses --      3.5115                 1.7748                11.4169
 Frc consts  --      1.7481                 0.9270                 6.1672
 IR Inten    --     21.4913                15.4692                29.0476

                     43                     44                     45
                      A                      A                      A
 Frequencies --   1010.5352              1012.1997              1030.2789
 Red. masses --      5.0278                 4.1642                 3.1048
 Frc consts  --      3.0250                 2.5137                 1.9417
 IR Inten    --     49.5895                 3.5179                16.7583

                     46                     47                     48
                      A                      A                      A
 Frequencies --   1056.1094              1071.6502              1080.5135
 Red. masses --      1.7611                 1.3713                 1.3170
 Frc consts  --      1.1573                 0.9279                 0.9060
 IR Inten    --      8.2350                 9.9001                 8.6099

                     49                     50                     51
                      A                      A                      A
 Frequencies --   1090.0514              1106.7983              1129.3782
 Red. masses --      1.3181                 2.2014                 2.2743
 Frc consts  --      0.9228                 1.5889                 1.7091
 IR Inten    --      3.9401                17.9552                13.5054

                     52                     53                     54
                      A                      A                      A
 Frequencies --   1132.3811              1155.6245              1164.7529
 Red. masses --      1.1075                 3.6355                 2.1542
 Frc consts  --      0.8367                 2.8606                 1.7219
 IR Inten    --      1.1800                93.8269                41.2439

                     55                     56                     57
                      A                      A                      A
 Frequencies --   1171.2095              1187.5429              1198.4589
 Red. masses --      2.8692                 2.3038                 1.5918
 Frc consts  --      2.3189                 1.9142                 1.3470
 IR Inten    --      8.2917                44.1132                15.7861

                     58                     59                     60
                      A                      A                      A
 Frequencies --   1216.0773              1221.4799              1233.5357
 Red. masses --      1.3844                 3.8294                 1.3821
 Frc consts  --      1.2062                 3.3663                 1.2390
 IR Inten    --      0.6455                 0.9796                15.3594

                     61                     62                     63
                      A                      A                      A
 Frequencies --   1239.2037              1263.0766              1278.6456
 Red. masses --      2.0231                 1.1694                 1.3214
 Frc consts  --      1.8304                 1.0992                 1.2728
 IR Inten    --      1.6460                 7.4964                21.6958

                     64                     65                     66
                      A                      A                      A
 Frequencies --   1291.3895              1325.2285              1372.5547
 Red. masses --      1.3004                 1.2614                 2.0781
 Frc consts  --      1.2777                 1.3052                 2.3066
 IR Inten    --     35.6400                 2.7117               193.5689

                     67                     68                     69
                      A                      A                      A
 Frequencies --   1392.8839              1401.8838              1413.0209
 Red. masses --      1.3864                 1.3626                 1.3855
 Frc consts  --      1.5848                 1.5778                 1.6298
 IR Inten    --     12.4990                17.1046                14.4503

                     70                     71                     72
                      A                      A                      A
 Frequencies --   1429.8748              1433.1801              1495.5668
 Red. masses --      1.9669                 1.4200                 1.0869
 Frc consts  --      2.3694                 1.7184                 1.4323
 IR Inten    --      0.7231                 6.5110                 2.0540

                     73                     74                     75
                      A                      A                      A
 Frequencies --   1501.4238              1502.4900              1512.0009
 Red. masses --      1.8496                 1.1887                 1.2363
 Frc consts  --      2.4566                 1.5810                 1.6653
 IR Inten    --      2.4183                 0.4800                14.0614

                     76                     77                     78
                      A                      A                      A
 Frequencies --   1513.7213              1518.1791              1529.7716
 Red. masses --      2.3833                 1.0519                 1.3006
 Frc consts  --      3.2175                 1.4284                 1.7933
 IR Inten    --     67.3883                 8.5913                46.6089

                     79                     80                     81
                      A                      A                      A
 Frequencies --   1531.3487              1535.1979              1547.3556
 Red. masses --      1.4291                 1.4965                 1.2406
 Frc consts  --      1.9746                 2.0781                 1.7501
 IR Inten    --    103.2754                 3.0709                11.2921

                     82                     83                     84
                      A                      A                      A
 Frequencies --   1550.7881              1553.7322              1560.5188
 Red. masses --      1.1359                 1.2146                 1.2655
 Frc consts  --      1.6095                 1.7276                 1.8158
 IR Inten    --      4.6457                 5.9247                36.5024

                     85                     86                     87
                      A                      A                      A
 Frequencies --   1643.7517              1751.9494              2997.9677
 Red. masses --      8.0464                 5.6559                 1.0551
 Frc consts  --     12.8093                10.2282                 5.5872
 IR Inten    --     73.4411               275.5131                21.6694

                     88                     89                     90
                      A                      A                      A
 Frequencies --   3003.2386              3011.0474              3041.8947
 Red. masses --      1.0649                 1.0396                 1.1029
 Frc consts  --      5.6591                 5.5532                 6.0129
 IR Inten    --     16.8675                96.7717                89.5626

                     91                     92                     93
                      A                      A                      A
 Frequencies --   3045.2234              3053.9073              3061.4008
 Red. masses --      1.0976                 1.0642                 1.1062
 Frc consts  --      5.9968                 5.8478                 6.1081
 IR Inten    --     73.2974                44.5347                51.8189

                     94                     95                     96
                      A                      A                      A
 Frequencies --   3076.7294              3111.0792              3154.3814
 Red. masses --      1.0714                 1.1003                 1.0503
 Frc consts  --      5.9756                 6.2744                 6.1572
 IR Inten    --     36.7134                40.3472                15.7360

                     97                     98                     99
                      A                      A                      A
 Frequencies --   3157.3781              3159.1643              3163.6160
 Red. masses --      1.0587                 1.0990                 1.0960
 Frc consts  --      6.2184                 6.4623                 6.4628
 IR Inten    --      8.2002                 7.0641                 6.4286

                    100                    101                    102
                      A                      A                      A
 Frequencies --   3196.1435              3232.5467              3247.1226
 Red. masses --      1.0900                 1.1208                 1.1164
 Frc consts  --      6.5605                 6.9002                 6.9356
 IR Inten    --      2.5877                 0.2370                15.0450

                    103                    104                    105
                      A                      A                      A
 Frequencies --   3312.3077              3490.7587              3508.6867
 Red. masses --      1.0983                 1.0764                 1.0732
 Frc consts  --      7.0994                 7.7277                 7.7842
 IR Inten    --      4.0632               326.2714                 3.7636

 - Thermochemistry -
 -------------------
 Temperature   298.150 Kelvin.  Pressure   1.00000 Atm.
 Atom     1 has atomic number  6 and mass  12.00000

 Molecular mass:   253.14264 amu.
 Principal axes and moments of inertia in atomic units:
                           1         2         3
     Eigenvalues --  1877.27600********************
           X            0.99999   0.00407  -0.00048
           Y           -0.00408   0.99983  -0.01774
           Z            0.00041   0.01774   0.99984
 This molecule is an asymmetric top.
 Rotational symmetry number  1.
 Warning -- assumption of classical behavior for rotation
           may cause significant error
 Rotational temperatures (Kelvin)      0.04614     0.00853     0.00765
 Rotational constants (GHZ):           0.96136     0.17764     0.15936
 Zero-point vibrational energy     826426.1 (Joules/Mol)
                                  197.52057 (Kcal/Mol)
 Warning -- explicit consideration of  26 degrees of freedom as
           vibrations may cause significant error
 Vibrational temperatures:     20.71    40.63    54.27    63.61    86.96
          (Kelvin)            108.72   143.05   154.17   169.38   182.98
                              225.65   310.91   330.91   344.11   359.77
                              406.87   484.08   529.59   532.78   556.74
                              586.98   633.54   738.99   772.99   834.92
                              892.30   949.02   969.03  1007.35  1053.00
                             1098.81  1153.58  1158.23  1193.37  1197.40
                             1206.95  1232.86  1309.35  1317.83  1322.55
                             1354.65  1377.65  1453.93  1456.33  1482.34
                             1519.51  1541.87  1554.62  1568.34  1592.44
                             1624.92  1629.24  1662.69  1675.82  1685.11
                             1708.61  1724.32  1749.66  1757.44  1774.78
                             1782.94  1817.29  1839.69  1858.02  1906.71
                             1974.80  2004.05  2017.00  2033.02  2057.27
                             2062.03  2151.79  2160.21  2161.75  2175.43
                             2177.91  2184.32  2201.00  2203.27  2208.81
                             2226.30  2231.24  2235.47  2245.24  2364.99
                             2520.66  4313.41  4320.99  4332.23  4376.61
                             4381.40  4393.89  4404.67  4426.73  4476.15
                             4538.45  4542.76  4545.33  4551.74  4598.54
                             4650.91  4671.89  4765.67  5022.42  5048.22

 Zero-point correction=                           0.314769 (Hartree/Particle)
 Thermal correction to Energy=                    0.333151
 Thermal correction to Enthalpy=                  0.334095
 Thermal correction to Gibbs Free Energy=         0.264851
 Sum of electronic and zero-point Energies=           -858.298902
 Sum of electronic and thermal Energies=              -858.280520
 Sum of electronic and thermal Enthalpies=            -858.279576
 Sum of electronic and thermal Free Energies=         -858.348820

                     E (Thermal)             CV                S
                      KCal/Mol        Cal/Mol-Kelvin    Cal/Mol-Kelvin
 Total                  209.056             66.982            145.737
 Electronic               0.000              0.000              0.000
 Translational            0.889              2.981             42.487
 Rotational               0.889              2.981             33.734
 Vibrational            207.278             61.020             69.516
 Vibration     1          0.593              1.986              7.288
 Vibration     2          0.593              1.984              5.949
 Vibration     3          0.594              1.982              5.375
 Vibration     4          0.595              1.980              5.061
 Vibration     5          0.597              1.973              4.443
 Vibration     6          0.599              1.965              4.003
 Vibration     7          0.604              1.950              3.466
 Vibration     8          0.606              1.944              3.320
 Vibration     9          0.608              1.935              3.137
 Vibration    10          0.611              1.926              2.988
 Vibration    11          0.621              1.895              2.588
 Vibration    12          0.645              1.817              1.992
 Vibration    13          0.652              1.795              1.879
 Vibration    14          0.657              1.781              1.809
 Vibration    15          0.663              1.763              1.730
 Vibration    16          0.682              1.706              1.517
 Vibration    17          0.717              1.603              1.229
 Vibration    18          0.741              1.538              1.088
 Vibration    19          0.742              1.533              1.079
 Vibration    20          0.755              1.498              1.012
 Vibration    21          0.773              1.453              0.934
 Vibration    22          0.800              1.382              0.826
 Vibration    23          0.869              1.220              0.625
 Vibration    24          0.892              1.168              0.571
 Vibration    25          0.937              1.074              0.485
 Vibration    26          0.980              0.989              0.416

 Optimization completed.
    -- Stationary point found.
 Normal termination of Gaussian 16 at Fri Dec 11 21:06:13 2020.

 ----------------------------------------------------------------------
 # B3LYP/6-311++G(d,p) empiricaldispersion=gd3bj scf=xqc pop=npa geom=c
 heck
 ----------------------------------------------------------------------

 ---------------------------------------
 CID_120162361_JID_8457_Energie_neutraal
 ---------------------------------------
 Structure from the checkpoint file:  "JID_8457.chk"
 Charge =  0 Multiplicity = 1

 SCF Done:  E(RB3LYP) =  -858.859574227     A.U. after   16 cycles
 Normal termination of Gaussian 16 at Fri Dec 11 21:12:09 2020.

 ----------------------------------------------------------------------
 # B3LYP/6-311++G(d,p) empiricaldispersion=gd3bj scf=xqc pop=npa geom=c
 heck
 ----------------------------------------------------------------------

 -------------------------------------
 CID_120162361_JID_8457_Energie_kation
 -------------------------------------
 Structure from the checkpoint file:  "JID_8457.chk"
 Charge =  1 Multiplicity = 2

 SCF Done:  E(UB3LYP) =  -858.566535993     A.U. after   29 cycles
 Normal termination of Gaussian 16 at Fri Dec 11 21:27:30 2020.
 Gaussian 16:  ES64L-G16RevA.03 25-Dec-2016

 ----------------------------------------------------------------------
 # B3LYP/6-311++G(d,p) empiricaldispersion=gd3bj scf=xqc pop=npa geom=c
 heck
 ----------------------------------------------------------------------

 ------------------------------------
 CID_120162361_JID_8457_Energie_anion
 ------------------------------------
 Structure from the checkpoint file:  "JID_8457.chk"
 Charge = -1 Multiplicity = 2

                         Standard orientation:
 ---------------------------------------------------------------------
 Center     Atomic      Atomic             Coordinates (Angstroms)
 Number     Number       Type             X           Y           Z
 ---------------------------------------------------------------------
      1          6           0        3.754007   -2.550731    0.200804
      2          8           0        3.709620   -1.177988   -0.145649
      3          6           0        4.640674   -0.343745    0.531132
      4          6           0        4.158914    1.090991    0.372392
      5          7           0        2.875266    1.276468    1.056580
      6          6           0        1.881657    2.075054    0.342649
      7          6           0        1.445702    1.518416   -1.035145
      8          7           0        1.223509    0.075831   -1.001074
      9          6           0        0.148044   -0.642311   -0.587820
     10          8           0        0.209754   -1.863000   -0.418872
     11          6           0       -1.173436    0.029070   -0.359413
     12          7           0       -1.362477    1.332565   -0.279457
     13          8           0       -2.724801    1.489924   -0.019911
     14          6           0       -3.317978    0.272162    0.052029
     15          6           0       -2.378393   -0.696014   -0.152238
     16          6           0       -4.760276    0.267227    0.322062
     17          6           0       -5.636969   -0.801322   -0.308494
     18          6           0       -5.360764   -0.846557    1.162922
     19          1           0        2.872993   -3.010316   -0.251701
     20          1           0        3.706279   -2.683945    1.291428
     21          1           0        4.668744   -3.032152   -0.175191
     22          1           0        4.674098   -0.612205    1.599045
     23          1           0        5.651404   -0.470251    0.114540
     24          1           0        4.914667    1.770639    0.790228
     25          1           0        4.103204    1.305038   -0.706561
     26          1           0        2.466531    0.358241    1.213559
     27          1           0        0.994379    2.142908    0.980475
     28          1           0        2.262413    3.095801    0.209921
     29          1           0        0.541692    2.027885   -1.368293
     30          1           0        2.221393    1.689824   -1.788600
     31          1           0        2.072411   -0.488363   -0.981054
     32          1           0       -2.484405   -1.768591   -0.156692
     33          1           0       -5.185934    1.259500    0.432571
     34          1           0       -6.623873   -0.499089   -0.645882
     35          1           0       -5.142786   -1.525974   -0.948901
     36          1           0       -4.676114   -1.602205    1.536671
     37          1           0       -6.154853   -0.575714    1.852266
 ---------------------------------------------------------------------

 SCF Done:  E(UB3LYP) =  -858.851795585     A.U. after   33 cycles
 SCF Done:  E(UB3LYP) =  -858.851795585     a.u. after    1 cycles

 The electronic state is 2-A.
 Alpha  occ. eigenvalues --  -19.08402 -19.04705 -18.96170 -14.22765 -14.21292
 Alpha  occ. eigenvalues --  -14.20133 -10.15072 -10.13413 -10.12693 -10.12466
 Alpha  occ. eigenvalues --  -10.10629 -10.10220 -10.09774 -10.09322 -10.09277
 Alpha  occ. eigenvalues --  -10.09019 -10.08546 -10.05956  -1.02297  -0.95805
 Alpha  occ. eigenvalues --   -0.91500  -0.82245  -0.79462  -0.78403  -0.74807
 Alpha  occ. eigenvalues --   -0.67762  -0.67486  -0.62547  -0.58580  -0.55547
 Alpha  occ. eigenvalues --   -0.54270  -0.52426  -0.52035  -0.50932  -0.47258
 Alpha  occ. eigenvalues --   -0.45400  -0.42186  -0.41331  -0.40568  -0.40120
 Alpha  occ. eigenvalues --   -0.39715  -0.38145  -0.36324  -0.35855  -0.35175
 Alpha  occ. eigenvalues --   -0.34933  -0.34104  -0.33663  -0.31042  -0.30317
 Alpha  occ. eigenvalues --   -0.29624  -0.29352  -0.28683  -0.28106  -0.27514
 Alpha  occ. eigenvalues --   -0.27251  -0.26783  -0.25392  -0.23685  -0.23442
 Alpha  occ. eigenvalues --   -0.22769  -0.18880  -0.18571  -0.18188  -0.15100
 Alpha  occ. eigenvalues --   -0.14250  -0.13784  -0.12800   0.04220
 Alpha virt. eigenvalues --    0.05277   0.05765   0.07239   0.08025   0.08271
 Alpha virt. eigenvalues --    0.08474   0.08708   0.09966   0.10113   0.10702
 Alpha virt. eigenvalues --    0.10956   0.11450   0.11839   0.12189   0.12557

  Beta  occ. eigenvalues --  -19.08215 -19.04704 -18.96013 -14.22372 -14.21265
  Beta  occ. eigenvalues --  -14.20133 -10.14955 -10.13389 -10.12622 -10.12452
  Beta  occ. eigenvalues --  -10.10621 -10.10224 -10.09773 -10.09313 -10.09262
  Beta  occ. eigenvalues --  -10.08983 -10.08466 -10.05999  -1.01927  -0.95798
  Beta  occ. eigenvalues --   -0.91231  -0.82200  -0.79378  -0.78330  -0.74390
  Beta  occ. eigenvalues --   -0.67577  -0.67457  -0.62507  -0.58548  -0.55453
  Beta  occ. eigenvalues --   -0.54015  -0.52242  -0.51969  -0.50889  -0.47138
  Beta  occ. eigenvalues --   -0.45301  -0.42125  -0.41292  -0.40543  -0.40095
  Beta  occ. eigenvalues --   -0.39644  -0.38093  -0.36127  -0.35182  -0.35105
  Beta  occ. eigenvalues --   -0.34852  -0.33951  -0.33586  -0.30916  -0.30246
  Beta  occ. eigenvalues --   -0.29501  -0.29286  -0.28630  -0.27779  -0.27297
  Beta  occ. eigenvalues --   -0.27069  -0.26715  -0.25346  -0.23631  -0.23137
  Beta  occ. eigenvalues --   -0.22690  -0.18553  -0.18407  -0.17329  -0.14700
  Beta  occ. eigenvalues --   -0.14078  -0.12974  -0.12581
  Beta virt. eigenvalues --    0.06279   0.06371   0.07383   0.08115   0.08401
  Beta virt. eigenvalues --    0.08529   0.08762   0.09012   0.10026   0.10178
  Beta virt. eigenvalues --    0.10862   0.11184   0.11438   0.12008   0.12462

 Mulliken charges and spin densities:
               1          2
     1  C    0.002133  -0.268708
     2  O   -0.261159   0.042793
     3  C    0.558204  -0.934567
     4  C   -0.463182   0.130198
     5  N    0.029651  -0.013988
     6  C   -0.588875   0.124776
     7  C   -0.053196  -0.170142
     8  N   -0.272678   0.027861
     9  C    0.055678   0.042871
    10  O   -0.385971   0.053465
    11  C    0.315855  -0.092215
    12  N   -0.546876   0.186191
    13  O    0.279936   0.038171
    14  C   -0.298628  -0.222584
    15  C   -0.119697   0.039414
    16  C   -0.383576   0.476556
    17  C   -0.052112  -0.340322
    18  C    0.351720  -0.763733
    19  H    0.141647   0.030168
    20  H    0.046264   0.065823
    21  H   -0.102497   0.234339
    22  H    0.106988   0.047910
    23  H   -0.535040   0.692162
    24  H   -0.115269   0.282100
    25  H    0.149631  -0.012450
    26  H    0.285070  -0.041869
    27  H    0.200813  -0.000502
    28  H    0.110394   0.005404
    29  H    0.218939  -0.013889
    30  H    0.077379   0.077756
    31  H    0.404990   0.052146
    32  H    0.219244   0.004263
    33  H   -0.011229   0.276500
    34  H   -0.060015   0.207319
    35  H    0.100971   0.031135
    36  H    0.052282   0.083770
    37  H   -0.457788   0.621879
 Sum of Mulliken charges =  -1.00000   1.00000

 Dipole moment (field-independent basis, Debye):
    X=              1.0393    Y=              0.8587    Z=             -1.3967  Tot=              1.9412
 Quadrupole moment (field-independent basis, Debye-Ang):
   XX=           -229.1055   YY=           -135.7840   ZZ=           -131.3562
   XY=              7.3615   XZ=             11.7652   YZ=             -4.2039

 Summary of Natural Population Analysis:

                                       Natural Population
                Natural  -----------------------------------------------
    Atom  No    Charge         Core      Valence    Rydberg      Total
 -----------------------------------------------------------------------
      C    1   -0.09825      0.99961     2.08951    0.00912     3.09825
      O    2   -0.31201      0.99988     3.30024    0.01189     4.31201
      C    3   -0.01136      0.99958     1.99948    0.01231     3.01136
      C    4   -0.10027      0.99963     2.08791    0.01273     3.10027
      N    5   -0.34389      0.99975     2.83271    0.01143     3.84389
      C    6   -0.09087      0.99963     2.08250    0.00874     3.09087
      C    7   -0.10674      0.99962     2.09522    0.01190     3.10674
      N    8   -0.32277      0.99966     2.81254    0.01057     3.82277
      C    9    0.33996      0.99961     1.63991    0.02052     2.66004
      O   10   -0.32087      0.99988     3.31570    0.00528     4.32087
      C   11    0.04443      0.99956     1.94254    0.01347     2.95557
      N   12   -0.03717      0.99967     2.52440    0.01309     3.53717
      O   13   -0.15398      0.99985     3.14548    0.00864     4.15398
      C   14    0.17521      0.99947     1.80932    0.01600     2.82479
      C   15   -0.17505      0.99946     2.16838    0.00721     3.17505
      C   16   -0.13932      0.99956     2.12736    0.01240     3.13932
      C   17   -0.18953      0.99963     2.18201    0.00789     3.18953
      C   18   -0.18810      0.99963     2.18032    0.00815     3.18810
      H   19    0.10325      0.00000     0.39570    0.00105     0.39675
      H   20    0.07794      0.00000     0.42108    0.00098     0.42206
      H   21    0.07786      0.00000     0.42085    0.00130     0.42214
      H   22    0.08016      0.00000     0.41840    0.00144     0.41984
      H   23    0.08710      0.00000     0.41018    0.00272     0.41290
      H   24    0.09207      0.00000     0.40671    0.00122     0.40793
      H   25    0.08627      0.00000     0.41208    0.00165     0.41373
      H   26    0.17663      0.00000     0.32055    0.00283     0.32337
      H   27    0.10402      0.00000     0.39494    0.00105     0.39598
      H   28    0.08620      0.00000     0.41287    0.00093     0.41380
      H   29    0.11654      0.00000     0.38242    0.00104     0.38346
      H   30    0.08862      0.00000     0.41039    0.00099     0.41138
      H   31    0.20629      0.00000     0.29092    0.00280     0.29371
      H   32    0.11767      0.00000     0.38149    0.00084     0.38233
      H   33    0.11422      0.00000     0.38434    0.00144     0.38578
      H   34    0.10203      0.00000     0.39709    0.00088     0.39797
      H   35    0.10338      0.00000     0.39569    0.00093     0.39662
      H   36    0.10456      0.00000     0.39453    0.00090     0.39544
      H   37    0.10578      0.00000     0.39184    0.00238     0.39422
 =======================================================================
   * Total *   -0.00000     17.99370    49.77759    0.22871    68.00000

 Normal termination of Gaussian 16 at Fri Dec 11 21:45:34 2020.
