 Gaussian 16, Revision A.03,

 -----------------------------------------------------------
 # opt freq B3LYP/6-31G(d) empiricaldispersion=gd3bj scf=xqc
 -----------------------------------------------------------

 ----------------------------
 CID_592353_JID_1664_neutraal
 ----------------------------
 Symbolic Z-matrix:
 Charge =  0 Multiplicity = 1

 SCF Done:  E(RB3LYP) =  -531.551776410     A.U. after   15 cycles
 SCF Done:  E(RB3LYP) =  -531.555553641     A.U. after   12 cycles
 SCF Done:  E(RB3LYP) =  -531.556889095     A.U. after   13 cycles
 SCF Done:  E(RB3LYP) =  -531.557542049     A.U. after   12 cycles
 SCF Done:  E(RB3LYP) =  -531.557602736     A.U. after   13 cycles
 SCF Done:  E(RB3LYP) =  -531.557747277     A.U. after   12 cycles
 SCF Done:  E(RB3LYP) =  -531.557943033     A.U. after   12 cycles
 SCF Done:  E(RB3LYP) =  -531.557952988     A.U. after    9 cycles
 SCF Done:  E(RB3LYP) =  -531.557953967     A.U. after    8 cycles
 SCF Done:  E(RB3LYP) =  -531.557954152     A.U. after    8 cycles
 Optimization completed.
    -- Stationary point found.
 Normal termination of Gaussian 16 at Tue Dec  8 20:37:57 2020.

 --------------------------------------------------------------------
 #N Geom=AllCheck Guess=TCheck SCRF=Check GenChk RB3LYP/6-31G(d) Freq
 --------------------------------------------------------------------

 Structure from the checkpoint file:  "JID_1664.chk"
 ----------------------------
 CID_592353_JID_1664_neutraal
 ----------------------------
 Charge =  0 Multiplicity = 1

 SCF Done:  E(RB3LYP) =  -531.557954153     A.U. after    1 cycles

  Exact polarizability: 126.490  -0.374 103.489  -0.628   0.036  39.548
 Approx polarizability: 181.978  -4.422 188.120  -1.862   0.781  59.422

                      1                      2                      3
                      A                      A                      A
 Frequencies --     50.8092               103.0332               142.4774
 Red. masses --      5.9421                 2.9187                 1.2284
 Frc consts  --      0.0090                 0.0183                 0.0147
 IR Inten    --      1.3879                 1.7367                 0.0473

                      4                      5                      6
                      A                      A                      A
 Frequencies --    169.6746               189.0354               253.8054
 Red. masses --      3.9059                 3.9977                 3.3567
 Frc consts  --      0.0663                 0.0842                 0.1274
 IR Inten    --      0.4330                 1.6161                10.6423

                      7                      8                      9
                      A                      A                      A
 Frequencies --    297.2242               338.4360               356.6854
 Red. masses --      1.4557                 4.7726                 4.9235
 Frc consts  --      0.0758                 0.3221                 0.3691
 IR Inten    --    217.0954                36.0934                 6.5178

                     10                     11                     12
                      A                      A                      A
 Frequencies --    393.8657               412.5663               524.7702
 Red. masses --      4.0324                 3.3664                 2.5375
 Frc consts  --      0.3686                 0.3376                 0.4117
 IR Inten    --     16.4714                 7.6002                 3.6623

                     13                     14                     15
                      A                      A                      A
 Frequencies --    542.1820               563.9865               571.2070
 Red. masses --      1.3607                 7.5636                 2.9523
 Frc consts  --      0.2357                 1.4175                 0.5675
 IR Inten    --     23.2410                 0.8052                 7.0384

                     16                     17                     18
                      A                      A                      A
 Frequencies --    712.7177               727.7285               785.6099
 Red. masses --      6.7270                 6.0366                 6.1705
 Frc consts  --      2.0133                 1.8836                 2.2438
 IR Inten    --      2.7761                 1.0070                19.4840

                     19                     20                     21
                      A                      A                      A
 Frequencies --    815.1972               833.1888               891.0923
 Red. masses --      5.0069                 1.4498                 5.2053
 Frc consts  --      1.9604                 0.5930                 2.4352
 IR Inten    --      8.2743                18.4499                16.1104

                     22                     23                     24
                      A                      A                      A
 Frequencies --    966.8894               995.0926              1002.9047
 Red. masses --      1.3567                 7.5203                 1.4432
 Frc consts  --      0.7473                 4.3874                 0.8553
 IR Inten    --      0.1559                18.0453                 0.4429

                     25                     26                     27
                      A                      A                      A
 Frequencies --   1058.1940              1118.2001              1141.3263
 Red. masses --      2.4802                 1.6959                 3.3270
 Frc consts  --      1.6363                 1.2494                 2.5534
 IR Inten    --     19.5801                40.5144               193.5313

                     28                     29                     30
                      A                      A                      A
 Frequencies --   1185.5400              1219.9444              1236.5423
 Red. masses --      1.2700                 1.5390                 1.6268
 Frc consts  --      1.0517                 1.3495                 1.4655
 IR Inten    --      0.8669                62.6300                14.2632

                     31                     32                     33
                      A                      A                      A
 Frequencies --   1265.5239              1328.5781              1367.2588
 Red. masses --      4.2112                 2.2581                 4.1238
 Frc consts  --      3.9737                 2.3484                 4.5421
 IR Inten    --    279.7474                 8.5322                42.8111

                     34                     35                     36
                      A                      A                      A
 Frequencies --   1390.1240              1467.1880              1493.4169
 Red. masses --      1.7368                 2.4533                 1.3082
 Frc consts  --      1.9775                 3.1116                 1.7191
 IR Inten    --     27.0136                28.9150                14.0383

                     37                     38                     39
                      A                      A                      A
 Frequencies --   1509.8146              1526.3095              1542.9968
 Red. masses --      1.0484                 1.0489                 2.5055
 Frc consts  --      1.4080                 1.4397                 3.5145
 IR Inten    --      5.9725                 9.2481                60.0235

                     40                     41                     42
                      A                      A                      A
 Frequencies --   1609.8417              1650.4868              1680.3914
 Red. masses --      4.5971                 2.5735                 1.8396
 Frc consts  --      7.0195                 4.1305                 3.0605
 IR Inten    --     53.0884               142.3212               304.1836

                     43                     44                     45
                      A                      A                      A
 Frequencies --   1799.3223              3080.9346              3159.7602
 Red. masses --     11.2749                 1.0286                 1.1078
 Frc consts  --     21.5070                 5.7524                 6.5169
 IR Inten    --    277.0346                36.0454                17.8023

                     46                     47                     48
                      A                      A                      A
 Frequencies --   3171.3340              3181.9816              3193.5646
 Red. masses --      1.0875                 1.1081                 1.0943
 Frc consts  --      6.4441                 6.6103                 6.5759
 IR Inten    --     19.7834                15.8604                30.2989

                     49                     50                     51
                      A                      A                      A
 Frequencies --   3204.3232              3594.2227              3715.6918
 Red. masses --      1.0910                 1.0451                 1.1040
 Frc consts  --      6.6001                 7.9547                 8.9805
 IR Inten    --      1.8345                78.3344                76.7578

 - Thermochemistry -
 -------------------
 Temperature   298.150 Kelvin.  Pressure   1.00000 Atm.
 Atom     1 has atomic number  6 and mass  12.00000

 Molecular mass:   152.05858 amu.
 Principal axes and moments of inertia in atomic units:
                           1         2         3
     Eigenvalues --   802.474522174.591862964.34983
           X            1.00000   0.00212   0.00035
           Y           -0.00212   1.00000  -0.00226
           Z           -0.00036   0.00226   1.00000
 This molecule is an asymmetric top.
 Rotational symmetry number  1.
 Warning -- assumption of classical behavior for rotation
           may cause significant error
 Rotational temperatures (Kelvin)      0.10793     0.03983     0.02922
 Rotational constants (GHZ):           2.24897     0.82992     0.60882
 Zero-point vibrational energy     391974.3 (Joules/Mol)
                                   93.68412 (Kcal/Mol)
 Warning -- explicit consideration of  15 degrees of freedom as
           vibrations may cause significant error
 Vibrational temperatures:     73.10   148.24   204.99   244.12   271.98
          (Kelvin)            365.17   427.64   486.93   513.19   566.68
                              593.59   755.03   780.08   811.45   821.84
                             1025.44  1047.04  1130.32  1172.89  1198.77
                             1282.08  1391.14  1431.72  1442.96  1522.51
                             1608.84  1642.11  1705.73  1755.23  1779.11
                             1820.81  1911.53  1967.18  2000.08  2110.96
                             2148.69  2172.29  2196.02  2220.03  2316.20
                             2374.68  2417.71  2588.82  4432.78  4546.19
                             4562.84  4578.16  4594.83  4610.31  5171.28
                             5346.05

 Zero-point correction=                           0.149295 (Hartree/Particle)
 Thermal correction to Energy=                    0.159340
 Thermal correction to Enthalpy=                  0.160284
 Thermal correction to Gibbs Free Energy=         0.113591
 Sum of electronic and zero-point Energies=           -531.408659
 Sum of electronic and thermal Energies=              -531.398614
 Sum of electronic and thermal Enthalpies=            -531.397670
 Sum of electronic and thermal Free Energies=         -531.444363

                     E (Thermal)             CV                S
                      KCal/Mol        Cal/Mol-Kelvin    Cal/Mol-Kelvin
 Total                   99.987             37.244             98.274
 Electronic               0.000              0.000              0.000
 Translational            0.889              2.981             40.967
 Rotational               0.889              2.981             30.027
 Vibrational             98.210             31.282             27.280
 Vibration     1          0.595              1.977              4.786
 Vibration     2          0.605              1.947              3.396
 Vibration     3          0.616              1.911              2.770
 Vibration     4          0.625              1.880              2.439
 Vibration     5          0.633              1.855              2.237
 Vibration     6          0.665              1.756              1.704
 Vibration     7          0.691              1.679              1.432
 Vibration     8          0.719              1.599              1.220
 Vibration     9          0.732              1.562              1.137
 Vibration    10          0.761              1.483              0.985
 Vibration    11          0.776              1.443              0.918
 Vibration    12          0.880              1.195              0.599
 Vibration    13          0.897              1.157              0.561
 Vibration    14          0.920              1.109              0.516
 Vibration    15          0.927              1.094              0.502

                           ! Non-Optimized Parameters !
 Normal termination of Gaussian 16 at Tue Dec  8 20:41:39 2020.

 ----------------------------------------------------------------------
 # B3LYP/6-311++G(d,p) empiricaldispersion=gd3bj scf=xqc pop=npa geom=c
 heck
 ----------------------------------------------------------------------

 ------------------------------------
 CID_592353_JID_1664_Energie_neutraal
 ------------------------------------
 Structure from the checkpoint file:  "JID_1664.chk"
 Charge =  0 Multiplicity = 1

 SCF Done:  E(RB3LYP) =  -531.713954619     A.U. after   18 cycles
 Normal termination of Gaussian 16 at Tue Dec  8 20:43:25 2020.

 ----------------------------------------------------------------------
 # B3LYP/6-311++G(d,p) empiricaldispersion=gd3bj scf=xqc pop=npa geom=c
 heck
 ----------------------------------------------------------------------

 ----------------------------------
 CID_592353_JID_1664_Energie_kation
 ----------------------------------
 Structure from the checkpoint file:  "JID_1664.chk"
 Charge =  1 Multiplicity = 2

 SCF Done:  E(UB3LYP) =  -531.397591362     A.U. after   26 cycles
 Normal termination of Gaussian 16 at Tue Dec  8 20:46:25 2020.
 Gaussian 16:  ES64L-G16RevA.03 25-Dec-2016

 ----------------------------------------------------------------------
 # B3LYP/6-311++G(d,p) empiricaldispersion=gd3bj scf=xqc pop=npa geom=c
 heck
 ----------------------------------------------------------------------

 ---------------------------------
 CID_592353_JID_1664_Energie_anion
 ---------------------------------
 Structure from the checkpoint file:  "JID_1664.chk"
 Charge = -1 Multiplicity = 2

                         Standard orientation:
 ---------------------------------------------------------------------
 Center     Atomic      Atomic             Coordinates (Angstroms)
 Number     Number       Type             X           Y           Z
 ---------------------------------------------------------------------
      1          6           0       -3.422092    0.256853   -0.035108
      2          8           0       -2.008732    0.517163   -0.033825
      3          6           0       -1.217900   -0.598322    0.014766
      4          8           0       -1.699362   -1.713035    0.047060
      5          6           0        0.229441   -0.300991    0.013261
      6          6           0        0.823152    0.991392    0.016522
      7          6           0        2.235341    1.031199   -0.006614
      8          6           0        2.958509   -0.145296   -0.023962
      9          7           0        2.413008   -1.377780   -0.020995
     10          6           0        1.084565   -1.417880   -0.002471
     11          7           0        0.115646    2.153498    0.073413
     12          1           0       -3.899402    1.236715   -0.066265
     13          1           0       -3.710114   -0.284912    0.868640
     14          1           0       -3.699723   -0.336536   -0.909397
     15          1           0        2.746029    1.990420   -0.004313
     16          1           0        4.046412   -0.107445   -0.041258
     17          1           0        0.622170   -2.401395   -0.003164
     18          1           0        0.596085    3.020406   -0.111941
     19          1           0       -0.883380    2.117971   -0.063471
 ---------------------------------------------------------------------

 SCF Done:  E(UB3LYP) =  -531.708601468     A.U. after   33 cycles
 SCF Done:  E(UB3LYP) =  -531.708834755     a.u. after    8 cycles

 The electronic state is 2-A.
 Alpha  occ. eigenvalues --  -19.02266 -18.93892 -14.18941 -14.14444 -10.12542
 Alpha  occ. eigenvalues --  -10.10352 -10.08046 -10.03759 -10.03614 -10.01981
 Alpha  occ. eigenvalues --  -10.01869  -0.95667  -0.86119  -0.79903  -0.77185
 Alpha  occ. eigenvalues --   -0.63721  -0.61640  -0.58979  -0.49665  -0.47842
 Alpha  occ. eigenvalues --   -0.44021  -0.39943  -0.39481  -0.36442  -0.35171
 Alpha  occ. eigenvalues --   -0.32130  -0.30622  -0.30290  -0.28452  -0.27662
 Alpha  occ. eigenvalues --   -0.27463  -0.24395  -0.23293  -0.20596  -0.20318
 Alpha  occ. eigenvalues --   -0.17055  -0.12941  -0.11505  -0.10395  -0.08640
 Alpha  occ. eigenvalues --    0.05965
 Alpha virt. eigenvalues --    0.07171   0.07965   0.10069   0.11239   0.12069
 Alpha virt. eigenvalues --    0.12202   0.13137   0.13548   0.14145   0.17063
 Alpha virt. eigenvalues --    0.17131   0.17748   0.17956   0.18271   0.19136

  Beta  occ. eigenvalues --  -19.02159 -18.93602 -14.18893 -14.14581 -10.12261
  Beta  occ. eigenvalues --  -10.10343 -10.07912 -10.03515 -10.03241 -10.01900
  Beta  occ. eigenvalues --  -10.01861  -0.95346  -0.85654  -0.79718  -0.77023
  Beta  occ. eigenvalues --   -0.63398  -0.61281  -0.58749  -0.49025  -0.47659
  Beta  occ. eigenvalues --   -0.43746  -0.39827  -0.39322  -0.36176  -0.34757
  Beta  occ. eigenvalues --   -0.31808  -0.30453  -0.30137  -0.28217  -0.27488
  Beta  occ. eigenvalues --   -0.26531  -0.23427  -0.23137  -0.20376  -0.19693
  Beta  occ. eigenvalues --   -0.16023  -0.12699  -0.10429  -0.10001  -0.08084
  Beta virt. eigenvalues --    0.07526   0.08343   0.10103   0.11389   0.11637
  Beta virt. eigenvalues --    0.12170   0.12286   0.13462   0.13725   0.14189
  Beta virt. eigenvalues --    0.16936   0.17285   0.17677   0.18002   0.18984

 Mulliken charges and spin densities:
               1          2
     1  C    0.055093  -0.290293
     2  O   -0.230966   0.023600
     3  C   -0.983894   0.213083
     4  O   -0.373285   0.103477
     5  C    1.332532  -0.304992
     6  C    0.303530  -0.043167
     7  C    0.042434   0.049384
     8  C   -0.324668   0.148084
     9  N   -0.094045  -0.074774
    10  C   -0.754213   0.236762
    11  N   -0.444427   0.061636
    12  H   -0.102019   0.209966
    13  H    0.022906   0.149949
    14  H    0.088264   0.074631
    15  H   -0.230333   0.336772
    16  H    0.102281  -0.007230
    17  H    0.184365  -0.014051
    18  H    0.115297   0.115841
    19  H    0.291148   0.011321
 Sum of Mulliken charges =  -1.00000   1.00000

 Dipole moment (field-independent basis, Debye):
    X=             -2.2965    Y=              3.8225    Z=             -0.6208  Tot=              4.5023
 Quadrupole moment (field-independent basis, Debye-Ang):
   XX=           -102.3675   YY=            -87.1955   ZZ=            -74.7132
   XY=             -0.5240   XZ=              1.7619   YZ=             -1.1679

 Summary of Natural Population Analysis:

                                       Natural Population
                Natural  -----------------------------------------------
    Atom  No    Charge         Core      Valence    Rydberg      Total
 -----------------------------------------------------------------------
      C    1   -0.10558      0.99961     2.09589    0.01008     3.10558
      O    2   -0.29510      0.99986     3.28695    0.00828     4.29510
      C    3    0.43472      0.99964     1.54303    0.02262     2.56528
      O    4   -0.30156      0.99987     3.29642    0.00527     4.30156
      C    5   -0.12219      0.99943     2.11154    0.01122     3.12219
      C    6    0.13688      0.99950     1.85162    0.01199     2.86312
      C    7   -0.16934      0.99953     2.15856    0.01125     3.16934
      C    8    0.09628      0.99959     1.88832    0.01581     2.90372
      N    9   -0.28696      0.99972     2.77545    0.01179     3.78696
      C   10    0.10260      0.99958     1.88474    0.01308     2.89740
      N   11   -0.39126      0.99969     2.88289    0.00868     3.89126
      H   12    0.08206      0.00000     0.41689    0.00104     0.41794
      H   13    0.09047      0.00000     0.40810    0.00142     0.40953
      H   14    0.08816      0.00000     0.41068    0.00116     0.41184
      H   15    0.09074      0.00000     0.40781    0.00145     0.40926
      H   16    0.07388      0.00000     0.42440    0.00172     0.42612
      H   17    0.09110      0.00000     0.40776    0.00114     0.40890
      H   18    0.18186      0.00000     0.31633    0.00181     0.31814
      H   19    0.20320      0.00000     0.29553    0.00127     0.29680
 =======================================================================
   * Total *    0.00000     10.99603    28.86291    0.14107    40.00000

 Normal termination of Gaussian 16 at Tue Dec  8 21:18:31 2020.
