 Gaussian 16, Revision A.03,

 -----------------------------------------------------------
 # opt freq B3LYP/6-31G(d) empiricaldispersion=gd3bj scf=xqc
 -----------------------------------------------------------

 ------------------------------
 CID_87139236_JID_3890_neutraal
 ------------------------------
 Symbolic Z-matrix:
 Charge =  0 Multiplicity = 1

 SCF Done:  E(RB3LYP) =  -518.631756634     A.U. after   14 cycles
 SCF Done:  E(RB3LYP) =  -518.638649010     A.U. after   13 cycles
 SCF Done:  E(RB3LYP) =  -518.639221534     A.U. after   12 cycles
 SCF Done:  E(RB3LYP) =  -518.639254876     A.U. after   10 cycles
 SCF Done:  E(RB3LYP) =  -518.639258695     A.U. after    9 cycles
 SCF Done:  E(RB3LYP) =  -518.639258901     A.U. after    7 cycles
 Optimization completed.
    -- Stationary point found.
 Normal termination of Gaussian 16 at Sun Dec 13 19:59:12 2020.

 --------------------------------------------------------------------
 #N Geom=AllCheck Guess=TCheck SCRF=Check GenChk RB3LYP/6-31G(d) Freq
 --------------------------------------------------------------------

 Structure from the checkpoint file:  "JID_3890.chk"
 ------------------------------
 CID_87139236_JID_3890_neutraal
 ------------------------------
 Charge =  0 Multiplicity = 1

 SCF Done:  E(RB3LYP) =  -518.639258901     A.U. after    1 cycles

  Exact polarizability: 208.688  -3.077 138.726   0.016   0.001  53.423
 Approx polarizability: 319.883  -8.282 247.314   0.048   0.018  83.018

 ******    1 imaginary frequencies (negative Signs) ******

                      1                      2                      3
                      A                      A                      A
 Frequencies --    -39.6067               111.9870               181.2860
 Red. masses --      5.0892                 3.4885                 3.1132
 Frc consts  --      0.0047                 0.0258                 0.0603
 IR Inten    --      1.3484                 0.0024                 0.1333

                      4                      5                      6
                      A                      A                      A
 Frequencies --    208.8006               256.9375               280.6655
 Red. masses --      2.1576                 4.1237                 3.9533
 Frc consts  --      0.0554                 0.1604                 0.1835
 IR Inten    --     11.8892                 0.4116                 0.6631

                      7                      8                      9
                      A                      A                      A
 Frequencies --    302.7021               344.9028               373.0365
 Red. masses --      1.1572                 6.1187                 5.1906
 Frc consts  --      0.0625                 0.4288                 0.4256
 IR Inten    --     75.4798                 1.1729                 0.5851

                     10                     11                     12
                      A                      A                      A
 Frequencies --    411.7169               480.1763               515.5700
 Red. masses --      2.9842                 2.8946                 5.3422
 Frc consts  --      0.2980                 0.3932                 0.8367
 IR Inten    --     10.1646                 0.4026                 1.5711

                     13                     14                     15
                      A                      A                      A
 Frequencies --    546.3051               593.8049               618.0563
 Red. masses --      3.3943                 6.4402                 3.3939
 Frc consts  --      0.5969                 1.3379                 0.7638
 IR Inten    --      0.0036                 0.0154                 0.3592

                     16                     17                     18
                      A                      A                      A
 Frequencies --    671.3734               711.4737               726.9670
 Red. masses --      5.6176                 5.7007                 2.4508
 Frc consts  --      1.4919                 1.7002                 0.7631
 IR Inten    --      1.0989                 3.4863                 0.8176

                     19                     20                     21
                      A                      A                      A
 Frequencies --    752.7621               781.3937               796.5047
 Red. masses --      1.3901                 1.5922                 5.1739
 Frc consts  --      0.4641                 0.5728                 1.9340
 IR Inten    --     33.4129                35.1574                 3.8831

                     22                     23                     24
                      A                      A                      A
 Frequencies --    834.2489               841.4761               860.8130
 Red. masses --      3.6035                 1.1584                 1.4863
 Frc consts  --      1.4776                 0.4833                 0.6489
 IR Inten    --      2.1070                 1.5168                 0.0638

                     25                     26                     27
                      A                      A                      A
 Frequencies --    890.3402               921.9106               924.4192
 Red. masses --      5.3299                 3.0633                 1.3691
 Frc consts  --      2.4893                 1.5340                 0.6893
 IR Inten    --     13.8505                 1.9991                 4.4953

                     28                     29                     30
                      A                      A                      A
 Frequencies --    954.8042               974.5644              1064.8655
 Red. masses --      1.2415                 1.2464                 1.7202
 Frc consts  --      0.6669                 0.6975                 1.1492
 IR Inten    --      0.0051                 0.1583                 0.0468

                     31                     32                     33
                      A                      A                      A
 Frequencies --   1090.3403              1100.6427              1107.6286
 Red. masses --      2.9126                 1.1673                 3.1950
 Frc consts  --      2.0402                 0.8332                 2.3094
 IR Inten    --      0.3704                 0.0007                 8.0584

                     34                     35                     36
                      A                      A                      A
 Frequencies --   1140.0034              1173.3678              1181.1422
 Red. masses --      2.1910                 1.1594                 1.8163
 Frc consts  --      1.6776                 0.9405                 1.4929
 IR Inten    --     13.5058                 0.1118                 0.4186

                     37                     38                     39
                      A                      A                      A
 Frequencies --   1199.2887              1213.0098              1225.6126
 Red. masses --      1.2491                 2.4251                 1.5093
 Frc consts  --      1.0585                 2.1024                 1.3357
 IR Inten    --      1.1621                 0.1483                10.8720

                     40                     41                     42
                      A                      A                      A
 Frequencies --   1242.1279              1265.8414              1284.5070
 Red. masses --      2.0842                 1.7670                 1.8725
 Frc consts  --      1.8946                 1.6682                 1.8203
 IR Inten    --      4.3226                42.6520                 8.6475

                     43                     44                     45
                      A                      A                      A
 Frequencies --   1313.7455              1342.1067              1359.3623
 Red. masses --      1.9303                 2.6106                 2.3697
 Frc consts  --      1.9629                 2.7705                 2.5800
 IR Inten    --      2.8570                 8.7672                79.4718

                     46                     47                     48
                      A                      A                      A
 Frequencies --   1469.2678              1480.9664              1503.5250
 Red. masses --      1.9017                 1.8898                 1.0998
 Frc consts  --      2.4187                 2.4420                 1.4649
 IR Inten    --      1.5383                33.3857                 0.0168

                     49                     50                     51
                      A                      A                      A
 Frequencies --   1515.3779              1536.3140              1575.4439
 Red. masses --      1.7423                 1.4110                 1.9777
 Frc consts  --      2.3573                 1.9622                 2.8921
 IR Inten    --    184.1169                29.7182                13.2685

                     52                     53                     54
                      A                      A                      A
 Frequencies --   1634.6808              1651.6092              1694.8831
 Red. masses --      4.5133                 5.3450                 7.2386
 Frc consts  --      7.1058                 8.5904                12.2514
 IR Inten    --      0.9890                13.9621                23.2879

                     55                     56                     57
                      A                      A                      A
 Frequencies --   1742.3848              3035.5111              3042.3997
 Red. masses --      7.1100                 1.0549                 1.0572
 Frc consts  --     12.7177                 5.7272                 5.7653
 IR Inten    --     82.6826                99.3281               112.4457

                     58                     59                     60
                      A                      A                      A
 Frequencies --   3069.9010              3086.3331              3162.0036
 Red. masses --      1.1098                 1.1069                 1.0841
 Frc consts  --      6.1621                 6.2120                 6.3861
 IR Inten    --     10.5665                63.9024                 1.2263

                     61                     62                     63
                      A                      A                      A
 Frequencies --   3164.5830              3180.5812              3186.2795
 Red. masses --      1.0879                 1.0902                 1.0904
 Frc consts  --      6.4193                 6.4981                 6.5223
 IR Inten    --     16.4599                 4.1579                33.0337

                     64                     65                     66
                      A                      A                      A
 Frequencies --   3197.7590              3215.2551              3629.5189
 Red. masses --      1.0901                 1.0975                 1.0760
 Frc consts  --      6.5676                 6.6847                 8.3514
 IR Inten    --     24.6639                29.4048                26.8200

 - Thermochemistry -
 -------------------
 Temperature   298.150 Kelvin.  Pressure   1.00000 Atm.
 Atom     1 has atomic number  6 and mass  12.00000

 Molecular mass:   169.08915 amu.
 Principal axes and moments of inertia in atomic units:
                           1         2         3
     Eigenvalues --   900.442113170.092314047.65679
           X            0.99999   0.00497  -0.00001
           Y           -0.00497   0.99999  -0.00001
           Z            0.00001   0.00001   1.00000
 This molecule is an asymmetric top.
 Rotational symmetry number  1.
 Warning -- assumption of classical behavior for rotation
           may cause significant error
 Rotational temperatures (Kelvin)      0.09619     0.02732     0.02140
 Rotational constants (GHZ):           2.00428     0.56930     0.44587
    1 imaginary frequencies ignored.
 Zero-point vibrational energy     520059.6 (Joules/Mol)
                                  124.29722 (Kcal/Mol)
 Warning -- explicit consideration of  14 degrees of freedom as
           vibrations may cause significant error
 Vibrational temperatures:    161.12   260.83   300.42   369.68   403.82
          (Kelvin)            435.52   496.24   536.72   592.37   690.87
                              741.79   786.01   854.35   889.25   965.96
                             1023.65  1045.94  1083.06  1124.25  1145.99
                             1200.30  1210.70  1238.52  1281.00  1326.42
                             1330.03  1373.75  1402.18  1532.10  1568.76
                             1583.58  1593.63  1640.21  1688.21  1699.40
                             1725.51  1745.25  1763.38  1787.14  1821.26
                             1848.12  1890.19  1930.99  1955.82  2113.95
                             2130.78  2163.24  2180.29  2210.41  2266.71
                             2351.94  2376.30  2438.56  2506.90  4367.42
                             4377.33  4416.90  4440.54  4549.42  4553.13
                             4576.15  4584.35  4600.86  4626.03  5222.07

 Zero-point correction=                           0.198080 (Hartree/Particle)
 Thermal correction to Energy=                    0.207405
 Thermal correction to Enthalpy=                  0.208349
 Thermal correction to Gibbs Free Energy=         0.163796
 Sum of electronic and zero-point Energies=           -518.441179
 Sum of electronic and thermal Energies=              -518.431854
 Sum of electronic and thermal Enthalpies=            -518.430910
 Sum of electronic and thermal Free Energies=         -518.475463

                     E (Thermal)             CV                S
                      KCal/Mol        Cal/Mol-Kelvin    Cal/Mol-Kelvin
 Total                  130.149             39.456             93.770
 Electronic               0.000              0.000              0.000
 Translational            0.889              2.981             41.284
 Rotational               0.889              2.981             30.825
 Vibrational            128.371             33.494             21.661
 Vibration     1          0.607              1.940              3.234
 Vibration     2          0.630              1.865              2.315
 Vibration     3          0.642              1.827              2.054
 Vibration     4          0.667              1.751              1.682
 Vibration     5          0.680              1.709              1.530
 Vibration     6          0.694              1.669              1.402
 Vibration     7          0.723              1.586              1.189
 Vibration     8          0.744              1.527              1.067
 Vibration     9          0.776              1.445              0.921
 Vibration    10          0.837              1.294              0.710
 Vibration    11          0.871              1.216              0.620
 Vibration    12          0.901              1.148              0.552
 Vibration    13          0.951              1.045              0.460
 Vibration    14          0.978              0.994              0.420

                           ! Non-Optimized Parameters !
 Normal termination of Gaussian 16 at Sun Dec 13 20:04:57 2020.

 ----------------------------------------------------------------------
 # B3LYP/6-311++G(d,p) empiricaldispersion=gd3bj scf=xqc pop=npa geom=c
 heck
 ----------------------------------------------------------------------

 --------------------------------------
 CID_87139236_JID_3890_Energie_neutraal
 --------------------------------------
 Structure from the checkpoint file:  "JID_3890.chk"
 Charge =  0 Multiplicity = 1

 SCF Done:  E(RB3LYP) =  -518.771568969     A.U. after   15 cycles
 Normal termination of Gaussian 16 at Sun Dec 13 20:07:23 2020.

 ----------------------------------------------------------------------
 # B3LYP/6-311++G(d,p) empiricaldispersion=gd3bj scf=xqc pop=npa geom=c
 heck
 ----------------------------------------------------------------------

 ------------------------------------
 CID_87139236_JID_3890_Energie_kation
 ------------------------------------
 Structure from the checkpoint file:  "JID_3890.chk"
 Charge =  1 Multiplicity = 2

 SCF Done:  E(UB3LYP) =  -518.541280665     A.U. after   20 cycles
 Normal termination of Gaussian 16 at Sun Dec 13 20:12:00 2020.
 Gaussian 16:  ES64L-G16RevA.03 25-Dec-2016

 ----------------------------------------------------------------------
 # B3LYP/6-311++G(d,p) empiricaldispersion=gd3bj scf=xqc pop=npa geom=c
 heck
 ----------------------------------------------------------------------

 -----------------------------------
 CID_87139236_JID_3890_Energie_anion
 -----------------------------------
 Structure from the checkpoint file:  "JID_3890.chk"
 Charge = -1 Multiplicity = 2

                         Standard orientation:
 ---------------------------------------------------------------------
 Center     Atomic      Atomic             Coordinates (Angstroms)
 Number     Number       Type             X           Y           Z
 ---------------------------------------------------------------------
      1          6           0       -3.563311    0.206355    0.001800
      2          6           0       -3.059767   -1.288816    0.000664
      3          6           0       -1.675106   -0.690052   -0.000555
      4          6           0       -2.092237    0.594472    0.000201
      5          6           0       -1.321990    1.814097   -0.000612
      6          6           0        0.025202    1.859609   -0.001159
      7          6           0        1.033534    0.767634   -0.000487
      8          6           0        2.367233    1.199216    0.000548
      9          6           0        3.467492    0.336406    0.001205
     10          6           0        3.238892   -1.029457    0.000864
     11          6           0        1.923269   -1.502066   -0.000068
     12          6           0        0.821375   -0.644543   -0.000811
     13          7           0       -0.439330   -1.282110   -0.002070
     14          1           0       -4.141341    0.481463    0.893411
     15          1           0       -4.143389    0.482132   -0.888272
     16          1           0       -3.329735   -1.868597    0.892604
     17          1           0       -3.331639   -1.867873   -0.891171
     18          1           0       -1.863299    2.757832   -0.000899
     19          1           0        0.481638    2.846498   -0.001872
     20          1           0        2.545464    2.271333    0.000790
     21          1           0        4.475932    0.737883    0.001925
     22          1           0        4.062896   -1.736917    0.001316
     23          1           0        1.744415   -2.575478   -0.000307
     24          1           0       -0.413142   -2.290639   -0.002578
 ---------------------------------------------------------------------

 SCF Done:  E(UB3LYP) =  -518.772895998     A.U. after   23 cycles

 The electronic state is 2-A.
 Alpha  occ. eigenvalues --  -14.19126 -10.05712 -10.04614 -10.04011 -10.03617
 Alpha  occ. eigenvalues --  -10.02066 -10.01644 -10.01306 -10.01198 -10.01050
 Alpha  occ. eigenvalues --   -9.99609  -9.98975  -9.98887  -0.80144  -0.71164
 Alpha  occ. eigenvalues --   -0.68911  -0.62678  -0.59053  -0.57642  -0.51456
 Alpha  occ. eigenvalues --   -0.50566  -0.46523  -0.46046  -0.41478  -0.38895
 Alpha  occ. eigenvalues --   -0.37868  -0.33801  -0.33153  -0.31446  -0.30161
 Alpha  occ. eigenvalues --   -0.27795  -0.26716  -0.25317  -0.23590  -0.23506
 Alpha  occ. eigenvalues --   -0.22492  -0.20117  -0.20019  -0.19229  -0.18912
 Alpha  occ. eigenvalues --   -0.16833  -0.15586  -0.11493  -0.09165  -0.00963
 Alpha  occ. eigenvalues --    0.05606
 Alpha virt. eigenvalues --    0.08697   0.09388   0.09929   0.10952   0.11151
 Alpha virt. eigenvalues --    0.11292   0.12717   0.13298   0.13418   0.13638
 Alpha virt. eigenvalues --    0.15392   0.16094   0.16559   0.17137   0.17929

  Beta  occ. eigenvalues --  -14.19159 -10.05465 -10.04645 -10.04004 -10.03275
  Beta  occ. eigenvalues --  -10.02161 -10.01503 -10.01260 -10.01024 -10.00928
  Beta  occ. eigenvalues --   -9.99624  -9.98766  -9.98612  -0.79892  -0.70921
  Beta  occ. eigenvalues --   -0.68666  -0.62134  -0.58779  -0.57175  -0.51192
  Beta  occ. eigenvalues --   -0.50305  -0.46079  -0.45948  -0.41116  -0.38729
  Beta  occ. eigenvalues --   -0.37643  -0.33623  -0.32901  -0.31223  -0.29977
  Beta  occ. eigenvalues --   -0.27691  -0.26554  -0.24561  -0.23404  -0.23277
  Beta  occ. eigenvalues --   -0.22367  -0.20017  -0.19914  -0.18758  -0.18445
  Beta  occ. eigenvalues --   -0.16601  -0.14055  -0.09933  -0.08291  -0.00240
  Beta virt. eigenvalues --    0.08656   0.09355   0.09886   0.10834   0.10922
  Beta virt. eigenvalues --    0.11113   0.11759   0.12675   0.13305   0.13378
  Beta virt. eigenvalues --    0.13950   0.15322   0.16052   0.16504   0.17437

 Mulliken charges and spin densities:
               1          2
     1  C   -0.627904   0.022892
     2  C   -0.228453  -0.050611
     3  C   -0.239624   0.183125
     4  C    0.992701   0.017474
     5  C   -1.012875   0.231244
     6  C    0.031170   0.109449
     7  C    1.450276   0.114999
     8  C    0.042570   0.049928
     9  C   -0.330247   0.047133
    10  C   -0.423640   0.221114
    11  C   -0.510003  -0.079659
    12  C   -1.189313   0.139872
    13  N    0.003824  -0.013330
    14  H    0.083729  -0.002432
    15  H    0.083732  -0.002431
    16  H    0.068114   0.029590
    17  H    0.068134   0.029577
    18  H    0.100829  -0.018369
    19  H    0.065963  -0.013979
    20  H    0.085403  -0.000029
    21  H    0.089012  -0.004119
    22  H    0.097855  -0.017180
    23  H    0.064057   0.005995
    24  H    0.234691  -0.000253
 Sum of Mulliken charges =  -1.00000   1.00000

 Dipole moment (field-independent basis, Debye):
    X=             -1.1336    Y=             -2.6557    Z=             -0.0001  Tot=              2.8875
 Quadrupole moment (field-independent basis, Debye-Ang):
   XX=           -112.1969   YY=            -86.7846   ZZ=            -89.9922
   XY=              2.8188   XZ=              0.0009   YZ=              0.0054

 Summary of Natural Population Analysis:

                                       Natural Population
                Natural  -----------------------------------------------
    Atom  No    Charge         Core      Valence    Rydberg      Total
 -----------------------------------------------------------------------
      C    1   -0.17472      0.99964     2.16865    0.00642     3.17472
      C    2   -0.19580      0.99964     2.18932    0.00683     3.19580
      C    3    0.15549      0.99939     1.83376    0.01136     2.84451
      C    4   -0.07574      0.99945     2.06531    0.01099     3.07574
      C    5   -0.05301      0.99941     2.04222    0.01139     3.05301
      C    6   -0.07772      0.99958     2.06707    0.01107     3.07772
      C    7   -0.02341      0.99948     2.01504    0.00889     3.02341
      C    8   -0.08048      0.99956     2.07229    0.00863     3.08048
      C    9   -0.12552      0.99956     2.11563    0.01032     3.12552
      C   10   -0.06205      0.99957     2.05238    0.01009     3.06205
      C   11   -0.15414      0.99955     2.14543    0.00916     3.15414
      C   12    0.13944      0.99945     1.85125    0.00986     2.86056
      N   13   -0.30327      0.99964     2.79424    0.00940     3.80327
      H   14    0.07960      0.00000     0.41802    0.00238     0.42040
      H   15    0.07959      0.00000     0.41803    0.00238     0.42041
      H   16    0.08678      0.00000     0.41068    0.00254     0.41322
      H   17    0.08679      0.00000     0.41068    0.00253     0.41321
      H   18    0.08710      0.00000     0.41232    0.00059     0.41290
      H   19    0.08021      0.00000     0.41774    0.00205     0.41979
      H   20    0.08736      0.00000     0.41111    0.00153     0.41264
      H   21    0.08791      0.00000     0.41093    0.00116     0.41209
      H   22    0.08481      0.00000     0.41363    0.00157     0.41519
      H   23    0.08814      0.00000     0.41128    0.00058     0.41186
      H   24    0.18277      0.00000     0.31526    0.00198     0.31723
 =======================================================================
   * Total *    0.00013     12.99393    31.86227    0.14368    44.99987

 Normal termination of Gaussian 16 at Sun Dec 13 20:17:19 2020.
