 Gaussian 16, Revision A.03,

 -----------------------------------------------------------
 # opt freq B3LYP/6-31G(d) empiricaldispersion=gd3bj scf=xqc
 -----------------------------------------------------------

 ------------------------------
 CID_151031812_JID_987_neutraal
 ------------------------------
 Symbolic Z-matrix:
 Charge =  0 Multiplicity = 1

 SCF Done:  E(RB3LYP) =  -509.284820212     A.U. after   16 cycles
 SCF Done:  E(RB3LYP) =  -509.305560291     A.U. after   16 cycles
 SCF Done:  E(RB3LYP) =  -509.307185539     A.U. after   16 cycles
 SCF Done:  E(RB3LYP) =  -509.304515523     A.U. after   16 cycles
 SCF Done:  E(RB3LYP) =  -509.306537070     A.U. after   15 cycles
 SCF Done:  E(RB3LYP) =  -509.307881475     A.U. after   12 cycles
 SCF Done:  E(RB3LYP) =  -509.308056009     A.U. after   14 cycles
 SCF Done:  E(RB3LYP) =  -509.308086981     A.U. after   13 cycles
 SCF Done:  E(RB3LYP) =  -509.308186917     A.U. after   12 cycles
 SCF Done:  E(RB3LYP) =  -509.308222306     A.U. after   12 cycles
 SCF Done:  E(RB3LYP) =  -509.308335087     A.U. after   11 cycles
 SCF Done:  E(RB3LYP) =  -509.308341366     A.U. after   11 cycles
 SCF Done:  E(RB3LYP) =  -509.308344329     A.U. after   11 cycles
 SCF Done:  E(RB3LYP) =  -509.308347301     A.U. after   11 cycles
 SCF Done:  E(RB3LYP) =  -509.308347948     A.U. after    9 cycles
 SCF Done:  E(RB3LYP) =  -509.308348011     A.U. after    8 cycles
 Optimization completed.
    -- Stationary point found.
 Normal termination of Gaussian 16 at Tue Dec  8 13:28:57 2020.

 --------------------------------------------------------------------
 #N Geom=AllCheck Guess=TCheck SCRF=Check GenChk RB3LYP/6-31G(d) Freq
 --------------------------------------------------------------------

 Structure from the checkpoint file:  "JID_987.chk"
 ------------------------------
 CID_151031812_JID_987_neutraal
 ------------------------------
 Charge =  0 Multiplicity = 1

 SCF Done:  E(RB3LYP) =  -509.308348011     A.U. after    1 cycles

  Exact polarizability: 108.913 -11.233  59.857  -3.115  -1.319  53.706
 Approx polarizability: 194.709 -37.766  85.130   4.206  -4.056  86.435

                      1                      2                      3
                      A                      A                      A
 Frequencies --     36.9880                42.6658                88.6322
 Red. masses --      4.7513                 1.0387                 4.4539
 Frc consts  --      0.0038                 0.0011                 0.0206
 IR Inten    --      3.1537                 0.1462                 0.6987

                      4                      5                      6
                      A                      A                      A
 Frequencies --     91.8853               112.0486               221.9172
 Red. masses --     10.2897                 5.7720                 3.9312
 Frc consts  --      0.0512                 0.0427                 0.1141
 IR Inten    --      0.1098                 0.1028                 2.1301

                      7                      8                      9
                      A                      A                      A
 Frequencies --    238.8906               262.3347               279.7830
 Red. masses --      5.8878                 6.9887                 3.8589
 Frc consts  --      0.1980                 0.2834                 0.1780
 IR Inten    --      6.6023                 8.9810                 9.8736

                     10                     11                     12
                      A                      A                      A
 Frequencies --    378.6459               410.4926               456.5887
 Red. masses --      2.8907                 7.5837                 4.3934
 Frc consts  --      0.2442                 0.7529                 0.5396
 IR Inten    --      1.1783                 0.2181                14.8264

                     13                     14                     15
                      A                      A                      A
 Frequencies --    486.3381               559.0593               578.5690
 Red. masses --      1.3788                 9.2110                 5.4498
 Frc consts  --      0.1921                 1.6962                 1.0748
 IR Inten    --     75.1484                22.2307                61.9726

                     16                     17                     18
                      A                      A                      A
 Frequencies --    647.8914               698.1485               776.0921
 Red. masses --      7.4372                 4.3884                 5.7016
 Frc consts  --      1.8393                 1.2602                 2.0234
 IR Inten    --      7.1516                 6.8143                25.2027

                     19                     20                     21
                      A                      A                      A
 Frequencies --    819.3094               919.9347               988.4902
 Red. masses --      3.7806                 4.8684                 3.2986
 Frc consts  --      1.4952                 2.4275                 1.8990
 IR Inten    --     41.0617               124.3267                 4.8595

                     22                     23                     24
                      A                      A                      A
 Frequencies --   1059.9161              1072.9822              1078.1018
 Red. masses --      2.4805                 1.3917                 1.3532
 Frc consts  --      1.6419                 0.9440                 0.9267
 IR Inten    --     55.4684                 8.7351                 2.9480

                     25                     26                     27
                      A                      A                      A
 Frequencies --   1161.5345              1257.9312              1265.2676
 Red. masses --      2.6361                 1.2849                 3.4347
 Frc consts  --      2.0954                 1.1980                 3.2397
 IR Inten    --    159.3208                16.1626               103.6591

                     28                     29                     30
                      A                      A                      A
 Frequencies --   1311.2450              1373.5931              1394.7462
 Red. masses --      1.7392                 3.1370                 1.4213
 Frc consts  --      1.7619                 3.4872                 1.6291
 IR Inten    --     35.1921               119.7887                 0.7493

                     31                     32                     33
                      A                      A                      A
 Frequencies --   1416.3200              1449.4705              1468.7434
 Red. masses --      1.3173                 1.2994                 1.2458
 Frc consts  --      1.5569                 1.6085                 1.5834
 IR Inten    --     14.3381                 0.6501               122.7763

                     34                     35                     36
                      A                      A                      A
 Frequencies --   1505.2941              1509.2730              1516.9256
 Red. masses --      1.0857                 1.0408                 1.0421
 Frc consts  --      1.4494                 1.3969                 1.4128
 IR Inten    --     20.4196                 2.5846                 4.7911

                     37                     38                     39
                      A                      A                      A
 Frequencies --   2284.5967              2408.6907              3038.2313
 Red. masses --     13.6157                11.8509                 1.0346
 Frc consts  --     41.8705                40.5102                 5.6269
 IR Inten    --    392.1900               107.8396                35.1169

                     40                     41                     42
                      A                      A                      A
 Frequencies --   3080.9325              3095.8816              3102.3149
 Red. masses --      1.0579                 1.1014                 1.1018
 Frc consts  --      5.9163                 6.2196                 6.2479
 IR Inten    --     18.2590                15.1654                12.6056

                     43                     44                     45
                      A                      A                      A
 Frequencies --   3137.1877              3148.4859              3652.0345
 Red. masses --      1.1092                 1.0899                 1.0645
 Frc consts  --      6.4322                 6.3654                 8.3650
 IR Inten    --      8.2949                32.2839                52.9425

 - Thermochemistry -
 -------------------
 Temperature   298.150 Kelvin.  Pressure   1.00000 Atm.
 Atom     1 has atomic number  6 and mass  12.00000

 Molecular mass:   141.05383 amu.
 Principal axes and moments of inertia in atomic units:
                           1         2         3
     Eigenvalues --  1112.050451492.039982224.36194
           X            0.99644   0.08133  -0.02226
           Y           -0.08166   0.99656  -0.01402
           Z            0.02104   0.01579   0.99965
 This molecule is an asymmetric top.
 Rotational symmetry number  1.
 Warning -- assumption of classical behavior for rotation
           may cause significant error
 Rotational temperatures (Kelvin)      0.07789     0.05805     0.03894
 Rotational constants (GHZ):           1.62290     1.20958     0.81135
 Zero-point vibrational energy     334263.0 (Joules/Mol)
                                   79.89077 (Kcal/Mol)
 Warning -- explicit consideration of  15 degrees of freedom as
           vibrations may cause significant error
 Vibrational temperatures:     53.22    61.39   127.52   132.20   161.21
          (Kelvin)            319.29   343.71   377.44   402.55   544.79
                              590.61   656.93   699.73   804.36   832.43
                              932.17  1004.48  1116.62  1178.80  1323.58
                             1422.22  1524.98  1543.78  1551.15  1671.19
                             1809.88  1820.44  1886.59  1976.29  2006.73
                             2037.77  2085.46  2113.19  2165.78  2171.51
                             2182.52  3287.03  3465.57  4371.34  4432.77
                             4454.28  4463.54  4513.71  4529.97  5254.46

 Zero-point correction=                           0.127314 (Hartree/Particle)
 Thermal correction to Energy=                    0.138187
 Thermal correction to Enthalpy=                  0.139131
 Thermal correction to Gibbs Free Energy=         0.089381
 Sum of electronic and zero-point Energies=           -509.181034
 Sum of electronic and thermal Energies=              -509.170161
 Sum of electronic and thermal Enthalpies=            -509.169217
 Sum of electronic and thermal Free Energies=         -509.218967

                     E (Thermal)             CV                S
                      KCal/Mol        Cal/Mol-Kelvin    Cal/Mol-Kelvin
 Total                   86.714             36.892            104.707
 Electronic               0.000              0.000              0.000
 Translational            0.889              2.981             40.743
 Rotational               0.889              2.981             29.691
 Vibrational             84.936             30.931             34.273
 Vibration     1          0.594              1.982              5.414
 Vibration     2          0.595              1.980              5.131
 Vibration     3          0.601              1.957              3.690
 Vibration     4          0.602              1.955              3.620
 Vibration     5          0.607              1.939              3.233
 Vibration     6          0.648              1.808              1.943
 Vibration     7          0.657              1.781              1.811
 Vibration     8          0.670              1.742              1.646
 Vibration     9          0.680              1.711              1.535
 Vibration    10          0.749              1.516              1.045
 Vibration    11          0.775              1.447              0.925
 Vibration    12          0.815              1.346              0.776
 Vibration    13          0.842              1.280              0.693
 Vibration    14          0.915              1.120              0.526
 Vibration    15          0.935              1.078              0.488

 Optimization completed.
    -- Stationary point found.
 Normal termination of Gaussian 16 at Tue Dec  8 13:32:21 2020.

 ----------------------------------------------------------------------
 # B3LYP/6-311++G(d,p) empiricaldispersion=gd3bj scf=xqc pop=npa geom=c
 heck
 ----------------------------------------------------------------------

 --------------------------------------
 CID_151031812_JID_987_Energie_neutraal
 --------------------------------------
 Structure from the checkpoint file:  "JID_987.chk"
 Charge =  0 Multiplicity = 1

 SCF Done:  E(RB3LYP) =  -509.464709006     A.U. after   15 cycles
 Normal termination of Gaussian 16 at Tue Dec  8 13:35:18 2020.

 ----------------------------------------------------------------------
 # B3LYP/6-311++G(d,p) empiricaldispersion=gd3bj scf=xqc pop=npa geom=c
 heck
 ----------------------------------------------------------------------

 ------------------------------------
 CID_151031812_JID_987_Energie_kation
 ------------------------------------
 Structure from the checkpoint file:  "JID_987.chk"
 Charge =  1 Multiplicity = 2

 SCF Done:  E(UB3LYP) =  -509.141942200     A.U. after   26 cycles
 Normal termination of Gaussian 16 at Tue Dec  8 13:38:59 2020.
 Gaussian 16:  ES64L-G16RevA.03 25-Dec-2016

 ----------------------------------------------------------------------
 # B3LYP/6-311++G(d,p) empiricaldispersion=gd3bj scf=xqc pop=npa geom=c
 heck
 ----------------------------------------------------------------------

 -----------------------------------
 CID_151031812_JID_987_Energie_anion
 -----------------------------------
 Structure from the checkpoint file:  "JID_987.chk"
 Charge = -1 Multiplicity = 2

                         Standard orientation:
 ---------------------------------------------------------------------
 Center     Atomic      Atomic             Coordinates (Angstroms)
 Number     Number       Type             X           Y           Z
 ---------------------------------------------------------------------
      1          6           0       -3.073188   -0.792648    0.329404
      2          6           0       -1.692214   -1.016146   -0.093890
      3          6           0       -0.553705   -1.205654   -0.449969
      4          8           0        0.667431   -1.429968   -0.883321
      5          6           0        1.736797   -0.745663   -0.159469
      6          6           0        1.703356    0.765342   -0.448822
      7          7           0        0.797248    1.450904    0.497015
      8          7           0       -0.274890    1.860472    0.036759
      9          7           0       -1.285581    2.292795   -0.259897
     10          8           0        1.722828   -1.016205    1.189324
     11          1           0       -3.373339    0.251349    0.181703
     12          1           0       -3.214636   -1.036480    1.389555
     13          1           0       -3.763222   -1.421956   -0.245627
     14          1           0        2.631636   -1.195721   -0.590956
     15          1           0        2.703268    1.168764   -0.264746
     16          1           0        1.431372    0.946579   -1.492840
     17          1           0        1.079130   -0.403736    1.594208
 ---------------------------------------------------------------------

 SCF Done:  E(UB3LYP) =  -509.457320942     A.U. after   30 cycles

 The electronic state is 2-A.
 Alpha  occ. eigenvalues --  -19.06471 -19.02817 -14.32042 -14.22592 -14.22189
 Alpha  occ. eigenvalues --  -10.17511 -10.09691 -10.09605 -10.07689 -10.04703
 Alpha  occ. eigenvalues --   -0.99646  -0.98919  -0.92637  -0.83817  -0.66827
 Alpha  occ. eigenvalues --   -0.65278  -0.59547  -0.55555  -0.45841  -0.42743
 Alpha  occ. eigenvalues --   -0.41031  -0.39083  -0.36493  -0.35049  -0.34628
 Alpha  occ. eigenvalues --   -0.32463  -0.31833  -0.31106  -0.30427  -0.29670
 Alpha  occ. eigenvalues --   -0.27626  -0.23753  -0.20709  -0.17570  -0.14639
 Alpha  occ. eigenvalues --   -0.12722  -0.11572   0.05196
 Alpha virt. eigenvalues --    0.07402   0.08261   0.10323   0.10464   0.11100
 Alpha virt. eigenvalues --    0.11515   0.12151   0.13841   0.15011   0.16187
 Alpha virt. eigenvalues --    0.16296   0.16772   0.17581   0.18330   0.18603

  Beta  occ. eigenvalues --  -19.06467 -19.02792 -14.31721 -14.22258 -14.22149
  Beta  occ. eigenvalues --  -10.17493 -10.09690 -10.09480 -10.07661 -10.04697
  Beta  occ. eigenvalues --   -0.99352  -0.98559  -0.92592  -0.83496  -0.66766
  Beta  occ. eigenvalues --   -0.65148  -0.59446  -0.55428  -0.45801  -0.42584
  Beta  occ. eigenvalues --   -0.40857  -0.38453  -0.36202  -0.34971  -0.33987
  Beta  occ. eigenvalues --   -0.32111  -0.31734  -0.30739  -0.30145  -0.29401
  Beta  occ. eigenvalues --   -0.27346  -0.23693  -0.20665  -0.16796  -0.14589
  Beta  occ. eigenvalues --   -0.12660  -0.11516
  Beta virt. eigenvalues --    0.07650   0.08795   0.10243   0.10900   0.11604
  Beta virt. eigenvalues --    0.11797   0.12092   0.12458   0.14141   0.15165
  Beta virt. eigenvalues --    0.16257   0.16404   0.16882   0.17585   0.18453

 Mulliken charges and spin densities:
               1          2
     1  C    0.650816  -1.561600
     2  C   -0.587143   0.858142
     3  C    0.399126  -0.203367
     4  O   -0.188190   0.034367
     5  C   -0.373570   0.141046
     6  C    1.388240  -1.795982
     7  N   -0.221386  -0.218885
     8  N    0.452092   0.140268
     9  N   -0.647350   0.591395
    10  O   -0.182529   0.004835
    11  H   -0.115651   0.304915
    12  H   -0.098984   0.244594
    13  H   -0.051457   0.184370
    14  H   -0.543768   0.754287
    15  H   -1.043223   1.247995
    16  H   -0.032860   0.215292
    17  H    0.195837   0.058329
 Sum of Mulliken charges =  -1.00000   1.00000

 Dipole moment (field-independent basis, Debye):
    X=             -2.7088    Y=             -1.8910    Z=              0.0791  Tot=              3.3045
 Quadrupole moment (field-independent basis, Debye-Ang):
   XX=           -108.1899   YY=            -88.6431   ZZ=            -78.0937
   XY=             -1.2319   XZ=              2.5325   YZ=              0.2411

 Summary of Natural Population Analysis:

                                       Natural Population
                Natural  -----------------------------------------------
    Atom  No    Charge         Core      Valence    Rydberg      Total
 -----------------------------------------------------------------------
      C    1   -0.31474      0.99963     2.31010    0.00501     3.31474
      C    2   -0.06935      0.99916     2.06388    0.00631     3.06935
      C    3    0.13832      0.99894     1.85154    0.01120     2.86168
      O    4   -0.27505      0.99985     3.26606    0.00913     4.27505
      C    5    0.21336      0.99959     1.76655    0.02050     2.78664
      C    6   -0.10787      0.99957     2.09695    0.01135     3.10787
      N    7   -0.23644      0.99970     2.72048    0.01626     3.73644
      N    8    0.14649      0.99970     2.33760    0.01621     3.35351
      N    9    0.00468      0.99981     2.48298    0.01253     3.49532
      O   10   -0.35918      0.99988     3.35350    0.00579     4.35918
      H   11    0.11433      0.00000     0.38397    0.00170     0.38567
      H   12    0.10506      0.00000     0.39311    0.00183     0.39494
      H   13    0.10412      0.00000     0.39444    0.00144     0.39588
      H   14    0.08662      0.00000     0.41157    0.00181     0.41338
      H   15    0.10715      0.00000     0.38636    0.00649     0.39285
      H   16    0.10016      0.00000     0.39788    0.00196     0.39984
      H   17    0.24232      0.00000     0.25401    0.00367     0.25768
 =======================================================================
   * Total *    0.00000      9.99583    26.87098    0.13319    37.00000

 Normal termination of Gaussian 16 at Tue Dec  8 13:42:30 2020.
