 Gaussian 16, Revision A.03,

 -----------------------------------------------------------
 # opt freq B3LYP/6-31G(d) empiricaldispersion=gd3bj scf=xqc
 -----------------------------------------------------------

 ------------------------------
 CID_28608831_JID_6653_neutraal
 ------------------------------
 Symbolic Z-matrix:
 Charge =  0 Multiplicity = 1

 SCF Done:  E(RB3LYP) =  -692.185219887     A.U. after   14 cycles
 SCF Done:  E(RB3LYP) =  -692.190277385     A.U. after   11 cycles
 SCF Done:  E(RB3LYP) =  -692.190761561     A.U. after   11 cycles
 SCF Done:  E(RB3LYP) =  -692.190866827     A.U. after   11 cycles
 SCF Done:  E(RB3LYP) =  -692.190900321     A.U. after    9 cycles
 SCF Done:  E(RB3LYP) =  -692.190909221     A.U. after    9 cycles
 SCF Done:  E(RB3LYP) =  -692.190911545     A.U. after    9 cycles
 SCF Done:  E(RB3LYP) =  -692.190912493     A.U. after    8 cycles
 SCF Done:  E(RB3LYP) =  -692.190912792     A.U. after    8 cycles
 SCF Done:  E(RB3LYP) =  -692.190912837     A.U. after    7 cycles
 Optimization completed.
    -- Stationary point found.
 Normal termination of Gaussian 16 at Fri Dec 11 00:02:24 2020.

 --------------------------------------------------------------------
 #N Geom=AllCheck Guess=TCheck SCRF=Check GenChk RB3LYP/6-31G(d) Freq
 --------------------------------------------------------------------

 Structure from the checkpoint file:  "JID_6653.chk"
 ------------------------------
 CID_28608831_JID_6653_neutraal
 ------------------------------
 Charge =  0 Multiplicity = 1

 SCF Done:  E(RB3LYP) =  -692.190912837     A.U. after    1 cycles

  Exact polarizability: 209.123  -7.753 140.953  17.060  11.532 114.602
 Approx polarizability: 266.460 -19.888 225.037  38.480  29.523 181.737

                      1                      2                      3
                      A                      A                      A
 Frequencies --     22.3609                36.8344                57.5744
 Red. masses --      3.7183                 4.3361                 3.8696
 Frc consts  --      0.0011                 0.0035                 0.0076
 IR Inten    --      0.0786                 0.0303                 0.2562

                      4                      5                      6
                      A                      A                      A
 Frequencies --     65.9821                81.2213               131.9748
 Red. masses --      3.7796                 1.6862                 3.8470
 Frc consts  --      0.0097                 0.0066                 0.0395
 IR Inten    --      0.9748                 0.9332                 0.7098

                      7                      8                      9
                      A                      A                      A
 Frequencies --    143.2587               201.5952               246.4409
 Red. masses --      3.4906                 2.7735                 3.2632
 Frc consts  --      0.0422                 0.0664                 0.1168
 IR Inten    --      0.9162                 1.6619                 2.6698

                     10                     11                     12
                      A                      A                      A
 Frequencies --    260.7771               293.9287               304.1741
 Red. masses --      1.2335                 2.3714                 3.4631
 Frc consts  --      0.0494                 0.1207                 0.1888
 IR Inten    --      0.7561                 4.1101                 6.2480

                     13                     14                     15
                      A                      A                      A
 Frequencies --    317.8425               364.7856               406.4939
 Red. masses --      3.4181                 2.3363                 2.5443
 Frc consts  --      0.2035                 0.1832                 0.2477
 IR Inten    --      2.5073                 4.8996                 2.4446

                     16                     17                     18
                      A                      A                      A
 Frequencies --    423.7217               428.7740               465.7211
 Red. masses --      3.3982                 2.5935                 3.0492
 Frc consts  --      0.3595                 0.2809                 0.3897
 IR Inten    --      3.4912                 0.3635                 3.1988

                     19                     20                     21
                      A                      A                      A
 Frequencies --    481.2274               520.3547               529.1169
 Red. masses --      3.3754                 2.6596                 3.2100
 Frc consts  --      0.4606                 0.4243                 0.5295
 IR Inten    --      2.5633                 3.0716                 7.2266

                     22                     23                     24
                      A                      A                      A
 Frequencies --    587.0292               614.8799               659.2776
 Red. masses --      2.6684                 1.8218                 6.2877
 Frc consts  --      0.5418                 0.4058                 1.6102
 IR Inten    --     23.6425                 6.2313                 0.4065

                     25                     26                     27
                      A                      A                      A
 Frequencies --    683.9224               746.1782               777.2850
 Red. masses --      3.1492                 3.0184                 2.1882
 Frc consts  --      0.8679                 0.9902                 0.7789
 IR Inten    --      8.7981                20.6794                96.2265

                     28                     29                     30
                      A                      A                      A
 Frequencies --    820.6532               828.6041               833.9801
 Red. masses --      1.4997                 1.2165                 1.4707
 Frc consts  --      0.5951                 0.4921                 0.6027
 IR Inten    --     18.2829                 1.2627                18.2179

                     31                     32                     33
                      A                      A                      A
 Frequencies --    851.9085               858.0475               865.0256
 Red. masses --      2.7077                 2.7604                 1.8707
 Frc consts  --      1.1578                 1.1974                 0.8247
 IR Inten    --     28.4362                 0.7224                 0.7260

                     34                     35                     36
                      A                      A                      A
 Frequencies --    889.7371               908.7602               945.3706
 Red. masses --      1.7383                 2.4069                 2.8458
 Frc consts  --      0.8108                 1.1711                 1.4985
 IR Inten    --     31.3807                 5.8582                60.3153

                     37                     38                     39
                      A                      A                      A
 Frequencies --    947.2381               952.6466               987.0032
 Red. masses --      1.3234                 1.3689                 1.4766
 Frc consts  --      0.6996                 0.7320                 0.8475
 IR Inten    --      1.5914                 1.4312                 6.5604

                     40                     41                     42
                      A                      A                      A
 Frequencies --   1023.1748              1033.3133              1043.0059
 Red. masses --      2.5552                 2.9274                 2.8250
 Frc consts  --      1.5760                 1.8416                 1.8107
 IR Inten    --      0.2556                 0.7082                 1.7598

                     43                     44                     45
                      A                      A                      A
 Frequencies --   1062.3478              1100.7832              1128.1672
 Red. masses --      2.3219                 1.7866                 2.5650
 Frc consts  --      1.5439                 1.2755                 1.9235
 IR Inten    --     43.9845                16.3741                20.5507

                     46                     47                     48
                      A                      A                      A
 Frequencies --   1140.6168              1145.2069              1156.8369
 Red. masses --      1.9658                 5.8972                 2.2089
 Frc consts  --      1.5068                 4.5569                 1.7417
 IR Inten    --     20.6474                85.8745                 2.1696

                     49                     50                     51
                      A                      A                      A
 Frequencies --   1163.0150              1178.5510              1195.1766
 Red. masses --      1.9535                 1.5230                 2.4093
 Frc consts  --      1.5568                 1.2464                 2.0277
 IR Inten    --     11.3034                12.4211                 8.4312

                     52                     53                     54
                      A                      A                      A
 Frequencies --   1223.5949              1242.4697              1254.2059
 Red. masses --      1.4700                 1.9997                 1.2091
 Frc consts  --      1.2967                 1.8188                 1.1206
 IR Inten    --     43.9443                26.1935                26.6912

                     55                     56                     57
                      A                      A                      A
 Frequencies --   1259.9170              1284.1861              1298.7540
 Red. masses --      1.5646                 1.4029                 1.2734
 Frc consts  --      1.4633                 1.3631                 1.2655
 IR Inten    --     74.0805                 3.4548                30.7336

                     58                     59                     60
                      A                      A                      A
 Frequencies --   1331.6018              1336.7548              1349.4649
 Red. masses --      1.3061                 1.2246                 2.1892
 Frc consts  --      1.3645                 1.2892                 2.3488
 IR Inten    --      4.1222                18.9449                 0.7349

                     61                     62                     63
                      A                      A                      A
 Frequencies --   1372.1238              1378.7031              1382.7335
 Red. masses --      1.6347                 1.3161                 1.2681
 Frc consts  --      1.8133                 1.4739                 1.4285
 IR Inten    --      1.1239                 6.7683                27.0229

                     64                     65                     66
                      A                      A                      A
 Frequencies --   1404.8650              1411.9560              1413.8860
 Red. masses --      1.2582                 1.2975                 1.2880
 Frc consts  --      1.4631                 1.5240                 1.5170
 IR Inten    --     16.7252                 5.8163                 9.7478

                     67                     68                     69
                      A                      A                      A
 Frequencies --   1427.5695              1440.3300              1441.9402
 Red. masses --      2.1520                 1.3292                 1.3240
 Frc consts  --      2.5840                 1.6247                 1.6219
 IR Inten    --     60.7419                28.0647                 6.8231

                     70                     71                     72
                      A                      A                      A
 Frequencies --   1474.1637              1497.9715              1506.2903
 Red. masses --      2.7790                 1.0974                 1.0968
 Frc consts  --      3.5582                 1.4508                 1.4661
 IR Inten    --      1.7757                 3.2645                 5.5036

                     73                     74                     75
                      A                      A                      A
 Frequencies --   1512.3070              1514.0328              1521.8150
 Red. masses --      1.1195                 1.0871                 1.1072
 Frc consts  --      1.5085                 1.4682                 1.5107
 IR Inten    --     12.7816                 0.5630                12.0712

                     76                     77                     78
                      A                      A                      A
 Frequencies --   1527.4504              1527.7923              1531.5223
 Red. masses --      1.1023                 1.0769                 1.0779
 Frc consts  --      1.5152                 1.4810                 1.4897
 IR Inten    --      2.4957                15.2634                 2.9895

                     79                     80                     81
                      A                      A                      A
 Frequencies --   1554.6336              1567.7399              1622.2825
 Red. masses --      1.0898                 2.5033                 6.0334
 Frc consts  --      1.5519                 3.6250                 9.3554
 IR Inten    --      4.2409               134.4436                 8.2615

                     82                     83                     84
                      A                      A                      A
 Frequencies --   1676.2045              2969.4914              2993.7734
 Red. masses --      5.7655                 1.0711                 1.0697
 Frc consts  --      9.5442                 5.5649                 5.6489
 IR Inten    --    101.0887                53.2834                32.1275

                     85                     86                     87
                      A                      A                      A
 Frequencies --   3006.3451              3040.8619              3043.8944
 Red. masses --      1.0692                 1.0682                 1.0599
 Frc consts  --      5.6934                 5.8196                 5.7858
 IR Inten    --     39.4446                20.7622                42.5330

                     88                     89                     90
                      A                      A                      A
 Frequencies --   3047.5065              3049.0258              3057.3631
 Red. masses --      1.0572                 1.0688                 1.0700
 Frc consts  --      5.7849                 5.8541                 5.8930
 IR Inten    --     49.2136                25.9718                69.1026

                     91                     92                     93
                      A                      A                      A
 Frequencies --   3084.9728              3106.9913              3108.7195
 Red. masses --      1.1058                 1.0948                 1.0973
 Frc consts  --      6.2007                 6.2266                 6.2477
 IR Inten    --     23.3477                51.5414                74.3769

                     94                     95                     96
                      A                      A                      A
 Frequencies --   3108.9240              3129.0370              3131.2240
 Red. masses --      1.0989                 1.0958                 1.1031
 Frc consts  --      6.2580                 6.3214                 6.3722
 IR Inten    --     38.9399                18.9691                28.9496

                     97                     98                     99
                      A                      A                      A
 Frequencies --   3152.1685              3163.7196              3173.7028
 Red. masses --      1.0944                 1.0885                 1.0890
 Frc consts  --      6.4066                 6.4193                 6.4624
 IR Inten    --     19.8533                16.4277                20.6080

                    100                    101                    102
                      A                      A                      A
 Frequencies --   3207.1440              3224.7551              3463.3785
 Red. masses --      1.0910                 1.0902                 1.0734
 Frc consts  --      6.6117                 6.6794                 7.5859
 IR Inten    --     19.4713                17.9348                 1.9314

 - Thermochemistry -
 -------------------
 Temperature   298.150 Kelvin.  Pressure   1.00000 Atm.
 Atom     1 has atomic number  6 and mass  12.00000

 Molecular mass:   220.15756 amu.
 Principal axes and moments of inertia in atomic units:
                           1         2         3
     Eigenvalues --  1268.012428486.130528825.87554
           X            0.99997   0.00664  -0.00272
           Y           -0.00659   0.99982   0.01751
           Z            0.00284  -0.01749   0.99984
 This molecule is an asymmetric top.
 Rotational symmetry number  1.
 Warning -- assumption of classical behavior for rotation
           may cause significant error
 Rotational temperatures (Kelvin)      0.06831     0.01021     0.00981
 Rotational constants (GHZ):           1.42328     0.21267     0.20448
 Zero-point vibrational energy     840162.3 (Joules/Mol)
                                  200.80360 (Kcal/Mol)
 Warning -- explicit consideration of  23 degrees of freedom as
           vibrations may cause significant error
 Vibrational temperatures:     32.17    53.00    82.84    94.93   116.86
          (Kelvin)            189.88   206.12   290.05   354.57   375.20
                              422.90   437.64   457.30   524.85   584.85
                              609.64   616.91   670.07   692.38   748.67
                              761.28   844.60   884.68   948.55   984.01
                             1073.58  1118.34  1180.74  1192.18  1199.91
                             1225.71  1234.54  1244.58  1280.13  1307.50
                             1360.18  1362.86  1370.65  1420.08  1472.12
                             1486.71  1500.65  1528.48  1583.78  1623.18
                             1641.09  1647.70  1664.43  1673.32  1695.67
                             1719.59  1760.48  1787.64  1804.52  1812.74
                             1847.66  1868.62  1915.88  1923.29  1941.58
                             1974.18  1983.65  1989.45  2021.29  2031.49
                             2034.27  2053.95  2072.31  2074.63  2120.99
                             2155.25  2167.22  2175.87  2178.36  2189.55
                             2197.66  2198.15  2203.52  2236.77  2255.63
                             2334.10  2411.68  4272.44  4307.37  4325.46
                             4375.12  4379.49  4384.68  4386.87  4398.86
                             4438.59  4470.27  4472.75  4473.05  4501.99
                             4505.13  4535.27  4551.89  4566.25  4614.36
                             4639.70  4983.03

 Zero-point correction=                           0.320001 (Hartree/Particle)
 Thermal correction to Energy=                    0.335146
 Thermal correction to Enthalpy=                  0.336090
 Thermal correction to Gibbs Free Energy=         0.276023
 Sum of electronic and zero-point Energies=           -691.870912
 Sum of electronic and thermal Energies=              -691.855767
 Sum of electronic and thermal Enthalpies=            -691.854823
 Sum of electronic and thermal Free Energies=         -691.914890

                     E (Thermal)             CV                S
                      KCal/Mol        Cal/Mol-Kelvin    Cal/Mol-Kelvin
 Total                  210.307             58.759            126.422
 Electronic               0.000              0.000              0.000
 Translational            0.889              2.981             42.070
 Rotational               0.889              2.981             32.918
 Vibrational            208.530             52.797             51.434
 Vibration     1          0.593              1.985              6.413
 Vibration     2          0.594              1.982              5.422
 Vibration     3          0.596              1.974              4.539
 Vibration     4          0.597              1.970              4.270
 Vibration     5          0.600              1.962              3.861
 Vibration     6          0.612              1.921              2.917
 Vibration     7          0.616              1.910              2.760
 Vibration     8          0.638              1.838              2.118
 Vibration     9          0.661              1.769              1.756
 Vibration    10          0.669              1.744              1.657
 Vibration    11          0.689              1.685              1.451
 Vibration    12          0.695              1.666              1.394
 Vibration    13          0.704              1.639              1.321
 Vibration    14          0.738              1.545              1.102
 Vibration    15          0.771              1.456              0.939
 Vibration    16          0.786              1.419              0.879
 Vibration    17          0.790              1.408              0.863
 Vibration    18          0.823              1.326              0.750
 Vibration    19          0.838              1.292              0.707
 Vibration    20          0.875              1.205              0.609
 Vibration    21          0.884              1.186              0.589
 Vibration    22          0.944              1.059              0.473
 Vibration    23          0.974              1.000              0.425

                           ! Non-Optimized Parameters !
 Normal termination of Gaussian 16 at Fri Dec 11 00:13:08 2020.

 ----------------------------------------------------------------------
 # B3LYP/6-311++G(d,p) empiricaldispersion=gd3bj scf=xqc pop=npa geom=c
 heck
 ----------------------------------------------------------------------

 --------------------------------------
 CID_28608831_JID_6653_Energie_neutraal
 --------------------------------------
 Structure from the checkpoint file:  "JID_6653.chk"
 Charge =  0 Multiplicity = 1

 SCF Done:  E(RB3LYP) =  -692.381553981     A.U. after   14 cycles
 Normal termination of Gaussian 16 at Fri Dec 11 00:17:42 2020.

 ----------------------------------------------------------------------
 # B3LYP/6-311++G(d,p) empiricaldispersion=gd3bj scf=xqc pop=npa geom=c
 heck
 ----------------------------------------------------------------------

 ------------------------------------
 CID_28608831_JID_6653_Energie_kation
 ------------------------------------
 Structure from the checkpoint file:  "JID_6653.chk"
 Charge =  1 Multiplicity = 2

 SCF Done:  E(UB3LYP) =  -692.124248606     A.U. after   23 cycles
 Normal termination of Gaussian 16 at Fri Dec 11 00:27:45 2020.
 Gaussian 16:  ES64L-G16RevA.03 25-Dec-2016

 ----------------------------------------------------------------------
 # B3LYP/6-311++G(d,p) empiricaldispersion=gd3bj scf=xqc pop=npa geom=c
 heck
 ----------------------------------------------------------------------

 -----------------------------------
 CID_28608831_JID_6653_Energie_anion
 -----------------------------------
 Structure from the checkpoint file:  "JID_6653.chk"
 Charge = -1 Multiplicity = 2

                         Standard orientation:
 ---------------------------------------------------------------------
 Center     Atomic      Atomic             Coordinates (Angstroms)
 Number     Number       Type             X           Y           Z
 ---------------------------------------------------------------------
      1          6           0        5.414982    1.137034   -1.089869
      2          6           0        4.278166    0.861547   -0.110456
      3          7           0        4.227019   -0.560575    0.226531
      4          6           0        3.155584   -0.915992    1.168385
      5          6           0        1.743427   -0.652284    0.684979
      6          6           0        1.100069   -1.550768   -0.177111
      7          6           0       -0.165704   -1.296637   -0.686773
      8          6           0       -0.866963   -0.121076   -0.344420
      9          6           0       -0.224921    0.779609    0.524926
     10          6           0        1.053534    0.515127    1.015640
     11          7           0       -2.128677    0.132487   -0.914574
     12          6           0       -2.797488    1.406417   -0.656581
     13          6           0       -3.640702    1.353317    0.620043
     14          8           0       -4.591010    0.296021    0.539215
     15          6           0       -3.953903   -0.959158    0.332802
     16          6           0       -3.119304   -0.950035   -0.950597
     17          1           0        6.369674    0.795283   -0.677578
     18          1           0        5.488901    2.207234   -1.311993
     19          1           0        5.249757    0.612323   -2.039632
     20          1           0        4.452207    1.412383    0.824227
     21          1           0        3.328558    1.244408   -0.524351
     22          1           0        4.088941   -1.091708   -0.633876
     23          1           0        3.273871   -1.980423    1.405127
     24          1           0        3.339823   -0.359894    2.096181
     25          1           0        1.607268   -2.470008   -0.465424
     26          1           0       -0.606431   -2.004455   -1.380925
     27          1           0       -0.721817    1.688066    0.843120
     28          1           0        1.514599    1.233300    1.690321
     29          1           0       -3.468594    1.600535   -1.503238
     30          1           0       -2.064102    2.215525   -0.628768
     31          1           0       -2.993632    1.210386    1.500211
     32          1           0       -4.216122    2.274601    0.753722
     33          1           0       -4.753615   -1.704387    0.277970
     34          1           0       -3.303099   -1.200809    1.189826
     35          1           0       -3.779742   -0.782837   -1.810759
     36          1           0       -2.627416   -1.913690   -1.087396
 ---------------------------------------------------------------------

 SCF Done:  E(UB3LYP) =  -692.367801632     A.U. after   33 cycles
 SCF Done:  E(UB3LYP) =  -692.367801632     a.u. after    1 cycles

 The electronic state is 2-A.
 Alpha  occ. eigenvalues --  -19.03670 -14.23321 -14.20586 -10.12626 -10.12563
 Alpha  occ. eigenvalues --  -10.11844 -10.10970 -10.10856 -10.10219 -10.09871
 Alpha  occ. eigenvalues --  -10.07702 -10.07638 -10.07319 -10.07308 -10.07293
 Alpha  occ. eigenvalues --  -10.07290  -0.95301  -0.85240  -0.81536  -0.75286
 Alpha  occ. eigenvalues --   -0.68752  -0.67706  -0.65100  -0.64799  -0.60213
 Alpha  occ. eigenvalues --   -0.57163  -0.56108  -0.52223  -0.51303  -0.50263
 Alpha  occ. eigenvalues --   -0.47254  -0.43747  -0.40244  -0.39539  -0.39020
 Alpha  occ. eigenvalues --   -0.38288  -0.37972  -0.37092  -0.36177  -0.35215
 Alpha  occ. eigenvalues --   -0.34674  -0.33769  -0.32747  -0.31328  -0.30763
 Alpha  occ. eigenvalues --   -0.29492  -0.28755  -0.27832  -0.27443  -0.27115
 Alpha  occ. eigenvalues --   -0.26715  -0.25982  -0.25554  -0.23976  -0.23510
 Alpha  occ. eigenvalues --   -0.19935  -0.17216  -0.16004  -0.13787  -0.10103
 Alpha  occ. eigenvalues --    0.04172
 Alpha virt. eigenvalues --    0.06088   0.06194   0.07128   0.07424   0.07906
 Alpha virt. eigenvalues --    0.08000   0.08252   0.09293   0.09536   0.09718
 Alpha virt. eigenvalues --    0.10036   0.10237   0.10626   0.10963   0.11423

  Beta  occ. eigenvalues --  -19.03665 -14.23322 -14.20575 -10.12611 -10.12543
  Beta  occ. eigenvalues --  -10.11834 -10.10949 -10.10834 -10.10210 -10.09860
  Beta  occ. eigenvalues --  -10.07687 -10.07621 -10.07313 -10.07290 -10.07282
  Beta  occ. eigenvalues --  -10.07274  -0.95286  -0.85224  -0.81515  -0.75260
  Beta  occ. eigenvalues --   -0.68719  -0.67678  -0.65065  -0.64769  -0.60186
  Beta  occ. eigenvalues --   -0.57112  -0.56077  -0.52179  -0.51258  -0.50220
  Beta  occ. eigenvalues --   -0.47212  -0.43704  -0.40215  -0.39510  -0.38996
  Beta  occ. eigenvalues --   -0.38263  -0.37935  -0.37065  -0.36141  -0.35189
  Beta  occ. eigenvalues --   -0.34637  -0.33745  -0.32710  -0.31304  -0.30719
  Beta  occ. eigenvalues --   -0.29463  -0.28729  -0.27801  -0.27408  -0.27083
  Beta  occ. eigenvalues --   -0.26681  -0.25956  -0.25529  -0.23950  -0.23490
  Beta  occ. eigenvalues --   -0.19902  -0.17175  -0.15967  -0.13772  -0.10080
  Beta virt. eigenvalues --    0.06113   0.06719   0.07227   0.07431   0.07920
  Beta virt. eigenvalues --    0.08032   0.08244   0.08492   0.09530   0.09843
  Beta virt. eigenvalues --    0.10096   0.10385   0.10472   0.10815   0.11211

 Mulliken charges and spin densities:
               1          2
     1  C    0.165239  -0.749145
     2  C   -0.239417  -0.051962
     3  N   -0.014679   0.004285
     4  C    0.224333  -0.880157
     5  C    1.517523  -0.826720
     6  C   -1.105937   0.635046
     7  C   -0.076382  -0.100361
     8  C    1.584777  -1.888284
     9  C   -0.526558   0.273173
    10  C   -0.703744   0.536167
    11  N    0.143736   0.047349
    12  C   -0.072473  -0.032468
    13  C    0.452706  -0.811952
    14  O   -0.178364   0.049249
    15  C    0.272628  -0.739025
    16  C    0.001274  -0.087154
    17  H   -0.011876   0.160009
    18  H   -0.072397   0.198155
    19  H   -0.077202   0.205744
    20  H   -0.011151   0.165169
    21  H    0.268197  -0.114209
    22  H    0.190416   0.007632
    23  H   -0.003832   0.186641
    24  H    0.080516   0.065364
    25  H   -0.483435   0.653241
    26  H   -0.610850   0.787511
    27  H   -0.458155   0.605203
    28  H   -0.382768   0.547644
    29  H   -0.108181   0.293090
    30  H   -0.235308   0.404013
    31  H    0.072184   0.075608
    32  H   -0.298412   0.478509
    33  H   -0.202342   0.388264
    34  H    0.141435  -0.010205
    35  H   -0.077493   0.253730
    36  H   -0.164008   0.270847
 Sum of Mulliken charges =  -1.00000   1.00000

 Dipole moment (field-independent basis, Debye):
    X=              1.0114    Y=             -0.1111    Z=              0.7243  Tot=              1.2489
 Quadrupole moment (field-independent basis, Debye-Ang):
   XX=           -195.6929   YY=           -148.4958   ZZ=           -130.8109
   XY=              1.3461   XZ=              0.3302   YZ=             -4.9564

 Summary of Natural Population Analysis:

                                       Natural Population
                Natural  -----------------------------------------------
    Atom  No    Charge         Core      Valence    Rydberg      Total
 -----------------------------------------------------------------------
      C    1   -0.28632      0.99967     2.28210    0.00455     3.28632
      C    2   -0.08992      0.99964     2.08116    0.00912     3.08992
      N    3   -0.33557      0.99975     2.82414    0.01168     3.83557
      C    4   -0.09156      0.99959     2.08039    0.01158     3.09156
      C    5   -0.04718      0.99949     2.03825    0.00944     3.04718
      C    6   -0.09181      0.99952     2.08142    0.01088     3.09181
      C    7   -0.11463      0.99953     2.10542    0.00968     3.11463
      C    8    0.09314      0.99947     1.89522    0.01217     2.90686
      C    9   -0.12864      0.99953     2.11968    0.00943     3.12864
      C   10   -0.08892      0.99952     2.07921    0.01019     3.08892
      N   11   -0.25956      0.99968     2.74692    0.01296     3.75956
      C   12   -0.10075      0.99961     2.08975    0.01140     3.10075
      C   13   -0.01921      0.99958     2.00747    0.01216     3.01921
      O   14   -0.30052      0.99989     3.29106    0.00957     4.30052
      C   15   -0.01842      0.99958     2.00676    0.01208     3.01842
      C   16   -0.09585      0.99960     2.08532    0.01092     3.09585
      H   17    0.09805      0.00000     0.40057    0.00138     0.40195
      H   18    0.09819      0.00000     0.40072    0.00109     0.40181
      H   19    0.09450      0.00000     0.40426    0.00123     0.40550
      H   20    0.08692      0.00000     0.41137    0.00171     0.41308
      H   21    0.08515      0.00000     0.41286    0.00199     0.41485
      H   22    0.16790      0.00000     0.32852    0.00357     0.33210
      H   23    0.09641      0.00000     0.40247    0.00111     0.40359
      H   24    0.09294      0.00000     0.40570    0.00136     0.40706
      H   25    0.09916      0.00000     0.39936    0.00149     0.40084
      H   26    0.10235      0.00000     0.39574    0.00191     0.39765
      H   27    0.10230      0.00000     0.39570    0.00199     0.39770
      H   28    0.09945      0.00000     0.39920    0.00135     0.40055
      H   29    0.09806      0.00000     0.40062    0.00132     0.40194
      H   30    0.10587      0.00000     0.39254    0.00159     0.39413
      H   31    0.08077      0.00000     0.41760    0.00163     0.41923
      H   32    0.09308      0.00000     0.40533    0.00159     0.40692
      H   33    0.09280      0.00000     0.40581    0.00139     0.40720
      H   34    0.08054      0.00000     0.41812    0.00135     0.41946
      H   35    0.09562      0.00000     0.40296    0.00142     0.40438
      H   36    0.10566      0.00000     0.39259    0.00176     0.39434
 =======================================================================
   * Total *    0.00000     15.99364    43.80632    0.20004    60.00000

 Normal termination of Gaussian 16 at Fri Dec 11 00:42:25 2020.
