 Gaussian 16, Revision A.03,

 -----------------------------------------------------------
 # opt freq B3LYP/6-31G(d) empiricaldispersion=gd3bj scf=xqc
 -----------------------------------------------------------

 -------------------------------
 CID_138969740_JID_9376_neutraal
 -------------------------------
 Symbolic Z-matrix:
 Charge =  0 Multiplicity = 1

 SCF Done:  E(RB3LYP) =  -804.157899131     A.U. after   14 cycles
 SCF Done:  E(RB3LYP) =  -804.163070107     A.U. after   12 cycles
 SCF Done:  E(RB3LYP) =  -804.163484851     A.U. after   11 cycles
 SCF Done:  E(RB3LYP) =  -804.163585917     A.U. after   11 cycles
 SCF Done:  E(RB3LYP) =  -804.163629084     A.U. after   10 cycles
 SCF Done:  E(RB3LYP) =  -804.163653928     A.U. after   10 cycles
 SCF Done:  E(RB3LYP) =  -804.163656924     A.U. after    8 cycles
 SCF Done:  E(RB3LYP) =  -804.163657171     A.U. after    7 cycles
 Optimization completed.
    -- Stationary point found.
 Normal termination of Gaussian 16 at Mon Dec 14 16:39:13 2020.

 --------------------------------------------------------------------
 #N Geom=AllCheck Guess=TCheck SCRF=Check GenChk RB3LYP/6-31G(d) Freq
 --------------------------------------------------------------------

 Structure from the checkpoint file:  "JID_9376.chk"
 -------------------------------
 CID_138969740_JID_9376_neutraal
 -------------------------------
 Charge =  0 Multiplicity = 1

 SCF Done:  E(RB3LYP) =  -804.163657171     A.U. after    1 cycles

  Exact polarizability: 329.998  -5.528 175.120   0.305  -1.227  86.995
 Approx polarizability: 444.266 -15.522 314.096   0.929  -3.461 137.530

                      1                      2                      3
                      A                      A                      A
 Frequencies --     40.0980                73.4222                88.6668
 Red. masses --      4.4112                 3.1045                 3.0219
 Frc consts  --      0.0042                 0.0099                 0.0140
 IR Inten    --      2.0058                 0.2789                 0.3074

                      4                      5                      6
                      A                      A                      A
 Frequencies --    116.7890               118.5129               184.3401
 Red. masses --      3.3229                 4.7431                 2.9415
 Frc consts  --      0.0267                 0.0393                 0.0589
 IR Inten    --      0.1010                 0.5659                 1.5342

                      7                      8                      9
                      A                      A                      A
 Frequencies --    202.9681               219.1424               235.8097
 Red. masses --      4.2439                 3.6396                 1.8695
 Frc consts  --      0.1030                 0.1030                 0.0613
 IR Inten    --      3.6445                 0.3142                29.3104

                     10                     11                     12
                      A                      A                      A
 Frequencies --    266.6010               287.6037               315.1924
 Red. masses --      1.3160                 3.5475                 2.0447
 Frc consts  --      0.0551                 0.1729                 0.1197
 IR Inten    --     36.5639                 3.0326                 9.1818

                     13                     14                     15
                      A                      A                      A
 Frequencies --    323.7799               355.6829               372.4120
 Red. masses --      2.5633                 2.4588                 3.8614
 Frc consts  --      0.1583                 0.1833                 0.3155
 IR Inten    --     14.8962                10.9694                 9.8296

                     16                     17                     18
                      A                      A                      A
 Frequencies --    417.6282               451.1129               454.7284
 Red. masses --      3.2779                 3.1539                 4.1680
 Frc consts  --      0.3368                 0.3782                 0.5078
 IR Inten    --      0.6781                 4.4885                 1.2209

                     19                     20                     21
                      A                      A                      A
 Frequencies --    460.1055               462.7464               491.0676
 Red. masses --      3.5267                 3.9813                 3.9402
 Frc consts  --      0.4399                 0.5023                 0.5598
 IR Inten    --      0.3223                 2.0328                 3.8763

                     22                     23                     24
                      A                      A                      A
 Frequencies --    550.3305               574.7339               598.1401
 Red. masses --      4.0823                 4.4874                 5.1641
 Frc consts  --      0.7285                 0.8733                 1.0886
 IR Inten    --      6.9477                11.1736                 2.7387

                     25                     26                     27
                      A                      A                      A
 Frequencies --    642.3559               656.8666               664.9025
 Red. masses --      3.6468                 2.9169                 3.8502
 Frc consts  --      0.8866                 0.7415                 1.0029
 IR Inten    --      0.4114                 0.6462                 0.3545

                     28                     29                     30
                      A                      A                      A
 Frequencies --    730.9326               741.0836               748.7290
 Red. masses --      5.5713                 3.6036                 5.4884
 Frc consts  --      1.7537                 1.1661                 1.8128
 IR Inten    --      1.9044                 1.2164                 0.1351

                     31                     32                     33
                      A                      A                      A
 Frequencies --    776.8567               787.8906               816.2906
 Red. masses --      5.0815                 3.0748                 1.8774
 Frc consts  --      1.8069                 1.1246                 0.7370
 IR Inten    --      1.2165                 4.8157                22.3865

                     34                     35                     36
                      A                      A                      A
 Frequencies --    823.0850               832.9711               842.6890
 Red. masses --      6.2585                 1.7167                 1.5880
 Frc consts  --      2.4981                 0.7018                 0.6644
 IR Inten    --      1.2223                29.9768                 6.5718

                     37                     38                     39
                      A                      A                      A
 Frequencies --    885.0021               887.7410               934.5696
 Red. masses --      1.4198                 2.4307                 1.4343
 Frc consts  --      0.6552                 1.1286                 0.7381
 IR Inten    --      7.2549                 0.8298                 3.7884

                     40                     41                     42
                      A                      A                      A
 Frequencies --    958.4255               960.5194               972.1566
 Red. masses --      1.2779                 2.5227                 3.0067
 Frc consts  --      0.6916                 1.3713                 1.6742
 IR Inten    --      0.0241                 2.2742                13.7085

                     43                     44                     45
                      A                      A                      A
 Frequencies --    980.7143              1037.8886              1080.7332
 Red. masses --      2.5724                 4.0023                 3.5767
 Frc consts  --      1.4577                 2.5402                 2.4613
 IR Inten    --      3.0871                 1.2864                36.6789

                     46                     47                     48
                      A                      A                      A
 Frequencies --   1088.9366              1113.6209              1136.7407
 Red. masses --      1.8103                 1.8617                 1.5890
 Frc consts  --      1.2648                 1.3603                 1.2098
 IR Inten    --      3.8400                 5.0839                46.8390

                     49                     50                     51
                      A                      A                      A
 Frequencies --   1163.7952              1172.8542              1186.6541
 Red. masses --      1.4378                 1.6206                 1.2721
 Frc consts  --      1.1474                 1.3135                 1.0554
 IR Inten    --     13.3211                15.9920                 0.7275

                     52                     53                     54
                      A                      A                      A
 Frequencies --   1194.6771              1202.2772              1224.7182
 Red. masses --      1.5719                 1.5667                 1.7890
 Frc consts  --      1.3218                 1.3343                 1.5810
 IR Inten    --     46.4689                96.0464                 4.5882

                     55                     56                     57
                      A                      A                      A
 Frequencies --   1232.8285              1246.3141              1265.8340
 Red. masses --      1.8162                 2.9297                 2.6028
 Frc consts  --      1.6263                 2.6812                 2.4572
 IR Inten    --     99.2710                24.1581                90.4049

                     58                     59                     60
                      A                      A                      A
 Frequencies --   1286.1038              1292.9933              1306.6081
 Red. masses --      1.2989                 2.2418                 1.4711
 Frc consts  --      1.2658                 2.2083                 1.4798
 IR Inten    --      1.3066                69.2163                75.1808

                     61                     62                     63
                      A                      A                      A
 Frequencies --   1328.8699              1355.4047              1362.6276
 Red. masses --      2.5110                 2.1337                 1.9089
 Frc consts  --      2.6125                 2.3095                 2.0883
 IR Inten    --    140.0828                47.7858                 4.3933

                     64                     65                     66
                      A                      A                      A
 Frequencies --   1388.6333              1390.5217              1395.9180
 Red. masses --      1.5443                 1.6425                 2.9190
 Frc consts  --      1.7545                 1.8712                 3.3512
 IR Inten    --      1.0855                11.1649                 9.0630

                     67                     68                     69
                      A                      A                      A
 Frequencies --   1406.5192              1416.4366              1453.0135
 Red. masses --      1.8378                 4.0899                 3.6238
 Frc consts  --      2.1420                 4.8346                 4.5077
 IR Inten    --     48.5307                27.7386               118.5846

                     70                     71                     72
                      A                      A                      A
 Frequencies --   1496.6028              1499.3148              1506.5608
 Red. masses --      1.2663                 2.0315                 1.4617
 Frc consts  --      1.6710                 2.6907                 1.9547
 IR Inten    --     15.2480                30.7693                67.3111

                     73                     74                     75
                      A                      A                      A
 Frequencies --   1510.2172              1520.0796              1520.5578
 Red. masses --      1.0963                 1.0480                 1.1721
 Frc consts  --      1.4732                 1.4267                 1.5967
 IR Inten    --      6.3970                 5.3569                 8.7442

                     76                     77                     78
                      A                      A                      A
 Frequencies --   1528.6296              1532.4471              1537.4286
 Red. masses --      2.7065                 1.1862                 1.1005
 Frc consts  --      3.7262                 1.6413                 1.5326
 IR Inten    --     23.3335                 6.0839                20.1122

                     79                     80                     81
                      A                      A                      A
 Frequencies --   1557.6995              1607.2301              1634.9482
 Red. masses --      3.0896                 7.2541                 7.4859
 Frc consts  --      4.4170                11.0406                11.7896
 IR Inten    --     44.9742                12.8438                15.7038

                     82                     83                     84
                      A                      A                      A
 Frequencies --   1674.6755              1685.7360              3009.9701
 Red. masses --      6.9445                 6.9842                 1.0688
 Frc consts  --     11.4750                11.6935                 5.7054
 IR Inten    --     38.0444               253.9697                32.9817

                     85                     86                     87
                      A                      A                      A
 Frequencies --   3020.3374              3021.6830              3031.0693
 Red. masses --      1.0725                 1.0352                 1.0673
 Frc consts  --      5.7643                 5.5690                 5.7774
 IR Inten    --     20.0529                63.1963                22.9984

                     88                     89                     90
                      A                      A                      A
 Frequencies --   3037.1690              3060.9400              3078.8707
 Red. masses --      1.0617                 1.0916                 1.1064
 Frc consts  --      5.7701                 6.0262                 6.1794
 IR Inten    --     33.4999                49.2545                46.1712

                     91                     92                     93
                      A                      A                      A
 Frequencies --   3082.7989              3084.6119              3092.9606
 Red. masses --      1.0952                 1.1026                 1.0937
 Frc consts  --      6.1323                 6.1811                 6.1646
 IR Inten    --     90.8712                49.8817                26.8405

                     94                     95                     96
                      A                      A                      A
 Frequencies --   3158.2741              3174.9905              3209.3980
 Red. masses --      1.0992                 1.0909                 1.0877
 Frc consts  --      6.4602                 6.4792                 6.6009
 IR Inten    --     32.4948                19.7736                 2.8578

                     97                     98                     99
                      A                      A                      A
 Frequencies --   3224.9262              3226.9767              3664.7772
 Red. masses --      1.0948                 1.0900                 1.0793
 Frc consts  --      6.7087                 6.6874                 8.5403
 IR Inten    --     10.8293                11.6043                40.1742

 - Thermochemistry -
 -------------------
 Temperature   298.150 Kelvin.  Pressure   1.00000 Atm.
 Atom     1 has atomic number  6 and mass  12.00000

 Molecular mass:   252.12626 amu.
 Principal axes and moments of inertia in atomic units:
                           1         2         3
     Eigenvalues --  1265.17475********************
           X            0.99998   0.00637  -0.00012
           Y           -0.00637   0.99998  -0.00022
           Z            0.00012   0.00022   1.00000
 This molecule is an asymmetric top.
 Rotational symmetry number  1.
 Warning -- assumption of classical behavior for rotation
           may cause significant error
 Rotational temperatures (Kelvin)      0.06846     0.00802     0.00723
 Rotational constants (GHZ):           1.42648     0.16711     0.15067
 Zero-point vibrational energy     765782.3 (Joules/Mol)
                                  183.02636 (Kcal/Mol)
 Warning -- explicit consideration of  24 degrees of freedom as
           vibrations may cause significant error
 Vibrational temperatures:     57.69   105.64   127.57   168.03   170.51
          (Kelvin)            265.22   292.03   315.30   339.28   383.58
                              413.80   453.49   465.85   511.75   535.82
                              600.87   649.05   654.25   661.99   665.79
                              706.54   791.80   826.91   860.59   924.21
                              945.08   956.65  1051.65  1066.25  1077.25
                             1117.72  1133.60  1174.46  1184.24  1198.46
                             1212.44  1273.32  1277.26  1344.64  1378.96
                             1381.97  1398.72  1411.03  1493.29  1554.93
                             1566.74  1602.25  1635.52  1674.44  1687.48
                             1707.33  1718.87  1729.81  1762.10  1773.77
                             1793.17  1821.25  1850.42  1860.33  1879.92
                             1911.95  1950.12  1960.52  1997.93  2000.65
                             2008.41  2023.67  2037.94  2090.56  2153.28
                             2157.18  2167.60  2172.87  2187.06  2187.74
                             2199.36  2204.85  2212.02  2241.18  2312.45
                             2352.33  2409.48  2425.40  4330.68  4345.59
                             4347.53  4361.03  4369.81  4404.01  4429.81
                             4435.46  4438.07  4450.08  4544.05  4568.10
                             4617.61  4639.95  4642.90  5272.80

 Zero-point correction=                           0.291671 (Hartree/Particle)
 Thermal correction to Energy=                    0.306853
 Thermal correction to Enthalpy=                  0.307797
 Thermal correction to Gibbs Free Energy=         0.249594
 Sum of electronic and zero-point Energies=           -803.871986
 Sum of electronic and thermal Energies=              -803.856804
 Sum of electronic and thermal Enthalpies=            -803.855860
 Sum of electronic and thermal Free Energies=         -803.914063

                     E (Thermal)             CV                S
                      KCal/Mol        Cal/Mol-Kelvin    Cal/Mol-Kelvin
 Total                  192.553             61.674            122.499
 Electronic               0.000              0.000              0.000
 Translational            0.889              2.981             42.475
 Rotational               0.889              2.981             33.459
 Vibrational            190.776             55.712             46.566
 Vibration     1          0.594              1.981              5.254
 Vibration     2          0.599              1.967              4.059
 Vibration     3          0.601              1.957              3.689
 Vibration     4          0.608              1.935              3.153
 Vibration     5          0.609              1.934              3.124
 Vibration     6          0.631              1.861              2.284
 Vibration     7          0.639              1.836              2.106
 Vibration     8          0.647              1.812              1.966
 Vibration     9          0.655              1.786              1.834
 Vibration    10          0.672              1.734              1.618
 Vibration    11          0.685              1.697              1.488
 Vibration    12          0.703              1.645              1.335
 Vibration    13          0.708              1.628              1.291
 Vibration    14          0.731              1.564              1.141
 Vibration    15          0.744              1.529              1.070
 Vibration    16          0.781              1.432              0.900
 Vibration    17          0.810              1.358              0.792
 Vibration    18          0.813              1.350              0.782
 Vibration    19          0.818              1.339              0.766
 Vibration    20          0.820              1.333              0.758
 Vibration    21          0.847              1.270              0.681
 Vibration    22          0.906              1.139              0.543
 Vibration    23          0.931              1.086              0.495
 Vibration    24          0.956              1.036              0.453

                           ! Non-Optimized Parameters !
 Normal termination of Gaussian 16 at Mon Dec 14 16:56:03 2020.

 ----------------------------------------------------------------------
 # B3LYP/6-311++G(d,p) empiricaldispersion=gd3bj scf=xqc pop=npa geom=c
 heck
 ----------------------------------------------------------------------

 ---------------------------------------
 CID_138969740_JID_9376_Energie_neutraal
 ---------------------------------------
 Structure from the checkpoint file:  "JID_9376.chk"
 Charge =  0 Multiplicity = 1

 SCF Done:  E(RB3LYP) =  -804.367737852     A.U. after   15 cycles
 Normal termination of Gaussian 16 at Mon Dec 14 17:03:32 2020.

 ----------------------------------------------------------------------
 # B3LYP/6-311++G(d,p) empiricaldispersion=gd3bj scf=xqc pop=npa geom=c
 heck
 ----------------------------------------------------------------------

 -------------------------------------
 CID_138969740_JID_9376_Energie_kation
 -------------------------------------
 Structure from the checkpoint file:  "JID_9376.chk"
 Charge =  1 Multiplicity = 2

 SCF Done:  E(UB3LYP) =  -804.106485612     A.U. after   24 cycles
 Normal termination of Gaussian 16 at Mon Dec 14 17:20:45 2020.
 Gaussian 16:  ES64L-G16RevA.03 25-Dec-2016

 ----------------------------------------------------------------------
 # B3LYP/6-311++G(d,p) empiricaldispersion=gd3bj scf=xqc pop=npa geom=c
 heck
 ----------------------------------------------------------------------

 ------------------------------------
 CID_138969740_JID_9376_Energie_anion
 ------------------------------------
 Structure from the checkpoint file:  "JID_9376.chk"
 Charge = -1 Multiplicity = 2

                         Standard orientation:
 ---------------------------------------------------------------------
 Center     Atomic      Atomic             Coordinates (Angstroms)
 Number     Number       Type             X           Y           Z
 ---------------------------------------------------------------------
      1          6           0       -6.005036   -0.765372    0.006221
      2          8           0       -5.293186    0.458465   -0.011024
      3          6           0       -3.928882    0.407635   -0.008564
      4          6           0       -3.195485   -0.781576    0.008919
      5          6           0       -1.802435   -0.668096    0.009114
      6          6           0       -1.142619    0.585257   -0.007232
      7          6           0       -1.906909    1.758464   -0.024954
      8          6           0       -3.288539    1.667546   -0.025442
      9          6           0        0.277437    0.307120   -0.001255
     10          6           0        0.420756   -1.108781    0.019663
     11          7           0       -0.845142   -1.675680    0.023991
     12          6           0        1.691075   -1.662713    0.029798
     13          6           0        2.781813   -0.784724    0.020292
     14          6           0        4.191254   -1.343933    0.066813
     15          6           0        5.254774   -0.333330   -0.374089
     16          6           0        5.037681    1.001960    0.342793
     17          6           0        3.687294    1.603465   -0.057397
     18          6           0        2.543398    0.610164   -0.003546
     19          7           0        1.312983    1.147277   -0.014368
     20          1           0       -7.063262   -0.498697    0.001626
     21          1           0       -5.781104   -1.348824    0.909462
     22          1           0       -5.779914   -1.374774   -0.879425
     23          1           0       -3.675221   -1.752722    0.021624
     24          1           0       -1.412346    2.724528   -0.037802
     25          1           0       -3.915114    2.552700   -0.038617
     26          1           0       -1.043849   -2.663369    0.041036
     27          1           0        1.851168   -2.738752    0.045042
     28          1           0        4.246504   -2.252584   -0.546375
     29          1           0        4.413189   -1.661937    1.097090
     30          1           0        5.189361   -0.176788   -1.459754
     31          1           0        6.254452   -0.733569   -0.168269
     32          1           0        5.064236    0.835438    1.428989
     33          1           0        5.844675    1.706560    0.110481
     34          1           0        3.429457    2.461364    0.572678
     35          1           0        3.754905    1.994004   -1.083763
 ---------------------------------------------------------------------

 SCF Done:  E(UB3LYP) =  -804.359794339     A.U. after   33 cycles
 SCF Done:  E(UB3LYP) =  -804.362261145     a.u. after   10 cycles

 The electronic state is 2-A.
 Alpha  occ. eigenvalues --  -19.04834 -14.24009 -14.17254 -10.12397 -10.12035
 Alpha  occ. eigenvalues --  -10.10169 -10.09384 -10.08336 -10.07635 -10.07509
 Alpha  occ. eigenvalues --  -10.07348 -10.07308 -10.06482 -10.06058 -10.06027
 Alpha  occ. eigenvalues --  -10.05953 -10.05752 -10.05385 -10.04982  -0.96521
 Alpha  occ. eigenvalues --   -0.86956  -0.81071  -0.73503  -0.72656  -0.68260
 Alpha  occ. eigenvalues --   -0.66339  -0.64169  -0.62994  -0.61939  -0.59664
 Alpha  occ. eigenvalues --   -0.54424  -0.51728  -0.51197  -0.49251  -0.46940
 Alpha  occ. eigenvalues --   -0.46083  -0.43759  -0.41140  -0.39257  -0.38630
 Alpha  occ. eigenvalues --   -0.37283  -0.36979  -0.36187  -0.34682  -0.33314
 Alpha  occ. eigenvalues --   -0.32949  -0.32749  -0.32308  -0.31292  -0.30789
 Alpha  occ. eigenvalues --   -0.29272  -0.28704  -0.27964  -0.26398  -0.26296
 Alpha  occ. eigenvalues --   -0.24924  -0.24408  -0.23240  -0.23097  -0.22851
 Alpha  occ. eigenvalues --   -0.21831  -0.20781  -0.16078  -0.14989  -0.13411
 Alpha  occ. eigenvalues --   -0.10056  -0.09266   0.04175
 Alpha virt. eigenvalues --    0.05860   0.06333   0.06968   0.08178   0.08781
 Alpha virt. eigenvalues --    0.08870   0.09553   0.09785   0.09880   0.10362
 Alpha virt. eigenvalues --    0.10865   0.11258   0.11466   0.12328   0.12606

  Beta  occ. eigenvalues --  -19.04797 -14.23985 -14.17025 -10.12368 -10.11925
  Beta  occ. eigenvalues --  -10.10151 -10.09423 -10.08364 -10.07631 -10.07509
  Beta  occ. eigenvalues --  -10.07312 -10.07265 -10.06482 -10.06048 -10.05933
  Beta  occ. eigenvalues --  -10.05848 -10.05600 -10.05421 -10.04977  -0.96432
  Beta  occ. eigenvalues --   -0.86887  -0.80790  -0.73393  -0.72568  -0.68070
  Beta  occ. eigenvalues --   -0.66191  -0.64102  -0.62900  -0.61816  -0.59576
  Beta  occ. eigenvalues --   -0.54295  -0.51666  -0.51147  -0.49089  -0.46807
  Beta  occ. eigenvalues --   -0.46005  -0.43668  -0.41072  -0.39173  -0.38530
  Beta  occ. eigenvalues --   -0.37220  -0.36859  -0.36137  -0.34601  -0.33280
  Beta  occ. eigenvalues --   -0.32866  -0.32677  -0.32088  -0.31237  -0.30724
  Beta  occ. eigenvalues --   -0.29145  -0.28624  -0.27905  -0.26322  -0.26045
  Beta  occ. eigenvalues --   -0.24868  -0.24315  -0.23169  -0.22972  -0.22545
  Beta  occ. eigenvalues --   -0.21784  -0.20473  -0.15337  -0.14640  -0.13151
  Beta  occ. eigenvalues --   -0.09705  -0.08823
  Beta virt. eigenvalues --    0.06260   0.06655   0.07540   0.07729   0.08410
  Beta virt. eigenvalues --    0.08866   0.09006   0.09607   0.10058   0.10260
  Beta virt. eigenvalues --    0.10611   0.10995   0.11315   0.11536   0.12347

 Mulliken charges and spin densities:
               1          2
     1  C    0.413969  -0.753179
     2  O   -0.205381   0.040924
     3  C   -0.482650   0.108968
     4  C   -0.227482  -0.081825
     5  C    0.422828  -0.566486
     6  C    1.648444  -0.634573
     7  C   -0.332132   0.210674
     8  C   -0.577450   0.177163
     9  C    0.296940  -0.236443
    10  C   -0.551440   0.304783
    11  N   -0.207333   0.094668
    12  C   -0.206766   0.070727
    13  C    0.655507  -0.101029
    14  C   -0.486019  -0.022334
    15  C   -0.165974  -0.114297
    16  C   -0.260749   0.023261
    17  C   -0.121744  -0.166206
    18  C   -0.615443  -0.028052
    19  N    0.044882   0.120395
    20  H   -0.161458   0.325807
    21  H   -0.090318   0.239719
    22  H   -0.150963   0.303698
    23  H   -0.423748   0.602547
    24  H    0.148638   0.003024
    25  H    0.144347   0.010433
    26  H   -0.182982   0.469753
    27  H   -0.182770   0.312090
    28  H    0.162545  -0.039429
    29  H   -0.020014   0.193423
    30  H    0.122490  -0.003455
    31  H    0.046460   0.103005
    32  H    0.108572   0.015184
    33  H    0.140111   0.007084
    34  H    0.136526   0.013037
    35  H    0.160560  -0.003060
 Sum of Mulliken charges =  -1.00000   1.00000

 Dipole moment (field-independent basis, Debye):
    X=              5.4307    Y=              2.3948    Z=             -1.0357  Tot=              6.0250
 Quadrupole moment (field-independent basis, Debye-Ang):
   XX=           -195.4098   YY=           -145.8033   ZZ=           -131.0909
   XY=             -7.6727   XZ=             -3.8259   YZ=              3.0363

 Summary of Natural Population Analysis:

                                       Natural Population
                Natural  -----------------------------------------------
    Atom  No    Charge         Core      Valence    Rydberg      Total
 -----------------------------------------------------------------------
      C    1   -0.10126      0.99961     2.09243    0.00922     3.10126
      O    2   -0.27321      0.99986     3.26384    0.00951     4.27321
      C    3    0.18162      0.99941     1.80484    0.01413     2.81838
      C    4   -0.17329      0.99948     2.16520    0.00861     3.17329
      C    5    0.10630      0.99949     1.88285    0.01136     2.89370
      C    6   -0.06599      0.99946     2.05631    0.01022     3.06599
      C    7   -0.05625      0.99954     2.04914    0.00758     3.05625
      C    8   -0.14723      0.99954     2.13841    0.00929     3.14723
      C    9    0.09553      0.99946     1.89103    0.01398     2.90447
      C   10    0.06721      0.99946     1.92219    0.01114     2.93279
      N   11   -0.27976      0.99963     2.77110    0.00903     3.77976
      C   12   -0.07870      0.99948     2.07042    0.00879     3.07870
      C   13   -0.02394      0.99949     2.01536    0.00909     3.02394
      C   14   -0.19485      0.99961     2.18584    0.00940     3.19485
      C   15   -0.18878      0.99964     2.17914    0.01000     3.18878
      C   16   -0.18834      0.99964     2.18148    0.00722     3.18834
      C   17   -0.19710      0.99960     2.18983    0.00767     3.19710
      C   18    0.08491      0.99950     1.90048    0.01511     2.91509
      N   19   -0.20441      0.99965     2.69470    0.01007     3.70441
      H   20    0.09006      0.00000     0.40895    0.00099     0.40994
      H   21    0.08411      0.00000     0.41452    0.00137     0.41589
      H   22    0.08540      0.00000     0.41291    0.00169     0.41460
      H   23    0.10735      0.00000     0.39102    0.00163     0.39265
      H   24    0.10188      0.00000     0.39706    0.00106     0.39812
      H   25    0.10122      0.00000     0.39785    0.00093     0.39878
      H   26    0.19937      0.00000     0.29598    0.00465     0.30063
      H   27    0.09555      0.00000     0.40284    0.00161     0.40445
      H   28    0.09816      0.00000     0.40081    0.00103     0.40184
      H   29    0.09930      0.00000     0.39911    0.00159     0.40070
      H   30    0.09192      0.00000     0.40699    0.00109     0.40808
      H   31    0.09467      0.00000     0.40436    0.00097     0.40533
      H   32    0.09285      0.00000     0.40579    0.00135     0.40715
      H   33    0.09346      0.00000     0.40554    0.00100     0.40654
      H   34    0.10534      0.00000     0.39328    0.00138     0.39466
      H   35    0.09689      0.00000     0.40198    0.00112     0.40311
 =======================================================================
   * Total *    0.00000     18.99154    47.79360    0.21486    67.00000

 Normal termination of Gaussian 16 at Mon Dec 14 20:47:00 2020.
