 Gaussian 16, Revision A.03,

 ----------------------------------------------------------------------
 # opt=(cartesian,calcfc) freq B3LYP/6-31G(d) empiricaldispersion=gd3bj
  scf=xqc
 ----------------------------------------------------------------------

 ------------------------------
 CID_57911643_JID_1871_neutraal
 ------------------------------
 Symbolic Z-matrix:
 Charge =  0 Multiplicity = 1

 SCF Done:  E(RB3LYP) =  -464.531912821     A.U. after   13 cycles
 SCF Done:  E(RB3LYP) =  -464.531972353     A.U. after    9 cycles
 SCF Done:  E(RB3LYP) =  -464.532010723     A.U. after   10 cycles
 SCF Done:  E(RB3LYP) =  -464.531435214     A.U. after   11 cycles
 SCF Done:  E(RB3LYP) =  -464.532018759     A.U. after   10 cycles
 SCF Done:  E(RB3LYP) =  -464.532060403     A.U. after   10 cycles
 SCF Done:  E(RB3LYP) =  -464.532048807     A.U. after    9 cycles
 SCF Done:  E(RB3LYP) =  -464.532088751     A.U. after   10 cycles
 SCF Done:  E(RB3LYP) =  -464.532122049     A.U. after    9 cycles
 SCF Done:  E(RB3LYP) =  -464.531896653     A.U. after   11 cycles
 SCF Done:  E(RB3LYP) =  -464.532197251     A.U. after    5 cycles
 SCF Done:  E(RB3LYP) =  -464.532197240     A.U. after    6 cycles
 SCF Done:  E(RB3LYP) =  -464.532197251     A.U. after    5 cycles
 SCF Done:  E(RB3LYP) =  -464.532197241     A.U. after    6 cycles
 SCF Done:  E(RB3LYP) =  -464.532197248     A.U. after    5 cycles
 SCF Done:  E(RB3LYP) =  -464.532197249     A.U. after    5 cycles
 Optimization completed on the basis of negligible forces.
    -- Stationary point found.

 1\1\GINC-NODE373\FOpt\RB3LYP\6-31G(d)\C9H20N2\VSC10255\30-Dec-2020\0\\
 # opt=(cartesian,calcfc) freq B3LYP/6-31G(d) empiricaldispersion=gd3bj
  scf=xqc\\CID_57911643_JID_1871_neutraal\\0,1\C,-2.0592239481,1.991240
 0139,0.0073097682\C,-1.5296076426,0.6092338271,0.3742142483\C,-2.63440
 78571,-0.3866391705,0.7884304124\C,-2.132021885,-1.7731212026,0.304766
 5772\C,-0.7689112977,-1.4750602726,-0.3457328243\N,-0.8953278111,-0.07
 48294694,-0.7543815413\C,0.2756817074,0.5485389775,-1.3497499423\C,1.4
 148493013,0.9872993539,-0.4125715567\N,2.0368107981,-0.0890929801,0.35

 Normal termination of Gaussian 16 at Wed Dec 30 14:39:36 2020.

 --------------------------------------------------------------------
 #N Geom=AllCheck Guess=TCheck SCRF=Check GenChk RB3LYP/6-31G(d) Freq
 --------------------------------------------------------------------

 Structure from the checkpoint file:  "JID_1871.chk"
 ------------------------------
 CID_57911643_JID_1871_neutraal
 ------------------------------
 Charge =  0 Multiplicity = 1

 SCF Done:  E(RB3LYP) =  -464.532197249     A.U. after    1 cycles

  Exact polarizability: 118.006  -0.533 106.893  -2.576  -0.381  97.613
 Approx polarizability: 145.722  -0.457 146.775  -2.087  -0.013 145.326

                      1                      2                      3
                      A                      A                      A
 Frequencies --     37.9763                56.9197                66.5566
 Red. masses --      2.4959                 2.1673                 2.4094
 Frc consts  --      0.0021                 0.0041                 0.0063
 IR Inten    --      0.1400                 0.1325                 0.1736

                      4                      5                      6
                      A                      A                      A
 Frequencies --     93.3684               150.2094               184.7834
 Red. masses --      2.9731                 2.4235                 2.6272
 Frc consts  --      0.0153                 0.0322                 0.0529
 IR Inten    --      0.3869                 0.3409                 0.0779

                      7                      8                      9
                      A                      A                      A
 Frequencies --    230.0341               249.5730               251.9336
 Red. masses --      1.6230                 1.1119                 1.1590
 Frc consts  --      0.0506                 0.0408                 0.0433
 IR Inten    --      3.2529                 0.0760                 0.3155

                     10                     11                     12
                      A                      A                      A
 Frequencies --    276.0576               330.4744               348.8508
 Red. masses --      1.4419                 2.2460                 2.7182
 Frc consts  --      0.0647                 0.1445                 0.1949
 IR Inten    --      2.1543                 1.4419                 3.3465

                     13                     14                     15
                      A                      A                      A
 Frequencies --    397.0039               404.3782               441.7360
 Red. masses --      1.9950                 1.8716                 2.0715
 Frc consts  --      0.1853                 0.1803                 0.2382
 IR Inten    --      3.1034                 2.0695                 0.4844

                     16                     17                     18
                      A                      A                      A
 Frequencies --    483.2652               514.3053               621.8135
 Red. masses --      2.5750                 2.9735                 2.7778
 Frc consts  --      0.3543                 0.4634                 0.6328
 IR Inten    --      0.4324                10.4334                 4.8763

                     19                     20                     21
                      A                      A                      A
 Frequencies --    639.8194               744.4786               788.3413
 Red. masses --      2.8653                 1.8723                 2.7490
 Frc consts  --      0.6911                 0.6114                 1.0066
 IR Inten    --      0.5512                 3.9956                16.8083

                     22                     23                     24
                      A                      A                      A
 Frequencies --    829.2129               898.4384               911.6664
 Red. masses --      1.6047                 2.2253                 1.5316
 Frc consts  --      0.6501                 1.0583                 0.7500
 IR Inten    --      3.0071                 2.0753                 2.6518

                     25                     26                     27
                      A                      A                      A
 Frequencies --    930.4832               936.5945               963.7768
 Red. masses --      2.3254                 2.2003                 2.2610
 Frc consts  --      1.1862                 1.1372                 1.2374
 IR Inten    --      2.1525                 0.9438                21.5280

                     28                     29                     30
                      A                      A                      A
 Frequencies --   1011.2164              1032.4122              1046.8414
 Red. masses --      1.4404                 2.8130                 1.8358
 Frc consts  --      0.8678                 1.7665                 1.1853
 IR Inten    --     15.3186                 2.8558                11.4024

                     31                     32                     33
                      A                      A                      A
 Frequencies --   1074.1880              1089.5318              1091.2596
 Red. masses --      1.6359                 2.0264                 1.7097
 Frc consts  --      1.1122                 1.4173                 1.1996
 IR Inten    --     13.6670                11.2005                 2.1070

                     34                     35                     36
                      A                      A                      A
 Frequencies --   1134.6923              1140.2484              1155.6224
 Red. masses --      1.2659                 2.1181                 1.8705
 Frc consts  --      0.9603                 1.6226                 1.4718
 IR Inten    --      3.1545                 3.7755                 6.0773

                     37                     38                     39
                      A                      A                      A
 Frequencies --   1162.7253              1195.7002              1207.7654
 Red. masses --      2.1502                 1.5372                 1.6241
 Frc consts  --      1.7127                 1.2949                 1.3958
 IR Inten    --     30.3657                17.1612                 9.6034

                     40                     41                     42
                      A                      A                      A
 Frequencies --   1240.4360              1253.4062              1274.8091
 Red. masses --      1.4543                 2.0729                 1.6733
 Frc consts  --      1.3184                 1.9187                 1.6022
 IR Inten    --      4.0766                 1.8390                20.7541

                     43                     44                     45
                      A                      A                      A
 Frequencies --   1288.5306              1311.1629              1319.6745
 Red. masses --      1.4714                 2.1912                 1.3352
 Frc consts  --      1.4393                 2.2194                 1.3700
 IR Inten    --      9.9136                 7.8463                 2.3465

                     46                     47                     48
                      A                      A                      A
 Frequencies --   1334.2781              1341.1603              1351.6819
 Red. masses --      1.3607                 1.3476                 1.3932
 Frc consts  --      1.4273                 1.4282                 1.4998
 IR Inten    --     19.6535                 7.0455                17.7528

                     49                     50                     51
                      A                      A                      A
 Frequencies --   1381.3647              1399.8399              1406.9161
 Red. masses --      1.3330                 1.4088                 1.3807
 Frc consts  --      1.4986                 1.6265                 1.6102
 IR Inten    --      5.4289                28.9885                14.5776

                     52                     53                     54
                      A                      A                      A
 Frequencies --   1428.0417              1433.9665              1437.9256
 Red. masses --      1.3261                 1.3567                 1.3945
 Frc consts  --      1.5934                 1.6437                 1.6988
 IR Inten    --     10.8203                 3.2813                18.1559

                     55                     56                     57
                      A                      A                      A
 Frequencies --   1467.5189              1495.1773              1505.2802
 Red. masses --      1.1613                 1.1687                 1.0686
 Frc consts  --      1.4736                 1.5393                 1.4266
 IR Inten    --      2.9039                 0.1733                 3.7994

                     58                     59                     60
                      A                      A                      A
 Frequencies --   1513.8010              1516.0404              1520.7230
 Red. masses --      1.0484                 1.0833                 1.0652
 Frc consts  --      1.4155                 1.4670                 1.4514
 IR Inten    --     12.2413                 0.3213                 4.6531

                     61                     62                     63
                      A                      A                      A
 Frequencies --   1524.2864              1529.5591              1532.8178
 Red. masses --      1.0643                 1.0518                 1.0950
 Frc consts  --      1.4569                 1.4499                 1.5158
 IR Inten    --      5.5281                 4.7076                 9.0305

                     64                     65                     66
                      A                      A                      A
 Frequencies --   1533.9011              1538.8362              1540.8889
 Red. masses --      1.0664                 1.0795                 1.0552
 Frc consts  --      1.4783                 1.5061                 1.4762
 IR Inten    --      2.4590                 1.4307                 4.9695

                     67                     68                     69
                      A                      A                      A
 Frequencies --   1560.5848              2892.6642              2915.0558
 Red. masses --      1.0973                 1.0739                 1.0808
 Frc consts  --      1.5745                 5.2942                 5.4111
 IR Inten    --      1.1988                68.7380                61.7643

                     70                     71                     72
                      A                      A                      A
 Frequencies --   2927.8183              2939.3183              3010.0970
 Red. masses --      1.0617                 1.0630                 1.0647
 Frc consts  --      5.3624                 5.4112                 5.6840
 IR Inten    --     43.4076               187.9487                42.9210

                     73                     74                     75
                      A                      A                      A
 Frequencies --   3038.0726              3048.2349              3062.4360
 Red. masses --      1.0632                 1.0376                 1.0715
 Frc consts  --      5.7816                 5.6804                 5.9210
 IR Inten    --     38.5685                34.2765                12.6613

                     76                     77                     78
                      A                      A                      A
 Frequencies --   3065.0959              3069.4691              3076.5541
 Red. masses --      1.0828                 1.0885                 1.0705
 Frc consts  --      5.9934                 6.0424                 5.9699
 IR Inten    --     54.3879                 0.5890                26.3053

                     79                     80                     81
                      A                      A                      A
 Frequencies --   3080.4811              3088.0415              3091.5380
 Red. masses --      1.0649                 1.0876                 1.0772
 Frc consts  --      5.9536                 6.1107                 6.0657
 IR Inten    --     49.6851                42.3536                56.9890

                     82                     83                     84
                      A                      A                      A
 Frequencies --   3100.6044              3112.8315              3120.7607
 Red. masses --      1.1057                 1.1017                 1.1041
 Frc consts  --      6.2632                 6.2898                 6.3352
 IR Inten    --      3.7190                37.1665                 1.5728

                     85                     86                     87
                      A                      A                      A
 Frequencies --   3121.2904              3123.9694              3137.6938
 Red. masses --      1.1039                 1.1054                 1.1009
 Frc consts  --      6.3364                 6.3558                 6.3860
 IR Inten    --     42.8958                80.0082                33.4387

 - Thermochemistry -
 -------------------
 Temperature   298.150 Kelvin.  Pressure   1.00000 Atm.
 Atom     1 has atomic number  6 and mass  12.00000

 Molecular mass:   156.16265 amu.
 Principal axes and moments of inertia in atomic units:
                           1         2         3
     Eigenvalues --  1079.808002603.461502943.89566
           X            0.99997  -0.00700  -0.00262
           Y            0.00703   0.99992   0.01043
           Z            0.00254  -0.01045   0.99994
 This molecule is an asymmetric top.
 Rotational symmetry number  1.
 Warning -- assumption of classical behavior for rotation
           may cause significant error
 Rotational temperatures (Kelvin)      0.08021     0.03327     0.02942
 Rotational constants (GHZ):           1.67135     0.69321     0.61305
 Zero-point vibrational energy     760399.6 (Joules/Mol)
                                  181.73987 (Kcal/Mol)
 Warning -- explicit consideration of  17 degrees of freedom as
           vibrations may cause significant error
 Vibrational temperatures:     54.64    81.89    95.76   134.34   216.12
          (Kelvin)            265.86   330.97   359.08   362.48   397.19
                              475.48   501.92   571.20   581.81   635.56
                              695.31   739.97   894.65   920.56  1071.14
                             1134.25  1193.05  1292.65  1311.68  1338.76
                             1347.55  1386.66  1454.91  1485.41  1506.17
                             1545.52  1567.59  1570.08  1632.57  1640.56
                             1662.68  1672.90  1720.35  1737.70  1784.71
                             1803.37  1834.17  1853.91  1886.47  1898.72
                             1919.73  1929.63  1944.77  1987.48  2014.06
                             2024.24  2054.63  2063.16  2068.85  2111.43
                             2151.23  2165.76  2178.02  2181.24  2187.98
                             2193.11  2200.69  2205.38  2206.94  2214.04
                             2217.00  2245.33  4161.90  4194.12  4212.48
                             4229.02  4330.86  4371.11  4385.73  4406.16
                             4409.99  4416.28  4426.48  4432.13  4443.00
                             4448.03  4461.08  4478.67  4490.08  4490.84
                             4494.70  4514.44

 Zero-point correction=                           0.289621 (Hartree/Particle)
 Thermal correction to Energy=                    0.302207
 Thermal correction to Enthalpy=                  0.303151
 Thermal correction to Gibbs Free Energy=         0.250438
 Sum of electronic and zero-point Energies=           -464.242576
 Sum of electronic and thermal Energies=              -464.229990
 Sum of electronic and thermal Enthalpies=            -464.229046
 Sum of electronic and thermal Free Energies=         -464.281760

                     E (Thermal)             CV                S
                      KCal/Mol        Cal/Mol-Kelvin    Cal/Mol-Kelvin
 Total                  189.638             47.064            110.945
 Electronic               0.000              0.000              0.000
 Translational            0.889              2.981             41.047
 Rotational               0.889              2.981             30.493
 Vibrational            187.860             41.103             39.405
 Vibration     1          0.594              1.982              5.362
 Vibration     2          0.596              1.975              4.561
 Vibration     3          0.598              1.970              4.253
 Vibration     4          0.602              1.954              3.588
 Vibration     5          0.618              1.902              2.670
 Vibration     6          0.631              1.861              2.280
 Vibration     7          0.652              1.795              1.879
 Vibration     8          0.662              1.763              1.734
 Vibration     9          0.664              1.760              1.717
 Vibration    10          0.678              1.718              1.558
 Vibration    11          0.713              1.615              1.258
 Vibration    12          0.726              1.578              1.171
 Vibration    13          0.764              1.477              0.974
 Vibration    14          0.770              1.461              0.947
 Vibration    15          0.802              1.379              0.821
 Vibration    16          0.839              1.287              0.701
 Vibration    17          0.869              1.218              0.623

 Optimization completed on the basis of negligible forces.
    -- Stationary point found.

 1\1\GINC-NODE373\Freq\RB3LYP\6-31G(d)\C9H20N2\VSC10255\30-Dec-2020\0\\
 #N Geom=AllCheck Guess=TCheck SCRF=Check GenChk RB3LYP/6-31G(d) Freq\\
 CID_57911643_JID_1871_neutraal\\0,1\C,-2.0592239481,1.9912400139,0.007
 3097682\C,-1.5296076426,0.6092338271,0.3742142483\C,-2.6344078571,-0.3
 866391705,0.7884304124\C,-2.132021885,-1.7731212026,0.3047665772\C,-0.
 7689112977,-1.4750602726,-0.3457328243\N,-0.8953278111,-0.0748294694,-
 0.7543815413\C,0.2756817074,0.5485389775,-1.3497499423\C,1.4148493013,
 0.9872993539,-0.4125715567\N,2.0368107981,-0.0890929801,0.3551221143\C

 Normal termination of Gaussian 16 at Wed Dec 30 14:46:56 2020.

 ----------------------------------------------------------------------
 # B3LYP/6-311++G(d,p) empiricaldispersion=gd3bj scf=xqc pop=npa geom=c
 heck
 ----------------------------------------------------------------------

 --------------------------------------
 CID_57911643_JID_1871_Energie_neutraal
 --------------------------------------
 Structure from the checkpoint file:  "JID_1871.chk"
 Charge =  0 Multiplicity = 1

 SCF Done:  E(RB3LYP) =  -464.661328782     A.U. after   13 cycles
 Normal termination of Gaussian 16 at Wed Dec 30 14:49:35 2020.

 ----------------------------------------------------------------------
 # B3LYP/6-311++G(d,p) empiricaldispersion=gd3bj scf=xqc pop=npa geom=c
 heck
 ----------------------------------------------------------------------

 ------------------------------------
 CID_57911643_JID_1871_Energie_kation
 ------------------------------------
 Structure from the checkpoint file:  "JID_1871.chk"
 Charge =  1 Multiplicity = 2

 SCF Done:  E(UB3LYP) =  -464.394527383     A.U. after   16 cycles
 Normal termination of Gaussian 16 at Wed Dec 30 14:53:55 2020.
 Gaussian 16:  ES64L-G16RevA.03 25-Dec-2016

 -----------------------------------
 CID_57911643_JID_1871_Energie_anion
 -----------------------------------
 Structure from the checkpoint file:  "JID_1871.chk"
 Charge = -1 Multiplicity = 2

                         Standard orientation:
 ---------------------------------------------------------------------
 Center     Atomic      Atomic             Coordinates (Angstroms)
 Number     Number       Type             X           Y           Z
 ---------------------------------------------------------------------
      1          6           0       -2.043304    2.011512   -0.011204
      2          6           0       -1.525428    0.628632    0.368928
      3          6           0       -2.638131   -0.352331    0.797325
      4          6           0       -2.150278   -1.748583    0.327076
      5          6           0       -0.786556   -1.470324   -0.330871
      6          7           0       -0.901217   -0.073448   -0.754205
      7          6           0        0.273629    0.532479   -1.359932
      8          6           0        1.419869    0.970604   -0.431117
      9          7           0        2.034235   -0.103246    0.346192
     10          6           0        2.781433   -1.032952   -0.487454
     11          6           0        2.877147    0.433890    1.403810
     12          1           0       -2.715358    1.935206   -0.873378
     13          1           0       -1.231183    2.700240   -0.270249
     14          1           0       -2.596719    2.454043    0.824555
     15          1           0       -0.814716    0.733930    1.212374
     16          1           0       -2.812937   -0.303823    1.876637
     17          1           0       -3.577414   -0.085503    0.301146
     18          1           0       -2.850379   -2.172271   -0.398931
     19          1           0       -2.058735   -2.462155    1.151453
     20          1           0       -0.589549   -2.111724   -1.198546
     21          1           0        0.028822   -1.614500    0.394125
     22          1           0        0.644434   -0.162302   -2.122349
     23          1           0       -0.041594    1.431630   -1.906394
     24          1           0        2.173310    1.508042   -1.046480
     25          1           0        1.028865    1.704636    0.282481
     26          1           0        3.609937   -0.544824   -1.038927
     27          1           0        3.208419   -1.822718    0.139235
     28          1           0        2.120662   -1.508475   -1.216796
     29          1           0        3.729475    1.030272    1.021145
     30          1           0        2.280676    1.076300    2.060264
     31          1           0        3.282573   -0.386718    2.005364
 ---------------------------------------------------------------------

 SCF Done:  E(UB3LYP) =  -464.643385589     A.U. after   26 cycles

 The electronic state is 2-A.
 Alpha  occ. eigenvalues --  -14.19834 -14.19154 -10.08961 -10.08553 -10.08211
 Alpha  occ. eigenvalues --  -10.07750 -10.07714 -10.07605 -10.06271 -10.06173
 Alpha  occ. eigenvalues --  -10.05567  -0.83086  -0.81180  -0.68430  -0.65257
 Alpha  occ. eigenvalues --   -0.61887  -0.59853  -0.56294  -0.54466  -0.48324
 Alpha  occ. eigenvalues --   -0.47660  -0.43893  -0.39641  -0.37647  -0.37072
 Alpha  occ. eigenvalues --   -0.35856  -0.34881  -0.34529  -0.31824  -0.30526
 Alpha  occ. eigenvalues --   -0.29498  -0.28644  -0.28360  -0.26935  -0.26347
 Alpha  occ. eigenvalues --   -0.25841  -0.25323  -0.24459  -0.23689  -0.23142
 Alpha  occ. eigenvalues --   -0.22145  -0.21439  -0.12210  -0.09785   0.04814
 Alpha virt. eigenvalues --    0.07042   0.07415   0.07676   0.09104   0.09399
 Alpha virt. eigenvalues --    0.09508   0.09868   0.10455   0.11588   0.11995
 Alpha virt. eigenvalues --    0.12149   0.12373   0.12739   0.13766   0.14025

  Beta  occ. eigenvalues --  -14.19821 -14.19152 -10.08951 -10.08538 -10.08190
  Beta  occ. eigenvalues --  -10.07740 -10.07676 -10.07566 -10.06261 -10.06159
  Beta  occ. eigenvalues --  -10.05541  -0.83068  -0.81154  -0.68403  -0.65230
  Beta  occ. eigenvalues --   -0.61850  -0.59788  -0.56248  -0.54409  -0.48248
  Beta  occ. eigenvalues --   -0.47625  -0.43844  -0.39604  -0.37606  -0.37037
  Beta  occ. eigenvalues --   -0.35814  -0.34841  -0.34494  -0.31790  -0.30486
  Beta  occ. eigenvalues --   -0.29471  -0.28614  -0.28323  -0.26900  -0.26310
  Beta  occ. eigenvalues --   -0.25801  -0.25290  -0.24416  -0.23660  -0.23116
  Beta  occ. eigenvalues --   -0.22116  -0.21416  -0.12155  -0.09745
  Beta virt. eigenvalues --    0.06936   0.07837   0.07921   0.08267   0.09667
  Beta virt. eigenvalues --    0.09786   0.10013   0.10438   0.10824   0.12023
  Beta virt. eigenvalues --    0.12407   0.12524   0.12729   0.13089   0.14196

 Mulliken charges and spin densities:
               1          2
     1  C    0.328610  -0.848145
     2  C   -0.348446   0.310040
     3  C   -0.144902  -0.302927
     4  C    0.591405  -0.953111
     5  C   -0.551214   0.257653
     6  N    0.288442   0.081683
     7  C    0.062843  -0.560719
     8  C   -0.661411   0.227694
     9  N   -0.049592   0.229020
    10  C    0.916391  -1.293886
    11  C    0.843368  -1.141195
    12  H    0.055355   0.087951
    13  H   -0.297335   0.433157
    14  H   -0.267931   0.405060
    15  H    0.362741  -0.207995
    16  H   -0.093545   0.222365
    17  H   -0.043364   0.180587
    18  H    0.110289   0.021893
    19  H   -0.151502   0.289349
    20  H   -0.243293   0.379595
    21  H    0.287922  -0.134812
    22  H    0.072146   0.077684
    23  H   -0.128973   0.285640
    24  H   -0.331779   0.419810
    25  H    0.180093  -0.007093
    26  H   -0.317757   0.443813
    27  H   -0.277098   0.420245
    28  H   -0.127568   0.240645
    29  H   -0.260108   0.370417
    30  H   -0.554529   0.679452
    31  H   -0.249261   0.386132
 Sum of Mulliken charges =  -1.00000   1.00000

 Dipole moment (field-independent basis, Debye):
    X=             -4.4031    Y=             -1.1787    Z=             -1.6172  Tot=              4.8365
 Quadrupole moment (field-independent basis, Debye-Ang):
   XX=           -137.3726   YY=           -114.8969   ZZ=           -110.2036
   XY=              2.9767   XZ=             -0.4970   YZ=             -1.9125

 Summary of Natural Population Analysis:

                                       Natural Population
                Natural  -----------------------------------------------
    Atom  No    Charge         Core      Valence    Rydberg      Total
 -----------------------------------------------------------------------
      C    1   -0.28778      0.99964     2.28201    0.00613     3.28778
      C    2   -0.00979      0.99960     1.99668    0.01351     3.00979
      C    3   -0.18764      0.99962     2.17996    0.00806     3.18764
      C    4   -0.19188      0.99964     2.18527    0.00698     3.19188
      C    5   -0.08574      0.99962     2.07522    0.01091     3.08574
      N    6   -0.28528      0.99970     2.77275    0.01283     3.78528
      C    7   -0.08605      0.99960     2.07377    0.01267     3.08605
      C    8   -0.09327      0.99960     2.08217    0.01150     3.09327
      N    9   -0.28496      0.99973     2.77179    0.01344     3.78496
      C   10   -0.17861      0.99964     2.16981    0.00917     3.17861
      C   11   -0.17438      0.99964     2.16587    0.00887     3.17438
      H   12    0.09820      0.00000     0.40049    0.00131     0.40180
      H   13    0.10003      0.00000     0.39884    0.00113     0.39997
      H   14    0.10056      0.00000     0.39852    0.00092     0.39944
      H   15    0.08226      0.00000     0.41504    0.00270     0.41774
      H   16    0.09844      0.00000     0.40053    0.00102     0.40156
      H   17    0.09468      0.00000     0.40393    0.00138     0.40532
      H   18    0.09433      0.00000     0.40442    0.00125     0.40567
      H   19    0.09661      0.00000     0.40230    0.00109     0.40339
      H   20    0.09158      0.00000     0.40700    0.00142     0.40842
      H   21    0.09255      0.00000     0.40511    0.00234     0.40745
      H   22    0.09528      0.00000     0.40348    0.00124     0.40472
      H   23    0.09575      0.00000     0.40305    0.00121     0.40425
      H   24    0.08240      0.00000     0.41562    0.00198     0.41760
      H   25    0.09665      0.00000     0.40148    0.00187     0.40335
      H   26    0.08142      0.00000     0.41676    0.00182     0.41858
      H   27    0.09731      0.00000     0.40133    0.00136     0.40269
      H   28    0.09482      0.00000     0.40370    0.00148     0.40518
      H   29    0.08023      0.00000     0.41795    0.00182     0.41977
      H   30    0.09666      0.00000     0.40178    0.00156     0.40334
      H   31    0.09562      0.00000     0.40300    0.00138     0.40438
 =======================================================================
   * Total *    0.00000     10.99604    32.85961    0.14435    44.00000

 Normal termination of Gaussian 16 at Wed Dec 30 15:00:56 2020.
