 Gaussian 16, Revision A.03,

 -----------------------------------------------------------
 # opt freq B3LYP/6-31G(d) empiricaldispersion=gd3bj scf=xqc
 -----------------------------------------------------------

 -------------------------------
 CID_116146648_JID_2026_neutraal
 -------------------------------
 Symbolic Z-matrix:
 Charge =  0 Multiplicity = 1

 SCF Done:  E(RB3LYP) =  -538.552883061     A.U. after   15 cycles
 SCF Done:  E(RB3LYP) =  -538.556613442     A.U. after   12 cycles
 SCF Done:  E(RB3LYP) =  -538.556803630     A.U. after   12 cycles
 SCF Done:  E(RB3LYP) =  -538.557216731     A.U. after   12 cycles
 SCF Done:  E(RB3LYP) =  -538.557285830     A.U. after   11 cycles
 SCF Done:  E(RB3LYP) =  -538.557396296     A.U. after   11 cycles
 SCF Done:  E(RB3LYP) =  -538.557432199     A.U. after   10 cycles
 SCF Done:  E(RB3LYP) =  -538.557446879     A.U. after   10 cycles
 SCF Done:  E(RB3LYP) =  -538.557450479     A.U. after    9 cycles
 SCF Done:  E(RB3LYP) =  -538.557451812     A.U. after    8 cycles
 SCF Done:  E(RB3LYP) =  -538.557453181     A.U. after    8 cycles
 SCF Done:  E(RB3LYP) =  -538.557454763     A.U. after    9 cycles
 SCF Done:  E(RB3LYP) =  -538.557455513     A.U. after    8 cycles
 Optimization completed.
    -- Stationary point found.
 Normal termination of Gaussian 16 at Wed Dec  9 16:47:59 2020.

 --------------------------------------------------------------------
 #N Geom=AllCheck Guess=TCheck SCRF=Check GenChk RB3LYP/6-31G(d) Freq
 --------------------------------------------------------------------

 Structure from the checkpoint file:  "JID_2026.chk"
 -------------------------------
 CID_116146648_JID_2026_neutraal
 -------------------------------
 Charge =  0 Multiplicity = 1

 SCF Done:  E(RB3LYP) =  -538.557455513     A.U. after    1 cycles

  Exact polarizability: 113.608  -0.259 106.530  -0.059  -6.321 108.867
 Approx polarizability: 143.783  -3.424 163.111  -1.161 -15.934 156.421

                      1                      2                      3
                      A                      A                      A
 Frequencies --     28.2084                43.9130                69.7689
 Red. masses --      3.7020                 3.3956                 3.1806
 Frc consts  --      0.0017                 0.0039                 0.0091
 IR Inten    --      0.1332                 0.4140                 0.2002

                      4                      5                      6
                      A                      A                      A
 Frequencies --     83.4882               109.1918               128.7309
 Red. masses --      4.6553                 3.2790                 3.2725
 Frc consts  --      0.0191                 0.0230                 0.0320
 IR Inten    --      0.3502                 0.1657                 0.4121

                      7                      8                      9
                      A                      A                      A
 Frequencies --    175.2629               215.4991               249.9970
 Red. masses --      3.2393                 2.2494                 1.0765
 Frc consts  --      0.0586                 0.0615                 0.0396
 IR Inten    --      0.5127                 3.4891                 0.1133

                     10                     11                     12
                      A                      A                      A
 Frequencies --    257.6218               277.8165               306.5054
 Red. masses --      1.4081                 2.5898                 2.0528
 Frc consts  --      0.0551                 0.1178                 0.1136
 IR Inten    --      2.8163                 1.0353                 0.7011

                     13                     14                     15
                      A                      A                      A
 Frequencies --    323.5246               332.6892               366.3633
 Red. masses --      1.0953                 2.1810                 2.3454
 Frc consts  --      0.0675                 0.1422                 0.1855
 IR Inten    --     78.0995                 4.0006                 8.7951

                     16                     17                     18
                      A                      A                      A
 Frequencies --    383.8565               416.3398               464.9826
 Red. masses --      1.9114                 2.2440                 4.1930
 Frc consts  --      0.1659                 0.2292                 0.5341
 IR Inten    --      0.7369                 7.4687                 4.9005

                     19                     20                     21
                      A                      A                      A
 Frequencies --    496.1310               554.8812               577.4879
 Red. masses --      2.2758                 2.0321                 3.0812
 Frc consts  --      0.3300                 0.3686                 0.6054
 IR Inten    --      7.4923                10.4789                 7.6802

                     22                     23                     24
                      A                      A                      A
 Frequencies --    644.4048               708.6695               718.1308
 Red. masses --      1.4548                 1.8793                 3.2572
 Frc consts  --      0.3559                 0.5561                 0.9897
 IR Inten    --     58.1464                15.5011                20.8921

                     25                     26                     27
                      A                      A                      A
 Frequencies --    770.6615               799.8849               865.0251
 Red. masses --      2.8221                 2.6184                 1.8906
 Frc consts  --      0.9875                 0.9871                 0.8335
 IR Inten    --      5.3020                 2.1529                 1.4884

                     28                     29                     30
                      A                      A                      A
 Frequencies --    886.9221               916.8155               943.7210
 Red. masses --      1.6584                 1.6801                 1.8598
 Frc consts  --      0.7686                 0.8320                 0.9759
 IR Inten    --    114.4762                12.9329                12.6032

                     31                     32                     33
                      A                      A                      A
 Frequencies --    948.3197               978.2252               987.1587
 Red. masses --      1.3563                 1.6263                 1.4339
 Frc consts  --      0.7186                 0.9169                 0.8233
 IR Inten    --     34.5353                 1.7712                 1.7190

                     34                     35                     36
                      A                      A                      A
 Frequencies --   1010.3407              1014.5480              1033.1661
 Red. masses --      1.7012                 1.4587                 1.1428
 Frc consts  --      1.0231                 0.8846                 0.7187
 IR Inten    --      3.8596                 7.2567                20.0788

                     37                     38                     39
                      A                      A                      A
 Frequencies --   1051.6185              1091.4690              1121.3990
 Red. masses --      1.9372                 2.6186                 2.1999
 Frc consts  --      1.2622                 1.8380                 1.6300
 IR Inten    --      1.0306                 0.0167                41.0731

                     40                     41                     42
                      A                      A                      A
 Frequencies --   1184.2671              1194.2751              1205.0571
 Red. masses --      1.3020                 2.4280                 1.9785
 Frc consts  --      1.0759                 2.0404                 1.6927
 IR Inten    --      9.7978                25.8310                28.9464

                     43                     44                     45
                      A                      A                      A
 Frequencies --   1208.2985              1227.5979              1309.1458
 Red. masses --      2.0115                 1.3611                 1.4016
 Frc consts  --      1.7303                 1.2085                 1.4153
 IR Inten    --     13.8139                13.4699                12.4616

                     46                     47                     48
                      A                      A                      A
 Frequencies --   1323.0504              1326.0513              1343.3052
 Red. masses --      1.6227                 1.3414                 1.3109
 Frc consts  --      1.6736                 1.3898                 1.3937
 IR Inten    --     72.5158                 9.7726                 4.1317

                     49                     50                     51
                      A                      A                      A
 Frequencies --   1362.3689              1384.2984              1401.0662
 Red. masses --      1.2575                 1.4151                 1.3828
 Frc consts  --      1.3752                 1.5977                 1.5993
 IR Inten    --      5.7692                19.1601                 6.2127

                     52                     53                     54
                      A                      A                      A
 Frequencies --   1415.2111              1433.2825              1433.7996
 Red. masses --      1.7301                 1.2621                 1.2727
 Frc consts  --      2.0415                 1.5276                 1.5415
 IR Inten    --     70.9212                 8.1681                21.1508

                     55                     56                     57
                      A                      A                      A
 Frequencies --   1435.3636              1474.1008              1478.9216
 Red. masses --      1.3671                 1.4294                 1.2069
 Frc consts  --      1.6595                 1.8300                 1.5553
 IR Inten    --     14.3625                37.4127                 7.3689

                     58                     59                     60
                      A                      A                      A
 Frequencies --   1506.6008              1515.6582              1521.7502
 Red. masses --      1.0809                 1.1075                 1.0442
 Frc consts  --      1.4455                 1.4989                 1.4246
 IR Inten    --      4.4804                14.5698                 6.4342

                     61                     62                     63
                      A                      A                      A
 Frequencies --   1525.4830              1529.8360              1532.9326
 Red. masses --      1.0676                 1.0638                 1.0679
 Frc consts  --      1.4638                 1.4669                 1.4786
 IR Inten    --      3.0264                 0.9685                 2.1094

                     64                     65                     66
                      A                      A                      A
 Frequencies --   1710.8167              1730.7611              1794.9022
 Red. masses --      1.0885                 4.5125                 8.2341
 Frc consts  --      1.8772                 7.9642                15.6296
 IR Inten    --     20.8618                 1.7671               306.4290

                     67                     68                     69
                      A                      A                      A
 Frequencies --   3026.6185              3036.3210              3050.5888
 Red. masses --      1.0838                 1.0359                 1.0385
 Frc consts  --      5.8493                 5.6268                 5.6940
 IR Inten    --     24.5308                21.6475                18.7723

                     70                     71                     72
                      A                      A                      A
 Frequencies --   3056.7205              3071.1051              3084.8201
 Red. masses --      1.0673                 1.0826                 1.0677
 Frc consts  --      5.8755                 6.0162                 5.9862
 IR Inten    --     36.0426                14.5916                12.6596

                     73                     74                     75
                      A                      A                      A
 Frequencies --   3102.3617              3104.9986              3117.0609
 Red. masses --      1.1014                 1.1011                 1.0987
 Frc consts  --      6.2454                 6.2549                 6.2898
 IR Inten    --     36.3990                68.6535                10.0087

                     76                     77                     78
                      A                      A                      A
 Frequencies --   3119.1725              3145.1569              3147.4754
 Red. masses --      1.1006                 1.1020                 1.0918
 Frc consts  --      6.3089                 6.4224                 6.3724
 IR Inten    --     22.6939                12.9845                25.2098

                     79                     80                     81
                      A                      A                      A
 Frequencies --   3150.4799              3159.5941              3239.8587
 Red. masses --      1.0772                 1.0765                 1.1150
 Frc consts  --      6.2994                 6.3320                 6.8959
 IR Inten    --     28.7094                 1.6905                17.0900

                     82                     83                     84
                      A                      A                      A
 Frequencies --   3459.4363              3544.7206              3560.0310
 Red. masses --      1.0493                 1.0927                 1.0754
 Frc consts  --      7.3985                 8.0895                 8.0300
 IR Inten    --     12.9619                 3.1786                15.2683

 - Thermochemistry -
 -------------------
 Temperature   298.150 Kelvin.  Pressure   1.00000 Atm.
 Atom     1 has atomic number  6 and mass  12.00000

 Molecular mass:   170.14191 amu.
 Principal axes and moments of inertia in atomic units:
                           1         2         3
     Eigenvalues --  1629.412472987.348893233.87486
           X            0.99981   0.01370  -0.01390
           Y           -0.01359   0.99988   0.00788
           Z            0.01400  -0.00769   0.99987
 This molecule is an asymmetric top.
 Rotational symmetry number  1.
 Warning -- assumption of classical behavior for rotation
           may cause significant error
 Rotational temperatures (Kelvin)      0.05316     0.02899     0.02678
 Rotational constants (GHZ):           1.10760     0.60413     0.55807
 Zero-point vibrational energy     706020.8 (Joules/Mol)
                                  168.74302 (Kcal/Mol)
 Warning -- explicit consideration of  21 degrees of freedom as
           vibrations may cause significant error
 Vibrational temperatures:     40.59    63.18   100.38   120.12   157.10
          (Kelvin)            185.22   252.16   310.06   359.69   370.66
                              399.72   440.99   465.48   478.67   527.12
                              552.28   599.02   669.01   713.82   798.35
                              830.88   927.15  1019.62  1033.23  1108.81
                             1150.86  1244.58  1276.08  1319.09  1357.80
                             1364.42  1407.45  1420.30  1453.65  1459.71
                             1486.50  1513.04  1570.38  1613.44  1703.90
                             1718.30  1733.81  1738.47  1766.24  1883.57
                             1903.57  1907.89  1932.72  1960.14  1991.70
                             2015.82  2036.17  2062.17  2062.92  2065.17
                             2120.90  2127.84  2167.66  2180.69  2189.46
                             2194.83  2201.09  2205.55  2461.48  2490.18
                             2582.46  4354.63  4368.59  4389.12  4397.94
                             4418.64  4438.37  4463.61  4467.40  4484.76
                             4487.79  4525.18  4528.52  4532.84  4545.95
                             4661.43  4977.36  5100.06  5122.09

 Zero-point correction=                           0.268909 (Hartree/Particle)
 Thermal correction to Energy=                    0.283217
 Thermal correction to Enthalpy=                  0.284161
 Thermal correction to Gibbs Free Energy=         0.227312
 Sum of electronic and zero-point Energies=           -538.288546
 Sum of electronic and thermal Energies=              -538.274238
 Sum of electronic and thermal Enthalpies=            -538.273294
 Sum of electronic and thermal Free Energies=         -538.330143

                     E (Thermal)             CV                S
                      KCal/Mol        Cal/Mol-Kelvin    Cal/Mol-Kelvin
 Total                  177.721             52.827            119.649
 Electronic               0.000              0.000              0.000
 Translational            0.889              2.981             41.302
 Rotational               0.889              2.981             31.132
 Vibrational            175.944             46.865             47.215
 Vibration     1          0.593              1.984              5.952
 Vibration     2          0.595              1.980              5.074
 Vibration     3          0.598              1.969              4.160
 Vibration     4          0.600              1.961              3.807
 Vibration     5          0.606              1.942              3.283
 Vibration     6          0.611              1.925              2.965
 Vibration     7          0.627              1.873              2.378
 Vibration     8          0.645              1.817              1.997
 Vibration     9          0.663              1.763              1.731
 Vibration    10          0.667              1.750              1.678
 Vibration    11          0.679              1.715              1.547
 Vibration    12          0.697              1.661              1.381
 Vibration    13          0.708              1.628              1.292
 Vibration    14          0.715              1.610              1.247
 Vibration    15          0.739              1.541              1.095
 Vibration    16          0.753              1.505              1.024
 Vibration    17          0.780              1.435              0.904
 Vibration    18          0.822              1.328              0.752
 Vibration    19          0.852              1.259              0.668
 Vibration    20          0.910              1.129              0.534
 Vibration    21          0.934              1.080              0.490

                           ! Non-Optimized Parameters !
 Normal termination of Gaussian 16 at Wed Dec  9 16:55:21 2020.

 ----------------------------------------------------------------------
 # B3LYP/6-311++G(d,p) empiricaldispersion=gd3bj scf=xqc pop=npa geom=c
 heck
 ----------------------------------------------------------------------

 ---------------------------------------
 CID_116146648_JID_2026_Energie_neutraal
 ---------------------------------------
 Structure from the checkpoint file:  "JID_2026.chk"
 Charge =  0 Multiplicity = 1

 SCF Done:  E(RB3LYP) =  -538.726109213     A.U. after   14 cycles
 Normal termination of Gaussian 16 at Wed Dec  9 16:58:15 2020.

 ----------------------------------------------------------------------
 # B3LYP/6-311++G(d,p) empiricaldispersion=gd3bj scf=xqc pop=npa geom=c
 heck
 ----------------------------------------------------------------------

 -------------------------------------
 CID_116146648_JID_2026_Energie_kation
 -------------------------------------
 Structure from the checkpoint file:  "JID_2026.chk"
 Charge =  1 Multiplicity = 2

 SCF Done:  E(UB3LYP) =  -538.412826645     A.U. after   25 cycles
 Normal termination of Gaussian 16 at Wed Dec  9 17:05:08 2020.
 Gaussian 16:  ES64L-G16RevA.03 25-Dec-2016

 ----------------------------------------------------------------------
 # B3LYP/6-311++G(d,p) empiricaldispersion=gd3bj scf=xqc pop=npa geom=c
 heck
 ----------------------------------------------------------------------

 ------------------------------------
 CID_116146648_JID_2026_Energie_anion
 ------------------------------------
 Structure from the checkpoint file:  "JID_2026.chk"
 Charge = -1 Multiplicity = 2

                         Standard orientation:
 ---------------------------------------------------------------------
 Center     Atomic      Atomic             Coordinates (Angstroms)
 Number     Number       Type             X           Y           Z
 ---------------------------------------------------------------------
      1          6           0       -2.050237   -2.060069    0.196621
      2          6           0       -2.555012   -0.641053   -0.119168
      3          6           0       -2.173629    0.381138    0.966428
      4          6           0       -0.664175    0.586093    1.214902
      5          6           0       -0.018176    1.455656    0.144781
      6          8           0       -0.341173    2.625212   -0.001972
      7          7           0        0.900753    0.874147   -0.709342
      8          6           0        1.684624   -0.348678   -0.494669
      9          6           0        2.439575   -0.664328   -1.790703
     10          6           0        2.630839   -0.218153    0.674528
     11          6           0        2.663793   -1.051601    1.712921
     12          7           0       -2.172522   -0.147822   -1.448759
     13          1           0       -0.955207   -2.115011    0.167577
     14          1           0       -2.431688   -2.774863   -0.542300
     15          1           0       -2.376587   -2.397593    1.188523
     16          1           0       -3.653200   -0.681643   -0.118505
     17          1           0       -2.610765    1.349503    0.704911
     18          1           0       -2.628712    0.055690    1.909944
     19          1           0       -0.543112    1.141195    2.151009
     20          1           0       -0.152156   -0.368236    1.348161
     21          1           0        1.304808    1.558107   -1.341426
     22          1           0        0.991328   -1.173276   -0.296982
     23          1           0        3.159892    0.129242   -2.025029
     24          1           0        2.994634   -1.600448   -1.686320
     25          1           0        1.741766   -0.755705   -2.629811
     26          1           0        3.316069    0.628900    0.625761
     27          1           0        3.368068   -0.924927    2.529937
     28          1           0        1.983764   -1.898442    1.784135
     29          1           0       -2.464064   -0.820065   -2.157045
     30          1           0       -1.158682   -0.072421   -1.523898
 ---------------------------------------------------------------------

 SCF Done:  E(UB3LYP) =  -538.714473865     A.U. after   33 cycles
 SCF Done:  E(UB3LYP) =  -538.714473865     a.u. after    1 cycles

 The electronic state is 2-A.
 Alpha  occ. eigenvalues --  -18.99061 -14.23946 -14.18431 -10.17525 -10.12909
 Alpha  occ. eigenvalues --  -10.09809 -10.08701 -10.07759 -10.07739 -10.07478
 Alpha  occ. eigenvalues --  -10.06974 -10.05583  -0.94228  -0.83101  -0.78457
 Alpha  occ. eigenvalues --   -0.70481  -0.68373  -0.64666  -0.62482  -0.56661
 Alpha  occ. eigenvalues --   -0.54846  -0.49401  -0.48166  -0.45825  -0.41078
 Alpha  occ. eigenvalues --   -0.40074  -0.38838  -0.37080  -0.35578  -0.34757
 Alpha  occ. eigenvalues --   -0.33322  -0.32749  -0.31536  -0.30998  -0.30138
 Alpha  occ. eigenvalues --   -0.29421  -0.28608  -0.28030  -0.27645  -0.25537
 Alpha  occ. eigenvalues --   -0.25423  -0.23493  -0.22277  -0.18672  -0.16395
 Alpha  occ. eigenvalues --   -0.15821  -0.13811   0.04275
 Alpha virt. eigenvalues --    0.06407   0.06865   0.07865   0.08094   0.08507
 Alpha virt. eigenvalues --    0.09250   0.09554   0.09939   0.10971   0.11125
 Alpha virt. eigenvalues --    0.11586   0.11995   0.12407   0.12847   0.13265

  Beta  occ. eigenvalues --  -18.99058 -14.23934 -14.18407 -10.17522 -10.12897
  Beta  occ. eigenvalues --  -10.09801 -10.08689 -10.07746 -10.07696 -10.07427
  Beta  occ. eigenvalues --  -10.06964 -10.05539  -0.94220  -0.83078  -0.78411
  Beta  occ. eigenvalues --   -0.70441  -0.68340  -0.64607  -0.62428  -0.56607
  Beta  occ. eigenvalues --   -0.54754  -0.49355  -0.48091  -0.45787  -0.41042
  Beta  occ. eigenvalues --   -0.40032  -0.38804  -0.37025  -0.35529  -0.34726
  Beta  occ. eigenvalues --   -0.33292  -0.32719  -0.31499  -0.30957  -0.30074
  Beta  occ. eigenvalues --   -0.29382  -0.28566  -0.27990  -0.27593  -0.25503
  Beta  occ. eigenvalues --   -0.25388  -0.23459  -0.22248  -0.18599  -0.16354
  Beta  occ. eigenvalues --   -0.15807  -0.13769
  Beta virt. eigenvalues --    0.06592   0.07237   0.07673   0.08153   0.08472
  Beta virt. eigenvalues --    0.09018   0.09824   0.09966   0.10275   0.11182
  Beta virt. eigenvalues --    0.11544   0.12041   0.12406   0.12693   0.13240

 Mulliken charges and spin densities:
               1          2
     1  C    0.789789  -1.469678
     2  C   -0.868755   0.933717
     3  C    0.748952  -1.205685
     4  C   -0.074573   0.283398
     5  C   -0.487396   0.110053
     6  O   -0.301878   0.008097
     7  N   -0.172252   0.031830
     8  C   -0.170676   0.140802
     9  C    1.643831  -2.330255
    10  C   -1.371247   1.666836
    11  C    0.658258  -1.267885
    12  N   -0.260454  -0.144385
    13  H   -0.594554   0.738743
    14  H   -0.403454   0.548849
    15  H   -0.295572   0.431334
    16  H   -0.037165   0.225653
    17  H    0.242408  -0.025747
    18  H   -0.109888   0.262551
    19  H   -0.001471   0.208457
    20  H    0.463068  -0.368469
    21  H    0.273149   0.023239
    22  H    0.691773  -0.588442
    23  H   -0.488764   0.641048
    24  H   -0.315670   0.480537
    25  H   -0.277538   0.431354
    26  H   -0.139886   0.320281
    27  H   -0.167633   0.303760
    28  H   -0.347817   0.473825
    29  H   -0.041127   0.272017
    30  H    0.416539  -0.135832
 Sum of Mulliken charges =  -1.00000   1.00000

 Dipole moment (field-independent basis, Debye):
    X=             -0.0949    Y=              2.3608    Z=              1.6830  Tot=              2.9009
 Quadrupole moment (field-independent basis, Debye-Ang):
   XX=           -131.4915   YY=           -127.6744   ZZ=           -119.0207
   XY=              0.8306   XZ=              2.3986   YZ=             -0.7873

 Summary of Natural Population Analysis:

                                       Natural Population
                Natural  -----------------------------------------------
    Atom  No    Charge         Core      Valence    Rydberg      Total
 -----------------------------------------------------------------------
      C    1   -0.29304      0.99964     2.28730    0.00610     3.29304
      C    2   -0.01499      0.99961     2.00332    0.01206     3.01499
      C    3   -0.18725      0.99960     2.17777    0.00989     3.18725
      C    4   -0.24014      0.99957     2.23178    0.00879     3.24014
      C    5    0.35263      0.99967     1.62520    0.02250     2.64737
      O    6   -0.32015      0.99987     3.31465    0.00562     4.32015
      N    7   -0.32811      0.99967     2.81802    0.01042     3.82811
      C    8   -0.03516      0.99956     2.02219    0.01341     3.03516
      C    9   -0.28239      0.99964     2.27645    0.00630     3.28239
      C   10   -0.09122      0.99954     2.08052    0.01117     3.09122
      C   11   -0.17942      0.99955     2.17319    0.00667     3.17942
      N   12   -0.42412      0.99977     2.91400    0.01035     3.92412
      H   13    0.09239      0.00000     0.40505    0.00256     0.40761
      H   14    0.10059      0.00000     0.39760    0.00181     0.39941
      H   15    0.09952      0.00000     0.39894    0.00154     0.40048
      H   16    0.08736      0.00000     0.41101    0.00163     0.41264
      H   17    0.10868      0.00000     0.39003    0.00129     0.39132
      H   18    0.09920      0.00000     0.39989    0.00092     0.40080
      H   19    0.11388      0.00000     0.38509    0.00103     0.38612
      H   20    0.10460      0.00000     0.39315    0.00225     0.39540
      H   21    0.19268      0.00000     0.30491    0.00241     0.30732
      H   22    0.09930      0.00000     0.39695    0.00375     0.40070
      H   23    0.09805      0.00000     0.40026    0.00169     0.40195
      H   24    0.10837      0.00000     0.39031    0.00131     0.39163
      H   25    0.10599      0.00000     0.39216    0.00185     0.39401
      H   26    0.09508      0.00000     0.40372    0.00120     0.40492
      H   27    0.09509      0.00000     0.40379    0.00111     0.40491
      H   28    0.09319      0.00000     0.40496    0.00185     0.40681
      H   29    0.17403      0.00000     0.32432    0.00165     0.32597
      H   30    0.17536      0.00000     0.32194    0.00271     0.32464
 =======================================================================
   * Total *    0.00000     11.99570    34.84844    0.15586    47.00000

 Normal termination of Gaussian 16 at Wed Dec  9 17:14:13 2020.
