 Gaussian 16, Revision A.03,

 -----------------------------------------------------------
 # opt freq B3LYP/6-31G(d) empiricaldispersion=gd3bj scf=xqc
 -----------------------------------------------------------

 ------------------------------
 CID_62005337_JID_9238_neutraal
 ------------------------------
 Symbolic Z-matrix:
 Charge =  0 Multiplicity = 1

 SCF Done:  E(RB3LYP) =  -858.495713535     A.U. after   15 cycles
 SCF Done:  E(RB3LYP) =  -858.500826998     A.U. after   14 cycles
 SCF Done:  E(RB3LYP) =  -858.499581236     A.U. after   14 cycles
 SCF Done:  E(RB3LYP) =  -858.502224159     A.U. after   13 cycles
 SCF Done:  E(RB3LYP) =  -858.502701492     A.U. after   12 cycles
 SCF Done:  E(RB3LYP) =  -858.503204902     A.U. after   13 cycles
 SCF Done:  E(RB3LYP) =  -858.503383639     A.U. after   12 cycles
 SCF Done:  E(RB3LYP) =  -858.503413901     A.U. after   11 cycles
 SCF Done:  E(RB3LYP) =  -858.503437326     A.U. after   11 cycles
 SCF Done:  E(RB3LYP) =  -858.503441792     A.U. after   10 cycles
 SCF Done:  E(RB3LYP) =  -858.503446094     A.U. after   10 cycles
 SCF Done:  E(RB3LYP) =  -858.503447557     A.U. after    8 cycles
 SCF Done:  E(RB3LYP) =  -858.503448592     A.U. after    8 cycles
 SCF Done:  E(RB3LYP) =  -858.503448876     A.U. after    8 cycles
 SCF Done:  E(RB3LYP) =  -858.503448873     A.U. after    7 cycles
 Optimization completed.
    -- Stationary point found.
 Normal termination of Gaussian 16 at Sun Dec 13 16:20:43 2020.

 --------------------------------------------------------------------
 #N Geom=AllCheck Guess=TCheck SCRF=Check GenChk RB3LYP/6-31G(d) Freq
 --------------------------------------------------------------------

 Structure from the checkpoint file:  "JID_9238.chk"
 ------------------------------
 CID_62005337_JID_9238_neutraal
 ------------------------------
 Charge =  0 Multiplicity = 1

 SCF Done:  E(RB3LYP) =  -858.503448873     A.U. after    1 cycles

  Exact polarizability: 177.208  23.243 139.765  -1.883  14.958 168.850
 Approx polarizability: 245.881  48.601 209.165  -6.901  41.898 304.837

                      1                      2                      3
                      A                      A                      A
 Frequencies --     35.0495                48.8444                57.5784
 Red. masses --      5.5544                 8.0664                 4.9136
 Frc consts  --      0.0040                 0.0113                 0.0096
 IR Inten    --      1.5385                 0.6708                 1.4570

                      4                      5                      6
                      A                      A                      A
 Frequencies --     77.7704                83.6256               110.0699
 Red. masses --      3.9740                 3.9448                 5.0884
 Frc consts  --      0.0142                 0.0163                 0.0363
 IR Inten    --      1.8573                 1.9675                 2.5552

                      7                      8                      9
                      A                      A                      A
 Frequencies --    130.0329               142.8414               145.1369
 Red. masses --      7.2580                 1.7823                 1.5965
 Frc consts  --      0.0723                 0.0214                 0.0198
 IR Inten    --      5.6968                 0.5031                 0.6691

                     10                     11                     12
                      A                      A                      A
 Frequencies --    175.5147               198.5732               226.1341
 Red. masses --      3.7729                 4.7217                 3.7532
 Frc consts  --      0.0685                 0.1097                 0.1131
 IR Inten    --      0.5518                 5.8427                 1.8939

                     13                     14                     15
                      A                      A                      A
 Frequencies --    252.2144               281.8819               303.4577
 Red. masses --      5.1928                 2.4324                 3.0973
 Frc consts  --      0.1946                 0.1139                 0.1680
 IR Inten    --      5.6946                 0.7392                 7.1220

                     16                     17                     18
                      A                      A                      A
 Frequencies --    336.2960               384.5224               401.3847
 Red. masses --      3.3062                 2.7316                 4.9758
 Frc consts  --      0.2203                 0.2380                 0.4723
 IR Inten    --      1.2368                 0.9854                 3.9197

                     19                     20                     21
                      A                      A                      A
 Frequencies --    421.0063               439.9522               443.4703
 Red. masses --      3.7796                 2.9451                 2.8291
 Frc consts  --      0.3947                 0.3359                 0.3278
 IR Inten    --      7.0391                12.2964                 4.5553

                     22                     23                     24
                      A                      A                      A
 Frequencies --    480.8412               508.8493               531.5914
 Red. masses --      5.1064                 4.3977                 2.4253
 Frc consts  --      0.6956                 0.6709                 0.4038
 IR Inten    --      0.6405                 0.9026                 7.7843

                     25                     26                     27
                      A                      A                      A
 Frequencies --    582.0284               585.5850               594.7675
 Red. masses --      3.0062                 5.5360                 4.4430
 Frc consts  --      0.6000                 1.1185                 0.9260
 IR Inten    --      2.1777                 4.1356                 4.4277

                     28                     29                     30
                      A                      A                      A
 Frequencies --    624.7439               663.7693               692.7207
 Red. masses --      4.6267                 3.5608                 5.9122
 Frc consts  --      1.0640                 0.9243                 1.6715
 IR Inten    --      4.7881                 2.2806                 2.9888

                     31                     32                     33
                      A                      A                      A
 Frequencies --    752.2619               787.4644               806.9143
 Red. masses --      4.8665                 3.5794                 1.9695
 Frc consts  --      1.6226                 1.3078                 0.7556
 IR Inten    --     14.3540                18.3328                13.3047

                     34                     35                     36
                      A                      A                      A
 Frequencies --    813.5592               840.4638               857.4049
 Red. masses --      2.5490                 2.1885                 2.2005
 Frc consts  --      0.9940                 0.9108                 0.9531
 IR Inten    --      1.8731                 0.4616                 4.0827

                     37                     38                     39
                      A                      A                      A
 Frequencies --    874.3146               897.1781               922.1678
 Red. masses --      2.7977                 2.5234                 1.9792
 Frc consts  --      1.2600                 1.1967                 0.9917
 IR Inten    --      4.8155                14.3192                 4.8111

                     40                     41                     42
                      A                      A                      A
 Frequencies --    952.1536               971.4608               982.2066
 Red. masses --      2.5127                 1.3555                 1.3668
 Frc consts  --      1.3422                 0.7537                 0.7769
 IR Inten    --      2.1850                 0.9430                 0.4502

                     43                     44                     45
                      A                      A                      A
 Frequencies --    988.7000               993.6663              1040.4708
 Red. masses --      2.4292                 1.7364                 3.5467
 Frc consts  --      1.3991                 1.0102                 2.2622
 IR Inten    --      0.4661                 6.3342                27.4099

                     46                     47                     48
                      A                      A                      A
 Frequencies --   1074.1126              1088.0426              1099.9305
 Red. masses --      1.8900                 2.7724                 2.9796
 Frc consts  --      1.2847                 1.9337                 2.1239
 IR Inten    --      9.1151                 3.2953                11.1610

                     49                     50                     51
                      A                      A                      A
 Frequencies --   1110.8935              1124.1301              1141.1366
 Red. masses --      2.9351                 2.0830                 1.6925
 Frc consts  --      2.1341                 1.5508                 1.2986
 IR Inten    --     21.2966                 8.1220                15.0552

                     52                     53                     54
                      A                      A                      A
 Frequencies --   1150.6899              1188.9343              1190.2262
 Red. masses --      2.5385                 1.4060                 1.4610
 Frc consts  --      1.9804                 1.1710                 1.2194
 IR Inten    --     26.5988                13.0388                11.4329

                     55                     56                     57
                      A                      A                      A
 Frequencies --   1215.2504              1216.5541              1223.8442
 Red. masses --      1.6335                 1.7634                 1.5079
 Frc consts  --      1.4213                 1.5377                 1.3307
 IR Inten    --     42.1602                 1.5238                31.9411

                     58                     59                     60
                      A                      A                      A
 Frequencies --   1242.1807              1282.1204              1293.2867
 Red. masses --      1.9192                 1.6143                 1.8011
 Frc consts  --      1.7447                 1.5635                 1.7750
 IR Inten    --     12.5951                12.5059               111.4725

                     61                     62                     63
                      A                      A                      A
 Frequencies --   1301.0537              1307.7879              1316.6686
 Red. masses --      1.3374                 5.7099                 1.6054
 Frc consts  --      1.3338                 5.7538                 1.6397
 IR Inten    --     10.2448                15.1507                21.5155

                     64                     65                     66
                      A                      A                      A
 Frequencies --   1335.9559              1368.9655              1381.6410
 Red. masses --      1.5556                 1.4225                 1.6423
 Frc consts  --      1.6358                 1.5706                 1.8471
 IR Inten    --     83.4929                22.7812                17.4639

                     67                     68                     69
                      A                      A                      A
 Frequencies --   1390.1212              1399.0025              1410.8121
 Red. masses --      1.4472                 1.3351                 1.3953
 Frc consts  --      1.6478                 1.5396                 1.6363
 IR Inten    --     27.7818                 3.2561                25.1429

                     70                     71                     72
                      A                      A                      A
 Frequencies --   1412.5712              1438.6692              1490.5795
 Red. masses --      1.4891                 1.6153                 1.1894
 Frc consts  --      1.7506                 1.9698                 1.5570
 IR Inten    --     14.1280                59.2735                14.7657

                     73                     74                     75
                      A                      A                      A
 Frequencies --   1493.8747              1500.0258              1508.1854
 Red. masses --      2.2940                 1.7189                 1.0990
 Frc consts  --      3.0163                 2.2787                 1.4728
 IR Inten    --    101.1872                67.6200                 2.7245

                     76                     77                     78
                      A                      A                      A
 Frequencies --   1512.1286              1513.9241              1520.3388
 Red. masses --      1.1113                 1.0550                 1.1119
 Frc consts  --      1.4971                 1.4247                 1.5142
 IR Inten    --     16.4230                 7.6160                24.1240

                     79                     80                     81
                      A                      A                      A
 Frequencies --   1524.8601              1525.1832              1535.9648
 Red. masses --      1.2179                 1.0487                 1.2775
 Frc consts  --      1.6685                 1.4373                 1.7757
 IR Inten    --     24.3128                 8.0973                55.5669

                     82                     83                     84
                      A                      A                      A
 Frequencies --   1605.9151              1642.5964              1828.6747
 Red. masses --      5.8184                 5.5486                10.9117
 Frc consts  --      8.8410                 8.8206                21.4989
 IR Inten    --     68.9535                97.1847               208.1897

                     85                     86                     87
                      A                      A                      A
 Frequencies --   2340.7845              3026.3161              3032.7830
 Red. masses --     12.6743                 1.0692                 1.0826
 Frc consts  --     40.9165                 5.7695                 5.8668
 IR Inten    --     33.9170                18.4272                21.5772

                     88                     89                     90
                      A                      A                      A
 Frequencies --   3039.6636              3053.9176              3064.6277
 Red. masses --      1.0616                 1.0662                 1.0733
 Frc consts  --      5.7789                 5.8587                 5.9393
 IR Inten    --     20.3659                39.3182                13.5735

                     91                     92                     93
                      A                      A                      A
 Frequencies --   3078.6169              3080.8087              3087.8898
 Red. masses --      1.0290                 1.0940                 1.1003
 Frc consts  --      5.7462                 6.1178                 6.1813
 IR Inten    --     27.3260                49.5663                55.2303

                     94                     95                     96
                      A                      A                      A
 Frequencies --   3098.3476              3120.2111              3151.1939
 Red. masses --      1.0656                 1.0982                 1.0961
 Frc consts  --      6.0270                 6.2997                 6.4131
 IR Inten    --     13.2885                24.2635                13.0139

                     97                     98                     99
                      A                      A                      A
 Frequencies --   3157.9249              3176.2903              3177.8539
 Red. masses --      1.1080                 1.0905                 1.0983
 Frc consts  --      6.5099                 6.4822                 6.5350
 IR Inten    --     16.6972                25.5026                 3.1184

                    100                    101                    102
                      A                      A                      A
 Frequencies --   3182.7391              3212.1798              3230.5223
 Red. masses --      1.1075                 1.0900                 1.0968
 Frc consts  --      6.6098                 6.6264                 6.7440
 IR Inten    --     14.5237                 4.0908                10.5493

 - Thermochemistry -
 -------------------
 Temperature   298.150 Kelvin.  Pressure   1.00000 Atm.
 Atom     1 has atomic number  6 and mass  12.00000

 Molecular mass:   259.13208 amu.
 Principal axes and moments of inertia in atomic units:
                           1         2         3
     Eigenvalues --  4063.204214596.918515724.95638
           X            0.99804  -0.06048   0.01622
           Y            0.06042   0.99816   0.00423
           Z           -0.01645  -0.00324   0.99986
 This molecule is an asymmetric top.
 Rotational symmetry number  1.
 Warning -- assumption of classical behavior for rotation
           may cause significant error
 Rotational temperatures (Kelvin)      0.02132     0.01884     0.01513
 Rotational constants (GHZ):           0.44417     0.39260     0.31524
 Zero-point vibrational energy     787502.5 (Joules/Mol)
                                  188.21763 (Kcal/Mol)
 Warning -- explicit consideration of  27 degrees of freedom as
           vibrations may cause significant error
 Vibrational temperatures:     50.43    70.28    82.84   111.89   120.32
          (Kelvin)            158.37   187.09   205.52   208.82   252.53
                              285.70   325.36   362.88   405.57   436.61
                              483.85   553.24   577.50   605.73   632.99
                              638.05   691.82   732.12   764.84   837.41
                              842.53   855.74   898.87   955.02   996.67
                             1082.34  1132.99  1160.97  1170.53  1209.24
                             1233.61  1257.94  1290.84  1326.79  1369.94
                             1397.72  1413.18  1422.52  1429.66  1497.01
                             1545.41  1565.45  1582.55  1598.33  1617.37
                             1641.84  1655.59  1710.61  1712.47  1748.47
                             1750.35  1760.84  1787.22  1844.69  1860.75
                             1871.93  1881.62  1894.39  1922.14  1969.64
                             1987.87  2000.07  2012.85  2029.84  2032.37
                             2069.92  2144.61  2149.35  2158.20  2169.94
                             2175.62  2178.20  2187.43  2193.93  2194.40
                             2209.91  2310.55  2363.33  2631.05  3367.87
                             4354.19  4363.50  4373.40  4393.91  4409.32
                             4429.44  4432.60  4442.78  4457.83  4489.29
                             4533.87  4543.55  4569.97  4572.22  4579.25
                             4621.61  4648.00

 Zero-point correction=                           0.299944 (Hartree/Particle)
 Thermal correction to Energy=                    0.317251
 Thermal correction to Enthalpy=                  0.318195
 Thermal correction to Gibbs Free Energy=         0.254292
 Sum of electronic and zero-point Energies=           -858.203505
 Sum of electronic and thermal Energies=              -858.186198
 Sum of electronic and thermal Enthalpies=            -858.185254
 Sum of electronic and thermal Free Energies=         -858.249157

                     E (Thermal)             CV                S
                      KCal/Mol        Cal/Mol-Kelvin    Cal/Mol-Kelvin
 Total                  199.078             65.717            134.496
 Electronic               0.000              0.000              0.000
 Translational            0.889              2.981             42.556
 Rotational               0.889              2.981             33.036
 Vibrational            197.300             59.755             58.904
 Vibration     1          0.594              1.982              5.521
 Vibration     2          0.595              1.978              4.864
 Vibration     3          0.596              1.974              4.539
 Vibration     4          0.599              1.964              3.946
 Vibration     5          0.601              1.960              3.804
 Vibration     6          0.606              1.941              3.268
 Vibration     7          0.612              1.923              2.946
 Vibration     8          0.616              1.910              2.765
 Vibration     9          0.617              1.908              2.735
 Vibration    10          0.627              1.873              2.376
 Vibration    11          0.637              1.842              2.146
 Vibration    12          0.650              1.801              1.909
 Vibration    13          0.664              1.759              1.715
 Vibration    14          0.681              1.707              1.522
 Vibration    15          0.695              1.667              1.398
 Vibration    16          0.717              1.603              1.230
 Vibration    17          0.753              1.503              1.021
 Vibration    18          0.767              1.467              0.958
 Vibration    19          0.784              1.425              0.889
 Vibration    20          0.800              1.383              0.827
 Vibration    21          0.803              1.375              0.816
 Vibration    22          0.837              1.293              0.708
 Vibration    23          0.864              1.230              0.636
 Vibration    24          0.887              1.180              0.584
 Vibration    25          0.939              1.070              0.482
 Vibration    26          0.943              1.063              0.475
 Vibration    27          0.952              1.043              0.459

 Optimization completed.
    -- Stationary point found.
 Normal termination of Gaussian 16 at Sun Dec 13 16:43:42 2020.

 ----------------------------------------------------------------------
 # B3LYP/6-311++G(d,p) empiricaldispersion=gd3bj scf=xqc pop=npa geom=c
 heck
 ----------------------------------------------------------------------

 --------------------------------------
 CID_62005337_JID_9238_Energie_neutraal
 --------------------------------------
 Structure from the checkpoint file:  "JID_9238.chk"
 Charge =  0 Multiplicity = 1

 SCF Done:  E(RB3LYP) =  -858.735307004     A.U. after   15 cycles
 Normal termination of Gaussian 16 at Sun Dec 13 16:53:24 2020.

 ----------------------------------------------------------------------
 # B3LYP/6-311++G(d,p) empiricaldispersion=gd3bj scf=xqc pop=npa geom=c
 heck
 ----------------------------------------------------------------------

 ------------------------------------
 CID_62005337_JID_9238_Energie_kation
 ------------------------------------
 Structure from the checkpoint file:  "JID_9238.chk"
 Charge =  1 Multiplicity = 2

 SCF Done:  E(UB3LYP) =  -858.443270103     A.U. after   24 cycles
 Normal termination of Gaussian 16 at Sun Dec 13 17:14:32 2020.
 Gaussian 16:  ES64L-G16RevA.03 25-Dec-2016

 ----------------------------------------------------------------------
 # B3LYP/6-311++G(d,p) empiricaldispersion=gd3bj scf=xqc pop=npa geom=c
 heck
 ----------------------------------------------------------------------

 -----------------------------------
 CID_62005337_JID_9238_Energie_anion
 -----------------------------------
 Structure from the checkpoint file:  "JID_9238.chk"
 Charge = -1 Multiplicity = 2

                         Standard orientation:
 ---------------------------------------------------------------------
 Center     Atomic      Atomic             Coordinates (Angstroms)
 Number     Number       Type             X           Y           Z
 ---------------------------------------------------------------------
      1          6           0       -2.624044    2.202138    0.240799
      2          8           0       -1.545295    1.818376   -0.628927
      3          6           0       -0.363652    2.423497   -0.377646
      4          8           0       -0.219326    3.303183    0.442994
      5          6           0        0.759645    1.811745   -1.188535
      6          6           0        1.591434    0.912230   -0.260487
      7          6           0        2.798206    0.238175   -0.925659
      8          6           0        3.614325   -0.518303    0.135689
      9          6           0        2.728577   -1.454142    0.971869
     10          6           0        1.518470   -0.709221    1.552928
     11          7           0        0.750598   -0.055935    0.475929
     12          6           0       -0.184235   -0.833282   -0.197789
     13          6           0       -1.304543   -1.357650    0.510928
     14          6           0       -2.224291   -2.158712   -0.171563
     15          6           0       -2.052544   -2.383290   -1.533593
     16          6           0       -0.965736   -1.772846   -2.155869
     17          7           0       -0.050070   -1.040639   -1.515158
     18          6           0       -1.551359   -0.992779    1.867894
     19          7           0       -1.774229   -0.682930    2.967661
     20          1           0       -3.493004    1.646586   -0.112403
     21          1           0       -2.801467    3.278549    0.182663
     22          1           0       -2.387922    1.928680    1.272419
     23          1           0        0.374606    1.252875   -2.040169
     24          1           0        1.407460    2.618867   -1.542623
     25          1           0        1.970146    1.574562    0.529933
     26          1           0        3.422673    0.999034   -1.410741
     27          1           0        2.439444   -0.445340   -1.701058
     28          1           0        4.423725   -1.085548   -0.338439
     29          1           0        4.092139    0.211260    0.805564
     30          1           0        2.362125   -2.276942    0.343245
     31          1           0        3.307922   -1.904357    1.787551
     32          1           0        0.869305   -1.387181    2.108226
     33          1           0        1.840042    0.071335    2.252546
     34          1           0       -3.076728   -2.564345    0.363976
     35          1           0       -2.750112   -2.990582   -2.099336
     36          1           0       -0.809016   -1.888766   -3.226708
 ---------------------------------------------------------------------

 SCF Done:  E(UB3LYP) =  -858.747324435     A.U. after   31 cycles

 The electronic state is 2-A.
 Alpha  occ. eigenvalues --  -19.05612 -19.00200 -14.19484 -14.14630 -14.13983
 Alpha  occ. eigenvalues --  -10.19053 -10.11111 -10.10062 -10.09584 -10.08296
 Alpha  occ. eigenvalues --  -10.07068 -10.06898 -10.06279 -10.05940 -10.04336
 Alpha  occ. eigenvalues --  -10.03170 -10.03110 -10.02505 -10.02343  -0.99622
 Alpha  occ. eigenvalues --   -0.91045  -0.83978  -0.77491  -0.74453  -0.69315
 Alpha  occ. eigenvalues --   -0.68455  -0.65599  -0.63209  -0.61606  -0.58851
 Alpha  occ. eigenvalues --   -0.54257  -0.51279  -0.50117  -0.48316  -0.45715
 Alpha  occ. eigenvalues --   -0.44285  -0.40056  -0.39163  -0.38884  -0.37886
 Alpha  occ. eigenvalues --   -0.36741  -0.35910  -0.35637  -0.33825  -0.33191
 Alpha  occ. eigenvalues --   -0.32137  -0.31442  -0.30165  -0.29652  -0.28938
 Alpha  occ. eigenvalues --   -0.27516  -0.26461  -0.25761  -0.25255  -0.24902
 Alpha  occ. eigenvalues --   -0.24191  -0.23984  -0.23821  -0.22573  -0.21751
 Alpha  occ. eigenvalues --   -0.20955  -0.20349  -0.19689  -0.17696  -0.17126
 Alpha  occ. eigenvalues --   -0.15061  -0.13039  -0.11310  -0.08227   0.04870
 Alpha virt. eigenvalues --    0.07182   0.08663   0.09014   0.09288   0.09846
 Alpha virt. eigenvalues --    0.10320   0.10875   0.11297   0.11913   0.12066
 Alpha virt. eigenvalues --    0.12314   0.12754   0.13186   0.13531   0.13880

  Beta  occ. eigenvalues --  -19.05612 -19.00200 -14.19487 -14.14529 -14.13658
  Beta  occ. eigenvalues --  -10.19052 -10.11112 -10.10061 -10.09544 -10.08287
  Beta  occ. eigenvalues --  -10.07066 -10.06899 -10.06279 -10.05940 -10.04328
  Beta  occ. eigenvalues --  -10.02820 -10.02676 -10.02621 -10.01966  -0.99620
  Beta  occ. eigenvalues --   -0.91044  -0.83850  -0.77142  -0.73959  -0.69262
  Beta  occ. eigenvalues --   -0.68438  -0.64943  -0.63191  -0.61223  -0.58778
  Beta  occ. eigenvalues --   -0.54150  -0.51116  -0.49569  -0.47948  -0.45695
  Beta  occ. eigenvalues --   -0.44134  -0.39927  -0.39066  -0.38756  -0.37823
  Beta  occ. eigenvalues --   -0.36696  -0.35853  -0.35557  -0.33669  -0.33051
  Beta  occ. eigenvalues --   -0.32011  -0.31383  -0.30115  -0.29616  -0.28767
  Beta  occ. eigenvalues --   -0.27474  -0.26361  -0.25407  -0.25033  -0.24649
  Beta  occ. eigenvalues --   -0.23913  -0.23801  -0.23550  -0.22444  -0.21641
  Beta  occ. eigenvalues --   -0.20451  -0.19837  -0.18800  -0.17503  -0.17101
  Beta  occ. eigenvalues --   -0.14206  -0.11253  -0.11118  -0.07241
  Beta virt. eigenvalues --    0.07122   0.08601   0.08957   0.09225   0.09770
  Beta virt. eigenvalues --    0.10239   0.10803   0.11240   0.11415   0.11853
  Beta virt. eigenvalues --    0.12233   0.12568   0.12724   0.13182   0.13499

 Mulliken charges and spin densities:
               1          2
     1  C   -0.297294   0.005877
     2  O    0.083258   0.003602
     3  C   -0.291497  -0.004066
     4  O   -0.226923   0.000081
     5  C   -0.396224   0.007250
     6  C    0.208198  -0.011461
     7  C   -0.230216   0.025499
     8  C   -0.588846  -0.039273
     9  C   -0.242206   0.004141
    10  C   -0.135063   0.000131
    11  N    0.539932   0.022627
    12  C   -1.182299  -0.078736
    13  C    1.344653   0.199408
    14  C   -0.254739   0.393413
    15  C   -0.243246  -0.118797
    16  C   -0.200631   0.451108
    17  N    0.079629   0.021434
    18  C   -1.203435  -0.055002
    19  N   -0.349932   0.171067
    20  H    0.137346   0.002805
    21  H    0.138606   0.000103
    22  H    0.210568   0.001836
    23  H    0.214979   0.008085
    24  H    0.146637   0.003373
    25  H    0.192793   0.000671
    26  H    0.111361   0.003540
    27  H    0.195245  -0.001261
    28  H    0.137230   0.018403
    29  H    0.108146   0.003264
    30  H    0.140000  -0.000409
    31  H    0.156796   0.003100
    32  H    0.187423   0.001885
    33  H    0.143359  -0.000345
    34  H    0.141636  -0.019244
    35  H    0.107453   0.008235
    36  H    0.117304  -0.032343
 Sum of Mulliken charges =  -1.00000   1.00000

 Dipole moment (field-independent basis, Debye):
    X=              4.5328    Y=              2.1928    Z=             -3.4128  Tot=              6.0830
 Quadrupole moment (field-independent basis, Debye-Ang):
   XX=           -128.4856   YY=           -140.5698   ZZ=           -147.3241
   XY=             -6.7506   XZ=              9.0800   YZ=             -4.6804

 Summary of Natural Population Analysis:

                                       Natural Population
                Natural  -----------------------------------------------
    Atom  No    Charge         Core      Valence    Rydberg      Total
 -----------------------------------------------------------------------
      C    1   -0.10850      0.99960     2.10060    0.00831     3.10850
      O    2   -0.27010      0.99986     3.26089    0.00935     4.27010
      C    3    0.41501      0.99970     1.55987    0.02542     2.58499
      O    4   -0.31504      0.99987     3.30934    0.00583     4.31504
      C    5   -0.23850      0.99955     2.23153    0.00741     3.23850
      C    6    0.00467      0.99959     1.98076    0.01499     2.99533
      C    7   -0.19930      0.99960     2.19306    0.00664     3.19930
      C    8   -0.18668      0.99964     2.18044    0.00661     3.18668
      C    9   -0.19808      0.99963     2.19229    0.00617     3.19808
      C   10   -0.07783      0.99961     2.06926    0.00896     3.07783
      N   11   -0.27872      0.99965     2.76431    0.01475     3.77872
      C   12    0.23125      0.99949     1.75206    0.01721     2.76875
      C   13   -0.08728      0.99936     2.07677    0.01114     3.08728
      C   14    0.01046      0.99954     1.98204    0.00796     2.98954
      C   15   -0.17210      0.99956     2.16369    0.00885     3.17210
      C   16    0.12632      0.99960     1.86014    0.01394     2.87368
      N   17   -0.27121      0.99967     2.75861    0.01293     3.77121
      C   18    0.14684      0.99965     1.83421    0.01930     2.85316
      N   19   -0.17185      0.99979     2.66071    0.01136     3.67185
      H   20    0.09200      0.00000     0.40724    0.00076     0.40800
      H   21    0.08385      0.00000     0.41507    0.00108     0.41615
      H   22    0.10264      0.00000     0.39592    0.00144     0.39736
      H   23    0.12663      0.00000     0.37221    0.00116     0.37337
      H   24    0.10462      0.00000     0.39446    0.00092     0.39538
      H   25    0.09478      0.00000     0.40400    0.00123     0.40522
      H   26    0.09083      0.00000     0.40815    0.00102     0.40917
      H   27    0.11393      0.00000     0.38498    0.00109     0.38607
      H   28    0.09378      0.00000     0.40505    0.00117     0.40622
      H   29    0.08781      0.00000     0.41088    0.00131     0.41219
      H   30    0.10079      0.00000     0.39815    0.00106     0.39921
      H   31    0.09274      0.00000     0.40610    0.00116     0.40726
      H   32    0.11149      0.00000     0.38730    0.00121     0.38851
      H   33    0.08924      0.00000     0.40983    0.00093     0.41076
      H   34    0.09102      0.00000     0.40808    0.00090     0.40898
      H   35    0.09293      0.00000     0.40595    0.00112     0.40707
      H   36    0.07156      0.00000     0.42731    0.00113     0.42844
 =======================================================================
   * Total *   -0.00000     18.99296    49.77125    0.23580    69.00000

 Normal termination of Gaussian 16 at Sun Dec 13 17:40:37 2020.
