 Gaussian 16, Revision A.03,

 -----------------------------------------------------------
 # opt freq B3LYP/6-31G(d) empiricaldispersion=gd3bj scf=xqc
 -----------------------------------------------------------

 -------------------------------
 CID_149618857_JID_4090_neutraal
 -------------------------------
 Symbolic Z-matrix:
 Charge =  0 Multiplicity = 1

 SCF Done:  E(RB3LYP) =  -559.206351169     A.U. after   14 cycles
 SCF Done:  E(RB3LYP) =  -559.208787142     A.U. after   13 cycles
 SCF Done:  E(RB3LYP) =  -559.209501898     A.U. after   12 cycles
 SCF Done:  E(RB3LYP) =  -559.210297807     A.U. after   12 cycles
 SCF Done:  E(RB3LYP) =  -559.210917184     A.U. after   12 cycles
 SCF Done:  E(RB3LYP) =  -559.211439556     A.U. after   14 cycles
 SCF Done:  E(RB3LYP) =  -559.211918462     A.U. after   12 cycles
 SCF Done:  E(RB3LYP) =  -559.212207932     A.U. after   11 cycles
 SCF Done:  E(RB3LYP) =  -559.212366364     A.U. after   11 cycles
 SCF Done:  E(RB3LYP) =  -559.212399377     A.U. after   10 cycles
 SCF Done:  E(RB3LYP) =  -559.212481514     A.U. after   10 cycles
 SCF Done:  E(RB3LYP) =  -559.212526663     A.U. after   11 cycles
 SCF Done:  E(RB3LYP) =  -559.212532757     A.U. after   10 cycles
 SCF Done:  E(RB3LYP) =  -559.212533236     A.U. after    7 cycles
 SCF Done:  E(RB3LYP) =  -559.212533390     A.U. after    7 cycles
 Optimization completed.
    -- Stationary point found.
 Normal termination of Gaussian 16 at Thu Dec 10 09:17:19 2020.

 --------------------------------------------------------------------
 #N Geom=AllCheck Guess=TCheck SCRF=Check GenChk RB3LYP/6-31G(d) Freq
 --------------------------------------------------------------------

 Structure from the checkpoint file:  "JID_4090.chk"
 -------------------------------
 CID_149618857_JID_4090_neutraal
 -------------------------------
 Charge =  0 Multiplicity = 1

 SCF Done:  E(RB3LYP) =  -559.212533390     A.U. after    1 cycles

  Exact polarizability: 192.158  11.259 143.893  -8.340  14.834  82.916
 Approx polarizability: 280.357  20.113 238.650 -17.117  34.351 128.933

                      1                      2                      3
                      A                      A                      A
 Frequencies --     35.7573                72.2393                94.7204
 Red. masses --      3.9456                 3.5469                 2.7095
 Frc consts  --      0.0030                 0.0109                 0.0143
 IR Inten    --      0.2018                 0.5918                 0.3874

                      4                      5                      6
                      A                      A                      A
 Frequencies --    108.3179               152.1300               214.2486
 Red. masses --      3.2912                 3.1910                 4.0528
 Frc consts  --      0.0228                 0.0435                 0.1096
 IR Inten    --      0.7698                 0.2869                 1.5333

                      7                      8                      9
                      A                      A                      A
 Frequencies --    246.2179               252.0385               275.5466
 Red. masses --      1.5552                 3.0901                 1.7991
 Frc consts  --      0.0555                 0.1157                 0.0805
 IR Inten    --      0.8642                 0.1073                 0.4284

                     10                     11                     12
                      A                      A                      A
 Frequencies --    278.9415               387.3467               407.4545
 Red. masses --      2.5064                 3.5601                 2.3974
 Frc consts  --      0.1149                 0.3147                 0.2345
 IR Inten    --      0.4405                 5.7124                 1.5459

                     13                     14                     15
                      A                      A                      A
 Frequencies --    437.0212               451.6473               489.8249
 Red. masses --      3.1256                 2.6522                 2.4873
 Frc consts  --      0.3517                 0.3187                 0.3516
 IR Inten    --      1.8463                 4.6660                 3.0312

                     16                     17                     18
                      A                      A                      A
 Frequencies --    502.1575               567.4055               585.9134
 Red. masses --      1.3258                 2.7478                 3.6108
 Frc consts  --      0.1970                 0.5212                 0.7303
 IR Inten    --     50.9601                 2.8644                 0.9163

                     19                     20                     21
                      A                      A                      A
 Frequencies --    625.9108               661.0461               689.1472
 Red. masses --      6.1634                 3.3120                 2.6986
 Frc consts  --      1.4226                 0.8527                 0.7551
 IR Inten    --      1.5214                 0.5699                 6.2382

                     22                     23                     24
                      A                      A                      A
 Frequencies --    718.3963               748.9836               764.2618
 Red. masses --      2.0737                 1.2646                 2.6974
 Frc consts  --      0.6306                 0.4180                 0.9283
 IR Inten    --     26.2749                20.2559                18.9490

                     25                     26                     27
                      A                      A                      A
 Frequencies --    803.8533               818.6970               858.1533
 Red. masses --      1.6015                 3.6029                 1.5733
 Frc consts  --      0.6097                 1.4228                 0.6827
 IR Inten    --     30.0168                 0.7490                 1.6323

                     28                     29                     30
                      A                      A                      A
 Frequencies --    869.5722               906.6263               917.8971
 Red. masses --      2.4745                 4.6596                 1.3426
 Frc consts  --      1.1024                 2.2566                 0.6665
 IR Inten    --      3.9845                 0.6368                 2.1790

                     31                     32                     33
                      A                      A                      A
 Frequencies --    921.8125               944.8045               948.5798
 Red. masses --      1.8290                 1.7247                 1.3839
 Frc consts  --      0.9157                 0.9071                 0.7337
 IR Inten    --      5.8941                 7.0530                36.1273

                     34                     35                     36
                      A                      A                      A
 Frequencies --    962.4369               998.2480              1030.8538
 Red. masses --      1.2240                 2.9486                 1.9463
 Frc consts  --      0.6680                 1.7312                 1.2186
 IR Inten    --      0.0681                 3.7449                 4.6037

                     37                     38                     39
                      A                      A                      A
 Frequencies --   1046.1373              1050.4507              1055.7658
 Red. masses --      2.0957                 1.2190                 1.3452
 Frc consts  --      1.3513                 0.7925                 0.8834
 IR Inten    --      6.1158                21.9371                 0.6458

                     40                     41                     42
                      A                      A                      A
 Frequencies --   1124.2228              1144.7610              1157.0030
 Red. masses --      2.0936                 1.6249                 1.4926
 Frc consts  --      1.5590                 1.2546                 1.1772
 IR Inten    --      3.6495                 0.5936                 0.9310

                     43                     44                     45
                      A                      A                      A
 Frequencies --   1182.2145              1193.3471              1243.0982
 Red. masses --      1.2455                 1.3496                 1.8503
 Frc consts  --      1.0256                 1.1324                 1.6846
 IR Inten    --      1.4564                 6.4264                25.8694

                     46                     47                     48
                      A                      A                      A
 Frequencies --   1262.2129              1280.5195              1309.9990
 Red. masses --      1.8183                 1.3445                 1.4218
 Frc consts  --      1.7068                 1.2990                 1.4376
 IR Inten    --      1.7635                10.0772                 2.2024

                     49                     50                     51
                      A                      A                      A
 Frequencies --   1327.7178              1340.5273              1360.2553
 Red. masses --      3.7686                 1.2437                 1.8270
 Frc consts  --      3.9142                 1.3168                 1.9917
 IR Inten    --     40.9723                 2.3421                45.8061

                     52                     53                     54
                      A                      A                      A
 Frequencies --   1382.2262              1392.7836              1402.4750
 Red. masses --      1.4174                 1.5160                 4.6640
 Frc consts  --      1.5956                 1.7327                 5.4050
 IR Inten    --     11.1728                 3.7688                11.4198

                     55                     56                     57
                      A                      A                      A
 Frequencies --   1436.6486              1467.3754              1476.2882
 Red. masses --      1.2409                 2.5888                 1.1811
 Frc consts  --      1.5090                 3.2843                 1.5167
 IR Inten    --      3.8153                19.6013                 2.1822

                     58                     59                     60
                      A                      A                      A
 Frequencies --   1500.9415              1511.0288              1524.0041
 Red. masses --      2.8557                 1.1208                 1.0500
 Frc consts  --      3.7905                 1.5077                 1.4368
 IR Inten    --     23.6285                 8.2639                 5.6047

                     61                     62                     63
                      A                      A                      A
 Frequencies --   1534.5361              1543.8559              1608.8855
 Red. masses --      1.0744                 2.8088                 5.2957
 Frc consts  --      1.4907                 3.9445                 8.0765
 IR Inten    --      3.2398                 6.8608                 9.3430

                     64                     65                     66
                      A                      A                      A
 Frequencies --   1642.2172              1679.0734              1724.3011
 Red. masses --      5.2305                 6.3503                 4.3358
 Frc consts  --      8.3111                10.5484                 7.5953
 IR Inten    --      7.4956                 4.9484                 4.7075

                     67                     68                     69
                      A                      A                      A
 Frequencies --   3026.9512              3050.3019              3058.2408
 Red. masses --      1.0661                 1.0375                 1.0843
 Frc consts  --      5.7550                 5.6875                 5.9749
 IR Inten    --     26.3055                34.2694                25.7324

                     70                     71                     72
                      A                      A                      A
 Frequencies --   3090.1130              3118.2032              3133.9233
 Red. masses --      1.0968                 1.1003                 1.1019
 Frc consts  --      6.1706                 6.3032                 6.3763
 IR Inten    --     15.8077                40.6763                25.7799

                     73                     74                     75
                      A                      A                      A
 Frequencies --   3151.3747              3159.9668              3178.2360
 Red. masses --      1.0688                 1.0803                 1.0848
 Frc consts  --      6.2541                 6.3554                 6.4560
 IR Inten    --     16.5895                 6.8603                 1.6697

                     76                     77                     78
                      A                      A                      A
 Frequencies --   3185.0913              3195.4710              3207.3988
 Red. masses --      1.0883                 1.0935                 1.0969
 Frc consts  --      6.5048                 6.5785                 6.6487
 IR Inten    --      3.3182                42.8111                34.0371

                     79                     80                     81
                      A                      A                      A
 Frequencies --   3237.0716              3252.3620              3637.5073
 Red. masses --      1.1162                 1.0955                 1.0798
 Frc consts  --      6.8911                 6.8274                 8.4176
 IR Inten    --     17.2613                 7.3679               138.8843

 - Thermochemistry -
 -------------------
 Temperature   298.150 Kelvin.  Pressure   1.00000 Atm.
 Atom     1 has atomic number  6 and mass  12.00000

 Molecular mass:   185.12045 amu.
 Principal axes and moments of inertia in atomic units:
                           1         2         3
     Eigenvalues --  1264.424294300.555875058.75601
           X            0.99998   0.00369  -0.00455
           Y           -0.00369   0.99999   0.00029
           Z            0.00456  -0.00027   0.99999
 This molecule is an asymmetric top.
 Rotational symmetry number  1.
 Warning -- assumption of classical behavior for rotation
           may cause significant error
 Rotational temperatures (Kelvin)      0.06850     0.02014     0.01712
 Rotational constants (GHZ):           1.42732     0.41965     0.35676
 Zero-point vibrational energy     653970.3 (Joules/Mol)
                                  156.30265 (Kcal/Mol)
 Warning -- explicit consideration of  18 degrees of freedom as
           vibrations may cause significant error
 Vibrational temperatures:     51.45   103.94   136.28   155.85   218.88
          (Kelvin)            308.26   354.25   362.63   396.45   401.33
                              557.31   586.24   628.78   649.82   704.75
                              722.49   816.37   843.00   900.55   951.10
                              991.53  1033.61  1077.62  1099.60  1156.57
                             1177.92  1234.69  1251.12  1304.43  1320.65
                             1326.28  1359.36  1364.79  1384.73  1436.26
                             1483.17  1505.16  1511.36  1519.01  1617.51
                             1647.06  1664.67  1700.94  1716.96  1788.54
                             1816.04  1842.38  1884.80  1910.29  1928.72
                             1957.10  1988.72  2003.90  2017.85  2067.02
                             2111.23  2124.05  2159.52  2174.03  2192.70
                             2207.86  2221.26  2314.83  2362.78  2415.81
                             2480.88  4355.11  4388.70  4400.13  4445.98
                             4486.40  4509.02  4534.13  4546.49  4572.77
                             4582.64  4597.57  4614.73  4657.42  4679.42
                             5233.56

 Zero-point correction=                           0.249084 (Hartree/Particle)
 Thermal correction to Energy=                    0.261702
 Thermal correction to Enthalpy=                  0.262646
 Thermal correction to Gibbs Free Energy=         0.209849
 Sum of electronic and zero-point Energies=           -558.963449
 Sum of electronic and thermal Energies=              -558.950831
 Sum of electronic and thermal Enthalpies=            -558.949887
 Sum of electronic and thermal Free Energies=         -559.002685

                     E (Thermal)             CV                S
                      KCal/Mol        Cal/Mol-Kelvin    Cal/Mol-Kelvin
 Total                  164.220             49.943            111.122
 Electronic               0.000              0.000              0.000
 Translational            0.889              2.981             41.554
 Rotational               0.889              2.981             31.687
 Vibrational            162.443             43.982             37.881
 Vibration     1          0.594              1.982              5.481
 Vibration     2          0.598              1.967              4.091
 Vibration     3          0.603              1.953              3.560
 Vibration     4          0.606              1.943              3.299
 Vibration     5          0.619              1.900              2.645
 Vibration     6          0.644              1.819              2.007
 Vibration     7          0.661              1.769              1.757
 Vibration     8          0.664              1.759              1.716
 Vibration     9          0.677              1.719              1.561
 Vibration    10          0.679              1.712              1.540
 Vibration    11          0.756              1.497              1.010
 Vibration    12          0.772              1.454              0.936
 Vibration    13          0.797              1.389              0.836
 Vibration    14          0.810              1.357              0.791
 Vibration    15          0.846              1.273              0.684
 Vibration    16          0.857              1.245              0.653
 Vibration    17          0.923              1.102              0.509
 Vibration    18          0.943              1.062              0.475

 Optimization completed.
    -- Stationary point found.
 Normal termination of Gaussian 16 at Thu Dec 10 09:24:53 2020.

 ----------------------------------------------------------------------
 # B3LYP/6-311++G(d,p) empiricaldispersion=gd3bj scf=xqc pop=npa geom=c
 heck
 ----------------------------------------------------------------------

 ---------------------------------------
 CID_149618857_JID_4090_Energie_neutraal
 ---------------------------------------
 Structure from the checkpoint file:  "JID_4090.chk"
 Charge =  0 Multiplicity = 1

 SCF Done:  E(RB3LYP) =  -559.360897657     A.U. after   15 cycles
 Normal termination of Gaussian 16 at Thu Dec 10 09:27:50 2020.

 ----------------------------------------------------------------------
 # B3LYP/6-311++G(d,p) empiricaldispersion=gd3bj scf=xqc pop=npa geom=c
 heck
 ----------------------------------------------------------------------

 -------------------------------------
 CID_149618857_JID_4090_Energie_kation
 -------------------------------------
 Structure from the checkpoint file:  "JID_4090.chk"
 Charge =  1 Multiplicity = 2

 SCF Done:  E(UB3LYP) =  -559.092478354     A.U. after   22 cycles
 Normal termination of Gaussian 16 at Thu Dec 10 09:33:50 2020.
 Gaussian 16:  ES64L-G16RevA.03 25-Dec-2016

 ----------------------------------------------------------------------
 # B3LYP/6-311++G(d,p) empiricaldispersion=gd3bj scf=xqc pop=npa geom=c
 heck
 ----------------------------------------------------------------------

 ------------------------------------
 CID_149618857_JID_4090_Energie_anion
 ------------------------------------
 Structure from the checkpoint file:  "JID_4090.chk"
 Charge = -1 Multiplicity = 2

                         Standard orientation:
 ---------------------------------------------------------------------
 Center     Atomic      Atomic             Coordinates (Angstroms)
 Number     Number       Type             X           Y           Z
 ---------------------------------------------------------------------
      1          6           0       -2.559818   -1.434751    1.361479
      2          6           0       -2.056890   -1.184597   -0.073062
      3          6           0       -2.938533   -0.150375   -0.832015
      4          6           0       -3.147811    1.161888   -0.125904
      5          6           0       -2.701722    2.344294   -0.558256
      6          6           0       -0.597148   -0.835399   -0.095729
      7          6           0        0.474926   -1.592057   -0.504154
      8          6           0        1.666146   -0.818156   -0.290067
      9          6           0        3.036761   -1.035605   -0.506499
     10          6           0        3.939815   -0.029017   -0.187619
     11          6           0        3.502744    1.199366    0.347316
     12          6           0        2.153276    1.443769    0.578648
     13          6           0        1.248873    0.427754    0.260112
     14          7           0       -0.125260    0.379044    0.387242
     15          1           0       -2.422167   -0.551968    1.994218
     16          1           0       -2.003610   -2.257782    1.819760
     17          1           0       -3.625701   -1.693172    1.363375
     18          1           0       -2.146786   -2.127410   -0.625764
     19          1           0       -2.501113    0.027288   -1.820874
     20          1           0       -3.921784   -0.615644   -0.992008
     21          1           0       -3.719127    1.124064    0.801751
     22          1           0       -2.899689    3.265392   -0.016422
     23          1           0       -2.133393    2.433339   -1.481930
     24          1           0        0.416269   -2.596010   -0.902872
     25          1           0        3.383921   -1.978398   -0.921105
     26          1           0        5.001767   -0.187688   -0.353144
     27          1           0        4.232307    1.968321    0.585095
     28          1           0        1.815476    2.389384    0.994336
     29          1           0       -0.723259    1.164295    0.599371
 ---------------------------------------------------------------------

 SCF Done:  E(UB3LYP) =  -559.347078669     A.U. after   33 cycles
 SCF Done:  E(UB3LYP) =  -559.347078670     a.u. after    1 cycles

 The electronic state is 2-A.
 Alpha  occ. eigenvalues --  -14.25217 -10.11052 -10.10975 -10.08965 -10.08188
 Alpha  occ. eigenvalues --  -10.08004 -10.07946 -10.07868 -10.07732 -10.07625
 Alpha  occ. eigenvalues --  -10.07564 -10.06795 -10.06044 -10.05947  -0.88247
 Alpha  occ. eigenvalues --   -0.75134  -0.72174  -0.68981  -0.66862  -0.64284
 Alpha  occ. eigenvalues --   -0.61710  -0.58547  -0.54027  -0.51309  -0.49078
 Alpha  occ. eigenvalues --   -0.48097  -0.45427  -0.43567  -0.39219  -0.38528
 Alpha  occ. eigenvalues --   -0.36203  -0.35105  -0.34351  -0.33955  -0.33734
 Alpha  occ. eigenvalues --   -0.32990  -0.31241  -0.30930  -0.28947  -0.27889
 Alpha  occ. eigenvalues --   -0.26909  -0.25449  -0.24934  -0.24660  -0.23706
 Alpha  occ. eigenvalues --   -0.23070  -0.18877  -0.17019  -0.13172  -0.11282
 Alpha  occ. eigenvalues --    0.04456
 Alpha virt. eigenvalues --    0.06221   0.06742   0.07109   0.08048   0.08069
 Alpha virt. eigenvalues --    0.08256   0.09210   0.09865   0.10146   0.10232
 Alpha virt. eigenvalues --    0.10454   0.10943   0.11538   0.12693   0.13188

  Beta  occ. eigenvalues --  -14.25202 -10.11051 -10.10974 -10.08953 -10.08175
  Beta  occ. eigenvalues --  -10.07976 -10.07938 -10.07863 -10.07732 -10.07623
  Beta  occ. eigenvalues --  -10.07545 -10.06744 -10.06037 -10.05899  -0.88231
  Beta  occ. eigenvalues --   -0.75118  -0.72127  -0.68955  -0.66809  -0.64264
  Beta  occ. eigenvalues --   -0.61685  -0.58465  -0.53980  -0.51273  -0.49058
  Beta  occ. eigenvalues --   -0.48044  -0.45355  -0.43531  -0.39192  -0.38480
  Beta  occ. eigenvalues --   -0.36160  -0.35050  -0.34328  -0.33925  -0.33698
  Beta  occ. eigenvalues --   -0.32957  -0.31219  -0.30889  -0.28897  -0.27843
  Beta  occ. eigenvalues --   -0.26874  -0.25405  -0.24912  -0.24632  -0.23675
  Beta  occ. eigenvalues --   -0.23018  -0.18850  -0.16874  -0.13155  -0.11257
  Beta virt. eigenvalues --    0.06265   0.07030   0.07256   0.07385   0.08294
  Beta virt. eigenvalues --    0.08730   0.08782   0.09710   0.10219   0.10259
  Beta virt. eigenvalues --    0.10684   0.10932   0.11521   0.11869   0.12943

 Mulliken charges and spin densities:
               1          2
     1  C    1.214175  -1.917957
     2  C   -2.802956   2.908791
     3  C    1.733019  -2.336945
     4  C   -1.129738   1.265452
     5  C    0.601228  -1.149655
     6  C    1.419918  -1.916974
     7  C    0.530685  -0.315512
     8  C    2.273234  -0.469602
     9  C   -0.851838   0.588213
    10  C    0.592154  -0.610281
    11  C   -0.116299  -0.258026
    12  C   -0.518673  -0.042950
    13  C   -1.018984  -0.257292
    14  N    0.076137   0.026317
    15  H   -0.219760   0.384772
    16  H    0.027651   0.109844
    17  H   -0.671650   0.846311
    18  H   -0.616419   0.844631
    19  H   -0.084823   0.222611
    20  H   -0.449549   0.641481
    21  H   -0.422894   0.608003
    22  H   -0.508544   0.643252
    23  H    0.008181   0.121291
    24  H   -0.157350   0.307452
    25  H   -0.007654   0.129650
    26  H    0.092775   0.041610
    27  H   -0.017591   0.158233
    28  H   -0.321641   0.469440
    29  H    0.347207  -0.042160
 Sum of Mulliken charges =  -1.00000   1.00000

 Dipole moment (field-independent basis, Debye):
    X=              8.2691    Y=              0.2571    Z=             -1.2482  Tot=              8.3667
 Quadrupole moment (field-independent basis, Debye-Ang):
   XX=           -167.0134   YY=           -132.9602   ZZ=           -117.9666
   XY=             -4.8155   XZ=              2.1711   YZ=             -1.2869

 Summary of Natural Population Analysis:

                                       Natural Population
                Natural  -----------------------------------------------
    Atom  No    Charge         Core      Valence    Rydberg      Total
 -----------------------------------------------------------------------
      C    1   -0.28109      0.99965     2.27532    0.00612     3.28109
      C    2   -0.12381      0.99955     2.11236    0.01189     3.12381
      C    3   -0.20469      0.99959     2.19370    0.01140     3.20469
      C    4   -0.08659      0.99956     2.07601    0.01102     3.08659
      C    5   -0.19501      0.99956     2.18679    0.00866     3.19501
      C    6    0.10473      0.99951     1.88154    0.01421     2.89527
      C    7   -0.14502      0.99946     2.13723    0.00834     3.14502
      C    8   -0.04375      0.99950     2.03583    0.00842     3.04375
      C    9   -0.09717      0.99953     2.08916    0.00848     3.09717
      C   10   -0.12053      0.99958     2.11074    0.01021     3.12053
      C   11   -0.11263      0.99958     2.10321    0.00984     3.11263
      C   12   -0.11615      0.99952     2.10699    0.00963     3.11615
      C   13    0.07904      0.99948     1.91062    0.01086     2.92096
      N   14   -0.27961      0.99962     2.77207    0.00792     3.77961
      H   15    0.09844      0.00000     0.39998    0.00158     0.40156
      H   16    0.10273      0.00000     0.39617    0.00110     0.39727
      H   17    0.10376      0.00000     0.39386    0.00239     0.39624
      H   18    0.10806      0.00000     0.38930    0.00264     0.39194
      H   19    0.10114      0.00000     0.39741    0.00145     0.39886
      H   20    0.11063      0.00000     0.38681    0.00256     0.38937
      H   21    0.09757      0.00000     0.40044    0.00199     0.40243
      H   22    0.09736      0.00000     0.40111    0.00153     0.40264
      H   23    0.09064      0.00000     0.40818    0.00118     0.40936
      H   24    0.10656      0.00000     0.39257    0.00087     0.39344
      H   25    0.09766      0.00000     0.40113    0.00122     0.40234
      H   26    0.09651      0.00000     0.40274    0.00075     0.40349
      H   27    0.09757      0.00000     0.40167    0.00076     0.40243
      H   28    0.10335      0.00000     0.39563    0.00102     0.39665
      H   29    0.21031      0.00000     0.28683    0.00285     0.28969
 =======================================================================
   * Total *   -0.00000     13.99370    35.84540    0.16090    50.00000

 Normal termination of Gaussian 16 at Thu Dec 10 09:43:55 2020.
