 Gaussian 16, Revision A.03,

 -----------------------------------------------------------
 # opt freq B3LYP/6-31G(d) empiricaldispersion=gd3bj scf=xqc
 -----------------------------------------------------------

 ------------------------------
 CID_82234813_JID_5096_neutraal
 ------------------------------
 Symbolic Z-matrix:
 Charge =  0 Multiplicity = 1

 SCF Done:  E(RB3LYP) =  -634.253568332     A.U. after   14 cycles
 SCF Done:  E(RB3LYP) =  -634.256344550     A.U. after   11 cycles
 SCF Done:  E(RB3LYP) =  -634.256597476     A.U. after   10 cycles
 SCF Done:  E(RB3LYP) =  -634.256630048     A.U. after   10 cycles
 SCF Done:  E(RB3LYP) =  -634.256644073     A.U. after    9 cycles
 SCF Done:  E(RB3LYP) =  -634.256666360     A.U. after   10 cycles
 SCF Done:  E(RB3LYP) =  -634.256705629     A.U. after   12 cycles
 SCF Done:  E(RB3LYP) =  -634.256740045     A.U. after   10 cycles
 SCF Done:  E(RB3LYP) =  -634.256793958     A.U. after   12 cycles
 SCF Done:  E(RB3LYP) =  -634.256799414     A.U. after   12 cycles
 SCF Done:  E(RB3LYP) =  -634.256815762     A.U. after    8 cycles
 SCF Done:  E(RB3LYP) =  -634.256816232     A.U. after    9 cycles
 SCF Done:  E(RB3LYP) =  -634.256816293     A.U. after    8 cycles
 SCF Done:  E(RB3LYP) =  -634.256816357     A.U. after    8 cycles
 SCF Done:  E(RB3LYP) =  -634.256816395     A.U. after    6 cycles
 SCF Done:  E(RB3LYP) =  -634.256816407     A.U. after    6 cycles
 Optimization completed.
    -- Stationary point found.
 Normal termination of Gaussian 16 at Thu Dec 10 14:51:08 2020.

 --------------------------------------------------------------------
 #N Geom=AllCheck Guess=TCheck SCRF=Check GenChk RB3LYP/6-31G(d) Freq
 --------------------------------------------------------------------

 Structure from the checkpoint file:  "JID_5096.chk"
 ------------------------------
 CID_82234813_JID_5096_neutraal
 ------------------------------
 Charge =  0 Multiplicity = 1

 SCF Done:  E(RB3LYP) =  -634.256816407     A.U. after    1 cycles

  Exact polarizability: 177.893  -1.493 143.009  -0.370  -1.423 112.379
 Approx polarizability: 219.612  -0.461 217.795  -3.416  -8.105 163.682

                      1                      2                      3
                      A                      A                      A
 Frequencies --     14.5846                39.6026                61.7218
 Red. masses --      3.0246                 2.6843                 3.7392
 Frc consts  --      0.0004                 0.0025                 0.0084
 IR Inten    --      0.0139                 0.6473                 1.1273

                      4                      5                      6
                      A                      A                      A
 Frequencies --     73.1894               115.7896               140.0563
 Red. masses --      3.5035                 1.0727                 2.9952
 Frc consts  --      0.0111                 0.0085                 0.0346
 IR Inten    --      0.4447                 0.0024                 1.3228

                      7                      8                      9
                      A                      A                      A
 Frequencies --    154.2154               209.2386               226.9405
 Red. masses --      2.9926                 3.1384                 2.9159
 Frc consts  --      0.0419                 0.0810                 0.0885
 IR Inten    --      0.4306                 0.5798                 1.0805

                     10                     11                     12
                      A                      A                      A
 Frequencies --    233.2613               244.2217               254.4197
 Red. masses --      1.0341                 1.9770                 1.2923
 Frc consts  --      0.0332                 0.0695                 0.0493
 IR Inten    --      0.0019                 1.1647                 1.3039

                     13                     14                     15
                      A                      A                      A
 Frequencies --    284.1941               293.4894               350.3528
 Red. masses --      3.6240                 2.1454                 3.2890
 Frc consts  --      0.1725                 0.1089                 0.2379
 IR Inten    --      0.6186                 1.2394                 3.4092

                     16                     17                     18
                      A                      A                      A
 Frequencies --    354.6796               402.1151               438.3760
 Red. masses --      2.1961                 2.5429                 4.0275
 Frc consts  --      0.1628                 0.2423                 0.4560
 IR Inten    --      0.9868                 5.1770                 2.9806

                     19                     20                     21
                      A                      A                      A
 Frequencies --    454.4876               481.6949               509.1447
 Red. masses --      3.2217                 2.5589                 1.3574
 Frc consts  --      0.3921                 0.3498                 0.2073
 IR Inten    --     14.7316                 2.7750                70.9389

                     22                     23                     24
                      A                      A                      A
 Frequencies --    533.7646               551.6748               620.2185
 Red. masses --      1.9175                 2.1944                 3.2492
 Frc consts  --      0.3219                 0.3935                 0.7364
 IR Inten    --      6.0795                 8.6766                 1.2027

                     25                     26                     27
                      A                      A                      A
 Frequencies --    696.8156               722.4460               755.0620
 Red. masses --      3.5827                 3.9272                 5.3648
 Frc consts  --      1.0249                 1.2077                 1.8021
 IR Inten    --      3.9190                 0.0904                 8.0878

                     28                     29                     30
                      A                      A                      A
 Frequencies --    775.2446               813.3316               845.0466
 Red. masses --      1.6572                 2.3056                 3.1562
 Frc consts  --      0.5868                 0.8986                 1.3280
 IR Inten    --     65.3077                 0.8301                 2.8525

                     31                     32                     33
                      A                      A                      A
 Frequencies --    865.0817               892.2092               911.1218
 Red. masses --      1.6077                 2.2403                 2.4475
 Frc consts  --      0.7089                 1.0507                 1.1971
 IR Inten    --      9.2928                 2.1566                 1.2448

                     34                     35                     36
                      A                      A                      A
 Frequencies --    936.2058               941.8414               952.5946
 Red. masses --      2.4320                 1.1566                 1.6011
 Frc consts  --      1.2559                 0.6045                 0.8560
 IR Inten    --      3.6405                 0.9798                 0.3099

                     37                     38                     39
                      A                      A                      A
 Frequencies --    974.3596              1004.6864              1026.0146
 Red. masses --      1.5573                 1.5196                 3.2362
 Frc consts  --      0.8711                 0.9037                 2.0072
 IR Inten    --      0.0186                 0.4946                11.3758

                     40                     41                     42
                      A                      A                      A
 Frequencies --   1068.1410              1074.7876              1076.7459
 Red. masses --      2.3948                 1.7280                 1.4235
 Frc consts  --      1.6098                 1.1761                 0.9723
 IR Inten    --      4.1059                 1.8301                 0.4623

                     43                     44                     45
                      A                      A                      A
 Frequencies --   1085.0930              1105.9581              1137.1395
 Red. masses --      1.6514                 1.9334                 2.2684
 Frc consts  --      1.1456                 1.3933                 1.7282
 IR Inten    --      1.3769                15.6192                 3.5928

                     46                     47                     48
                      A                      A                      A
 Frequencies --   1137.9457              1143.5183              1150.1268
 Red. masses --      3.1934                 2.4281                 2.4607
 Frc consts  --      2.4364                 1.8707                 1.9178
 IR Inten    --     54.1174                16.1495                11.4453

                     49                     50                     51
                      A                      A                      A
 Frequencies --   1180.6999              1202.2190              1213.5367
 Red. masses --      1.4149                 1.4836                 2.0056
 Frc consts  --      1.1621                 1.2633                 1.7402
 IR Inten    --      3.6332                 2.0967                 0.2507

                     52                     53                     54
                      A                      A                      A
 Frequencies --   1241.9491              1286.4866              1305.8282
 Red. masses --      1.5108                 1.4720                 1.3497
 Frc consts  --      1.3730                 1.4353                 1.3560
 IR Inten    --      1.3291                16.0869                 1.8300

                     55                     56                     57
                      A                      A                      A
 Frequencies --   1308.2164              1345.5392              1353.6384
 Red. masses --      2.0440                 1.4219                 1.3286
 Frc consts  --      2.0611                 1.5168                 1.4344
 IR Inten    --      6.0286                 6.6860                 3.4471

                     58                     59                     60
                      A                      A                      A
 Frequencies --   1360.4676              1377.6407              1380.6673
 Red. masses --      1.5070                 1.5160                 1.4349
 Frc consts  --      1.6433                 1.6952                 1.6116
 IR Inten    --     61.3014                18.6268                 4.4583

                     61                     62                     63
                      A                      A                      A
 Frequencies --   1391.9896              1401.8054              1419.7253
 Red. masses --      1.5913                 1.4566                 1.2362
 Frc consts  --      1.8167                 1.6865                 1.4680
 IR Inten    --      4.3634                 3.3319                 4.1548

                     64                     65                     66
                      A                      A                      A
 Frequencies --   1422.8396              1439.2654              1442.3284
 Red. masses --      1.5020                 1.3520                 1.3207
 Frc consts  --      1.7915                 1.6501                 1.6188
 IR Inten    --     11.6356                 9.7033                 7.2487

                     67                     68                     69
                      A                      A                      A
 Frequencies --   1458.7894              1479.1576              1500.3688
 Red. masses --      2.2034                 2.6621                 1.2327
 Frc consts  --      2.7627                 3.4316                 1.6350
 IR Inten    --      4.2973                16.4392                13.9969

                     70                     71                     72
                      A                      A                      A
 Frequencies --   1509.5896              1512.0986              1512.6817
 Red. masses --      1.2662                 1.0432                 1.0939
 Frc consts  --      1.7001                 1.4053                 1.4748
 IR Inten    --      4.3256                 5.1341                 7.8606

                     73                     74                     75
                      A                      A                      A
 Frequencies --   1514.9103              1522.0879              1524.1425
 Red. masses --      1.0422                 1.1058                 1.0513
 Frc consts  --      1.4092                 1.5094                 1.4389
 IR Inten    --      0.8680                 5.0117                 0.5915

                     76                     77                     78
                      A                      A                      A
 Frequencies --   1524.4918              1529.7392              1533.3977
 Red. masses --      1.1598                 1.0499                 1.1049
 Frc consts  --      1.5881                 1.4475                 1.5306
 IR Inten    --      1.6029                 7.8312                 1.8056

                     79                     80                     81
                      A                      A                      A
 Frequencies --   1541.9779              1579.6955              1652.2533
 Red. masses --      1.0903                 5.1099                 5.7741
 Frc consts  --      1.5274                 7.5130                 9.2872
 IR Inten    --      5.1776                 5.2134                25.5840

                     82                     83                     84
                      A                      A                      A
 Frequencies --   2867.1798              2905.3400              3020.2931
 Red. masses --      1.0798                 1.0733                 1.0680
 Frc consts  --      5.2300                 5.3377                 5.7400
 IR Inten    --     65.8360               110.1965                38.5058

                     85                     86                     87
                      A                      A                      A
 Frequencies --   3028.5507              3031.7639              3044.6753
 Red. masses --      1.0461                 1.0768                 1.0351
 Frc consts  --      5.6532                 5.8317                 5.6537
 IR Inten    --     29.5271                64.3166                32.9033

                     88                     89                     90
                      A                      A                      A
 Frequencies --   3048.2217              3049.3664              3067.6265
 Red. masses --      1.0612                 1.0363                 1.0685
 Frc consts  --      5.8095                 5.6777                 5.9243
 IR Inten    --     23.9015                34.9275                23.9501

                     91                     92                     93
                      A                      A                      A
 Frequencies --   3071.5250              3078.5589              3082.3863
 Red. masses --      1.1017                 1.0881                 1.0873
 Frc consts  --      6.1236                 6.0759                 6.0867
 IR Inten    --     25.0699                64.4541                50.4872

                     94                     95                     96
                      A                      A                      A
 Frequencies --   3093.5732              3110.5366              3113.8200
 Red. masses --      1.1053                 1.1026                 1.1023
 Frc consts  --      6.2324                 6.2857                 6.2973
 IR Inten    --     42.4927                19.7184                64.7157

                     97                     98                     99
                      A                      A                      A
 Frequencies --   3120.0848              3128.0265              3132.6233
 Red. masses --      1.1022                 1.1024                 1.1015
 Frc consts  --      6.3216                 6.3552                 6.3685
 IR Inten    --     23.7413                 7.0705                40.0932

                    100                    101                    102
                      A                      A                      A
 Frequencies --   3138.6510              3496.3814              3635.1268
 Red. masses --      1.0952                 1.0748                 1.0800
 Frc consts  --      6.3568                 7.7413                 8.4085
 IR Inten    --     16.9478                 1.9348                30.2747

 - Thermochemistry -
 -------------------
 Temperature   298.150 Kelvin.  Pressure   1.00000 Atm.
 Atom     1 has atomic number  6 and mass  12.00000

 Molecular mass:   207.17355 amu.
 Principal axes and moments of inertia in atomic units:
                           1         2         3
     Eigenvalues --  1652.529265814.099276528.52985
           X            0.99999   0.00315  -0.00272
           Y           -0.00315   0.99999   0.00115
           Z            0.00273  -0.00115   1.00000
 This molecule is an asymmetric top.
 Rotational symmetry number  1.
 Warning -- assumption of classical behavior for rotation
           may cause significant error
 Rotational temperatures (Kelvin)      0.05241     0.01490     0.01327
 Rotational constants (GHZ):           1.09211     0.31041     0.27644
 Zero-point vibrational energy     851546.7 (Joules/Mol)
                                  203.52454 (Kcal/Mol)
 Warning -- explicit consideration of  24 degrees of freedom as
           vibrations may cause significant error
 Vibrational temperatures:     20.98    56.98    88.80   105.30   166.60
          (Kelvin)            201.51   221.88   301.05   326.52   335.61
                              351.38   366.05   408.89   422.27   504.08
                              510.30   578.55   630.73   653.91   693.05
                              732.55   767.97   793.74   892.36  1002.56
                             1039.44  1086.37  1115.40  1170.20  1215.83
                             1244.66  1283.69  1310.90  1346.99  1355.10
                             1370.57  1401.89  1445.52  1476.21  1536.82
                             1546.38  1549.20  1561.21  1591.23  1636.09
                             1637.25  1645.27  1654.78  1698.76  1729.72
                             1746.01  1786.89  1850.97  1878.80  1882.23
                             1935.93  1947.58  1957.41  1982.12  1986.47
                             2002.76  2016.89  2042.67  2047.15  2070.78
                             2075.19  2098.87  2128.18  2158.70  2171.96
                             2175.57  2176.41  2179.62  2189.95  2192.90
                             2193.40  2200.95  2206.22  2218.56  2272.83
                             2377.22  4125.23  4180.14  4345.53  4357.41
                             4362.03  4380.61  4385.71  4387.36  4413.63
                             4419.24  4429.36  4434.87  4450.96  4475.37
                             4480.09  4489.11  4500.53  4507.15  4515.82
                             5030.51  5230.14

 Zero-point correction=                           0.324337 (Hartree/Particle)
 Thermal correction to Energy=                    0.339931
 Thermal correction to Enthalpy=                  0.340875
 Thermal correction to Gibbs Free Energy=         0.280225
 Sum of electronic and zero-point Energies=           -633.932479
 Sum of electronic and thermal Energies=              -633.916886
 Sum of electronic and thermal Enthalpies=            -633.915941
 Sum of electronic and thermal Free Energies=         -633.976592

                     E (Thermal)             CV                S
                      KCal/Mol        Cal/Mol-Kelvin    Cal/Mol-Kelvin
 Total                  213.310             59.301            127.649
 Electronic               0.000              0.000              0.000
 Translational            0.889              2.981             41.889
 Rotational               0.889              2.981             32.506
 Vibrational            211.532             53.340             53.254
 Vibration     1          0.593              1.986              7.261
 Vibration     2          0.594              1.981              5.279
 Vibration     3          0.597              1.973              4.401
 Vibration     4          0.599              1.967              4.066
 Vibration     5          0.608              1.936              3.169
 Vibration     6          0.615              1.913              2.803
 Vibration     7          0.620              1.898              2.620
 Vibration     8          0.642              1.827              2.050
 Vibration     9          0.651              1.800              1.903
 Vibration    10          0.654              1.790              1.854
 Vibration    11          0.660              1.772              1.772
 Vibration    12          0.665              1.755              1.700
 Vibration    13          0.683              1.703              1.508
 Vibration    14          0.688              1.686              1.454
 Vibration    15          0.727              1.575              1.165
 Vibration    16          0.731              1.566              1.145
 Vibration    17          0.768              1.466              0.955
 Vibration    18          0.799              1.387              0.832
 Vibration    19          0.813              1.351              0.782
 Vibration    20          0.838              1.291              0.706
 Vibration    21          0.864              1.230              0.636
 Vibration    22          0.889              1.175              0.579
 Vibration    23          0.907              1.136              0.541
 Vibration    24          0.980              0.989              0.416

                           ! Non-Optimized Parameters !
 Normal termination of Gaussian 16 at Thu Dec 10 15:01:30 2020.

 ----------------------------------------------------------------------
 # B3LYP/6-311++G(d,p) empiricaldispersion=gd3bj scf=xqc pop=npa geom=c
 heck
 ----------------------------------------------------------------------

 --------------------------------------
 CID_82234813_JID_5096_Energie_neutraal
 --------------------------------------
 Structure from the checkpoint file:  "JID_5096.chk"
 Charge =  0 Multiplicity = 1

 SCF Done:  E(RB3LYP) =  -634.431850448     A.U. after   14 cycles
 Normal termination of Gaussian 16 at Thu Dec 10 15:06:03 2020.

 ----------------------------------------------------------------------
 # B3LYP/6-311++G(d,p) empiricaldispersion=gd3bj scf=xqc pop=npa geom=c
 heck
 ----------------------------------------------------------------------

 ------------------------------------
 CID_82234813_JID_5096_Energie_kation
 ------------------------------------
 Structure from the checkpoint file:  "JID_5096.chk"
 Charge =  1 Multiplicity = 2

 SCF Done:  E(UB3LYP) =  -634.152782082     A.U. after   21 cycles
 Normal termination of Gaussian 16 at Thu Dec 10 15:15:38 2020.
 Gaussian 16:  ES64L-G16RevA.03 25-Dec-2016

 ----------------------------------------------------------------------
 # B3LYP/6-311++G(d,p) empiricaldispersion=gd3bj scf=xqc pop=npa geom=c
 heck
 ----------------------------------------------------------------------

 -----------------------------------
 CID_82234813_JID_5096_Energie_anion
 -----------------------------------
 Structure from the checkpoint file:  "JID_5096.chk"
 Charge = -1 Multiplicity = 2

                         Standard orientation:
 ---------------------------------------------------------------------
 Center     Atomic      Atomic             Coordinates (Angstroms)
 Number     Number       Type             X           Y           Z
 ---------------------------------------------------------------------
      1          6           0       -2.961664    2.446372   -0.275854
      2          6           0       -1.915529    1.384944   -0.207626
      3          6           0       -1.971404    0.022169   -0.007829
      4          7           0       -0.697301   -0.519946   -0.041729
      5          6           0        0.128794    0.481125   -0.258877
      6          7           0       -0.563968    1.662104   -0.362589
      7          6           0        1.624369    0.418424   -0.340269
      8          6           0        2.103414   -0.911671   -0.936935
      9          6           0        3.635300   -0.974978   -0.965458
     10          6           0        4.225626   -0.677178    0.418912
     11          6           0        3.672500    0.643303    0.958238
     12          7           0        2.212152    0.574193    1.000480
     13          6           0       -3.168367   -0.858267    0.220431
     14          6           0       -3.291292   -1.906833   -0.898112
     15          6           0       -3.088704   -1.534649    1.599676
     16          1           0       -2.829318    3.209810    0.502655
     17          1           0       -2.966258    2.962187   -1.245645
     18          1           0       -3.951474    2.004289   -0.135791
     19          1           0       -0.167885    2.568069   -0.569205
     20          1           0        1.961377    1.234862   -1.016290
     21          1           0        1.687839   -1.026406   -1.944300
     22          1           0        1.691025   -1.717027   -0.321152
     23          1           0        3.966925   -1.957122   -1.323065
     24          1           0        4.015628   -0.233878   -1.684356
     25          1           0        3.953361   -1.478345    1.116874
     26          1           0        5.320630   -0.632834    0.371977
     27          1           0        4.037167    0.827716    1.974899
     28          1           0        4.040267    1.473424    0.319781
     29          1           0        1.831083    1.406820    1.444509
     30          1           0       -4.065960   -0.225040    0.198935
     31          1           0       -2.388647   -2.525499   -0.929744
     32          1           0       -4.156064   -2.559735   -0.730567
     33          1           0       -3.404964   -1.427320   -1.876718
     34          1           0       -3.056898   -0.789387    2.402121
     35          1           0       -3.954055   -2.186832    1.767434
     36          1           0       -2.178217   -2.138786    1.666741
 ---------------------------------------------------------------------

 SCF Done:  E(UB3LYP) =  -634.423220110     A.U. after   30 cycles

 The electronic state is 2-A.
 Alpha  occ. eigenvalues --  -14.24798 -14.19565 -14.17890 -10.11551 -10.10410
 Alpha  occ. eigenvalues --  -10.09336 -10.09279 -10.07865 -10.07376 -10.07231
 Alpha  occ. eigenvalues --  -10.07102 -10.06947 -10.06335 -10.06046 -10.05951
 Alpha  occ. eigenvalues --   -0.90239  -0.81392  -0.76210  -0.70506  -0.69033
 Alpha  occ. eigenvalues --   -0.67201  -0.64805  -0.58551  -0.58435  -0.54293
 Alpha  occ. eigenvalues --   -0.53232  -0.50884  -0.48689  -0.45852  -0.43905
 Alpha  occ. eigenvalues --   -0.42175  -0.39162  -0.36973  -0.36296  -0.34692
 Alpha  occ. eigenvalues --   -0.33792  -0.33667  -0.32647  -0.31510  -0.31027
 Alpha  occ. eigenvalues --   -0.30890  -0.30579  -0.29397  -0.28894  -0.28363
 Alpha  occ. eigenvalues --   -0.27943  -0.25256  -0.24565  -0.24545  -0.23692
 Alpha  occ. eigenvalues --   -0.23375  -0.22484  -0.21916  -0.16757  -0.16278
 Alpha  occ. eigenvalues --   -0.12904  -0.10861   0.04205
 Alpha virt. eigenvalues --    0.06424   0.06955   0.07880   0.08013   0.08736
 Alpha virt. eigenvalues --    0.08941   0.09709   0.10144   0.10317   0.10973
 Alpha virt. eigenvalues --    0.11308   0.11455   0.11832   0.12337   0.12851

  Beta  occ. eigenvalues --  -14.24737 -14.19544 -14.17887 -10.11550 -10.10392
  Beta  occ. eigenvalues --  -10.09336 -10.09260 -10.07858 -10.07374 -10.07224
  Beta  occ. eigenvalues --  -10.07098 -10.06896 -10.06334 -10.06041 -10.05945
  Beta  occ. eigenvalues --   -0.90204  -0.81361  -0.76152  -0.70490  -0.69013
  Beta  occ. eigenvalues --   -0.67175  -0.64759  -0.58538  -0.58389  -0.54253
  Beta  occ. eigenvalues --   -0.53205  -0.50809  -0.48628  -0.45812  -0.43872
  Beta  occ. eigenvalues --   -0.42124  -0.39106  -0.36937  -0.36259  -0.34672
  Beta  occ. eigenvalues --   -0.33761  -0.33648  -0.32614  -0.31483  -0.30998
  Beta  occ. eigenvalues --   -0.30867  -0.30549  -0.29352  -0.28883  -0.28329
  Beta  occ. eigenvalues --   -0.27913  -0.25227  -0.24553  -0.24528  -0.23675
  Beta  occ. eigenvalues --   -0.23356  -0.22465  -0.21893  -0.16728  -0.16271
  Beta  occ. eigenvalues --   -0.12855  -0.10848
  Beta virt. eigenvalues --    0.06442   0.06773   0.07763   0.08093   0.08545
  Beta virt. eigenvalues --    0.08915   0.09057   0.10309   0.10467   0.10686
  Beta virt. eigenvalues --    0.11181   0.11500   0.11654   0.11859   0.12344

 Mulliken charges and spin densities:
               1          2
     1  C    1.944854  -2.489307
     2  C   -0.594373   0.843809
     3  C    0.498334  -0.630994
     4  N    0.124700   0.003063
     5  C    0.410721  -0.746316
     6  N   -0.409333   0.341941
     7  C   -0.058409  -0.253862
     8  C   -0.362499   0.034679
     9  C    0.034083  -0.409326
    10  C   -0.449269   0.084455
    11  C    0.494046  -0.720283
    12  N   -0.187358   0.235493
    13  C   -0.634439   0.839895
    14  C   -0.341053  -0.300054
    15  C   -0.335161  -0.303189
    16  H   -0.415064   0.583964
    17  H   -0.383515   0.549296
    18  H   -0.212457   0.338132
    19  H   -0.624585   0.962286
    20  H   -0.183214   0.324611
    21  H    0.114862   0.034193
    22  H    0.176060  -0.003650
    23  H    0.054163   0.100906
    24  H    0.047652   0.077157
    25  H    0.180412  -0.061251
    26  H   -0.046627   0.193987
    27  H   -0.095138   0.246859
    28  H   -0.252595   0.370263
    29  H   -0.053724   0.332400
    30  H    0.000775   0.155867
    31  H    0.135850   0.026925
    32  H    0.043055   0.085276
    33  H    0.074254   0.045668
    34  H    0.086311   0.034159
    35  H    0.060554   0.066191
    36  H    0.158128   0.006758
 Sum of Mulliken charges =  -1.00000   1.00000

 Dipole moment (field-independent basis, Debye):
    X=              0.5528    Y=             -7.5808    Z=              0.3342  Tot=              7.6083
 Quadrupole moment (field-independent basis, Debye-Ang):
   XX=           -153.5831   YY=           -151.4488   ZZ=           -123.2164
   XY=              0.7718   XZ=             -1.6265   YZ=              3.7474

 Summary of Natural Population Analysis:

                                       Natural Population
                Natural  -----------------------------------------------
    Atom  No    Charge         Core      Valence    Rydberg      Total
 -----------------------------------------------------------------------
      C    1   -0.29830      0.99964     2.29286    0.00579     3.29830
      C    2    0.05847      0.99946     1.93011    0.01197     2.94153
      C    3    0.04965      0.99945     1.93395    0.01695     2.95035
      N    4   -0.26279      0.99967     2.75509    0.00804     3.76279
      C    5    0.19204      0.99960     1.79033    0.01803     2.80796
      N    6   -0.27050      0.99962     2.75986    0.01102     3.77050
      C    7   -0.03089      0.99955     2.01689    0.01445     3.03089
      C    8   -0.18872      0.99961     2.18026    0.00885     3.18872
      C    9   -0.19104      0.99963     2.18362    0.00780     3.19104
      C   10   -0.19393      0.99963     2.18580    0.00851     3.19393
      C   11   -0.08757      0.99963     2.07609    0.01186     3.08757
      N   12   -0.33625      0.99972     2.82551    0.01101     3.83625
      C   13   -0.12257      0.99958     2.11278    0.01021     3.12257
      C   14   -0.28012      0.99965     2.27575    0.00471     3.28012
      C   15   -0.28017      0.99965     2.27579    0.00473     3.28017
      H   16    0.10707      0.00000     0.39119    0.00174     0.39293
      H   17    0.10642      0.00000     0.39186    0.00172     0.39358
      H   18    0.10581      0.00000     0.39282    0.00137     0.39419
      H   19    0.21221      0.00000     0.26898    0.01881     0.28779
      H   20    0.08548      0.00000     0.41133    0.00319     0.41452
      H   21    0.10109      0.00000     0.39813    0.00078     0.39891
      H   22    0.10719      0.00000     0.39142    0.00139     0.39281
      H   23    0.09563      0.00000     0.40359    0.00078     0.40437
      H   24    0.09346      0.00000     0.40527    0.00127     0.40654
      H   25    0.09581      0.00000     0.40298    0.00120     0.40419
      H   26    0.09571      0.00000     0.40345    0.00084     0.40429
      H   27    0.09443      0.00000     0.40467    0.00090     0.40557
      H   28    0.07855      0.00000     0.41951    0.00193     0.42145
      H   29    0.17976      0.00000     0.31719    0.00305     0.32024
      H   30    0.09619      0.00000     0.40192    0.00189     0.40381
      H   31    0.10352      0.00000     0.39554    0.00094     0.39648
      H   32    0.09086      0.00000     0.40829    0.00084     0.40914
      H   33    0.09916      0.00000     0.39992    0.00092     0.40084
      H   34    0.09982      0.00000     0.39927    0.00092     0.40018
      H   35    0.09054      0.00000     0.40862    0.00084     0.40946
      H   36    0.10399      0.00000     0.39506    0.00095     0.39601
 =======================================================================
   * Total *   -0.00000     14.99409    41.80568    0.20022    57.00000

 Normal termination of Gaussian 16 at Thu Dec 10 15:30:30 2020.
