 Gaussian 16, Revision A.03,

 -----------------------------------------------------------
 # opt freq B3LYP/6-31G(d) empiricaldispersion=gd3bj scf=xqc
 -----------------------------------------------------------

 ------------------------------
 CID_79903534_JID_3814_neutraal
 ------------------------------
 Symbolic Z-matrix:
 Charge =  0 Multiplicity = 1

 SCF Done:  E(RB3LYP) =  -597.680378061     A.U. after   13 cycles
 SCF Done:  E(RB3LYP) =  -597.684640015     A.U. after   11 cycles
 SCF Done:  E(RB3LYP) =  -597.682448750     A.U. after   12 cycles
 SCF Done:  E(RB3LYP) =  -597.685197556     A.U. after   10 cycles
 SCF Done:  E(RB3LYP) =  -597.685418404     A.U. after   10 cycles
 SCF Done:  E(RB3LYP) =  -597.685469612     A.U. after   10 cycles
 SCF Done:  E(RB3LYP) =  -597.685486529     A.U. after   10 cycles
 SCF Done:  E(RB3LYP) =  -597.685494706     A.U. after    9 cycles
 SCF Done:  E(RB3LYP) =  -597.685496180     A.U. after    7 cycles
 SCF Done:  E(RB3LYP) =  -597.685496746     A.U. after    7 cycles
 SCF Done:  E(RB3LYP) =  -597.685507705     A.U. after    8 cycles
 SCF Done:  E(RB3LYP) =  -597.685512465     A.U. after    9 cycles
 SCF Done:  E(RB3LYP) =  -597.685513238     A.U. after    6 cycles
 SCF Done:  E(RB3LYP) =  -597.685513321     A.U. after    8 cycles
 SCF Done:  E(RB3LYP) =  -597.685513693     A.U. after    8 cycles
 SCF Done:  E(RB3LYP) =  -597.685513702     A.U. after    6 cycles
 Optimization completed.
    -- Stationary point found.
 Normal termination of Gaussian 16 at Sun Dec 13 12:31:33 2020.

 --------------------------------------------------------------------
 #N Geom=AllCheck Guess=TCheck SCRF=Check GenChk RB3LYP/6-31G(d) Freq
 --------------------------------------------------------------------

 Structure from the checkpoint file:  "JID_3814.chk"
 ------------------------------
 CID_79903534_JID_3814_neutraal
 ------------------------------
 Charge =  0 Multiplicity = 1

 SCF Done:  E(RB3LYP) =  -597.685513702     A.U. after    1 cycles

  Exact polarizability: 123.203  -3.090 115.546  -1.363  -1.494 101.840
 Approx polarizability: 155.138  -0.386 161.149  -1.316  -1.108 153.396

                      1                      2                      3
                      A                      A                      A
 Frequencies --     34.0236                62.4210                99.6796
 Red. masses --      1.7265                 3.0458                 2.9257
 Frc consts  --      0.0012                 0.0070                 0.0171
 IR Inten    --      0.0424                 0.7190                 0.4383

                      4                      5                      6
                      A                      A                      A
 Frequencies --    121.4327               125.0052               155.1472
 Red. masses --      3.4103                 2.5019                 2.4974
 Frc consts  --      0.0296                 0.0230                 0.0354
 IR Inten    --      1.2567                 2.6358                 0.5644

                      7                      8                      9
                      A                      A                      A
 Frequencies --    182.9923               222.8143               266.2711
 Red. masses --      2.2500                 1.8203                 2.5103
 Frc consts  --      0.0444                 0.0532                 0.1049
 IR Inten    --      1.3058                 4.5966                 3.2449

                     10                     11                     12
                      A                      A                      A
 Frequencies --    312.9309               332.7731               375.2063
 Red. masses --      2.2830                 2.6980                 3.2021
 Frc consts  --      0.1317                 0.1760                 0.2656
 IR Inten    --      3.2025                 0.5365                 4.6737

                     13                     14                     15
                      A                      A                      A
 Frequencies --    393.3971               405.4093               466.3310
 Red. masses --      1.9610                 3.7734                 2.7414
 Frc consts  --      0.1788                 0.3654                 0.3512
 IR Inten    --      1.9231                 2.8136                 2.8723

                     16                     17                     18
                      A                      A                      A
 Frequencies --    492.7558               521.3644               602.0141
 Red. masses --      2.6617                 2.2578                 3.1758
 Frc consts  --      0.3808                 0.3616                 0.6781
 IR Inten    --     16.2082                 2.5869                 2.1744

                     19                     20                     21
                      A                      A                      A
 Frequencies --    656.9621               716.7728               761.2759
 Red. masses --      2.6318                 1.9852                 2.6983
 Frc consts  --      0.6692                 0.6009                 0.9214
 IR Inten    --      0.3913                 0.2257                 0.8756

                     22                     23                     24
                      A                      A                      A
 Frequencies --    790.4474               800.0396               823.6445
 Red. masses --      3.3210                 1.7001                 1.9748
 Frc consts  --      1.2226                 0.6411                 0.7893
 IR Inten    --      5.6501                 0.8620                10.7100

                     25                     26                     27
                      A                      A                      A
 Frequencies --    868.8546               884.8489               888.8653
 Red. masses --      2.1769                 3.0616                 2.9507
 Frc consts  --      0.9682                 1.4123                 1.3735
 IR Inten    --      1.5211                 6.0503                 5.9707

                     28                     29                     30
                      A                      A                      A
 Frequencies --    906.5589               945.9419               952.0489
 Red. masses --      2.6057                 2.1478                 2.1488
 Frc consts  --      1.2617                 1.1323                 1.1475
 IR Inten    --      1.7531                20.4850                 5.5975

                     31                     32                     33
                      A                      A                      A
 Frequencies --    979.9876              1010.1246              1029.3574
 Red. masses --      2.1266                 2.2810                 1.7865
 Frc consts  --      1.2033                 1.3713                 1.1153
 IR Inten    --      2.8458                16.1095                58.9587

                     34                     35                     36
                      A                      A                      A
 Frequencies --   1045.9508              1059.8163              1074.2233
 Red. masses --      1.6372                 2.1253                 1.8968
 Frc consts  --      1.0553                 1.4065                 1.2896
 IR Inten    --      6.9136                13.8296                38.9405

                     37                     38                     39
                      A                      A                      A
 Frequencies --   1077.6245              1107.0585              1113.1616
 Red. masses --      1.9471                 2.8041                 3.5700
 Frc consts  --      1.3322                 2.0248                 2.6064
 IR Inten    --     21.5331                35.1140                66.6525

                     40                     41                     42
                      A                      A                      A
 Frequencies --   1130.3575              1170.5995              1182.9578
 Red. masses --      2.2026                 1.4788                 2.5936
 Frc consts  --      1.6581                 1.1939                 2.1384
 IR Inten    --      2.5762                11.6259                13.6368

                     43                     44                     45
                      A                      A                      A
 Frequencies --   1192.7665              1220.5583              1227.0185
 Red. masses --      1.2673                 1.5193                 1.5677
 Frc consts  --      1.0623                 1.3335                 1.3906
 IR Inten    --      5.0441                 2.9860                 2.3603

                     46                     47                     48
                      A                      A                      A
 Frequencies --   1240.9104              1247.0855              1267.3162
 Red. masses --      1.4938                 1.5703                 1.3447
 Frc consts  --      1.3553                 1.4389                 1.2725
 IR Inten    --      7.4822                 6.3075                 8.9575

                     49                     50                     51
                      A                      A                      A
 Frequencies --   1284.4089              1292.1788              1322.1626
 Red. masses --      1.3966                 1.3421                 1.3074
 Frc consts  --      1.3575                 1.3203                 1.3465
 IR Inten    --     18.2224                17.5750                 3.0776

                     52                     53                     54
                      A                      A                      A
 Frequencies --   1339.9341              1343.7929              1354.2604
 Red. masses --      1.3539                 1.2921                 1.3341
 Frc consts  --      1.4322                 1.3747                 1.4416
 IR Inten    --      4.4647                 6.0059                 1.4326

                     55                     56                     57
                      A                      A                      A
 Frequencies --   1362.1509              1384.2623              1393.0968
 Red. masses --      1.3882                 1.5514                 1.4660
 Frc consts  --      1.5175                 1.7515                 1.6763
 IR Inten    --      1.7597                 4.4522                 5.5687

                     58                     59                     60
                      A                      A                      A
 Frequencies --   1402.3464              1413.3224              1434.2864
 Red. masses --      1.5859                 1.3332                 1.3194
 Frc consts  --      1.8375                 1.5690                 1.5991
 IR Inten    --      8.1218                 7.8262                 7.5637

                     61                     62                     63
                      A                      A                      A
 Frequencies --   1480.5688              1492.5328              1497.2534
 Red. masses --      1.1365                 1.0990                 1.0908
 Frc consts  --      1.4678                 1.4424                 1.4407
 IR Inten    --      2.8902                 3.5463                 3.8081

                     64                     65                     66
                      A                      A                      A
 Frequencies --   1501.6499              1506.3450              1514.9665
 Red. masses --      1.0866                 1.0809                 1.1289
 Frc consts  --      1.4437                 1.4450                 1.5265
 IR Inten    --      4.2620                 2.7062                 3.4125

                     67                     68                     69
                      A                      A                      A
 Frequencies --   1517.8521              1522.4586              1536.4575
 Red. masses --      1.0832                 1.0889                 1.0643
 Frc consts  --      1.4704                 1.4871                 1.4803
 IR Inten    --      2.9229                 3.5386                 5.2886

                     70                     71                     72
                      A                      A                      A
 Frequencies --   1541.5535              1549.7681              3022.9659
 Red. masses --      1.0911                 1.0946                 1.0770
 Frc consts  --      1.5276                 1.5489                 5.7987
 IR Inten    --      2.3187                 5.4380                10.5826

                     73                     74                     75
                      A                      A                      A
 Frequencies --   3024.1869              3038.9937              3046.4789
 Red. masses --      1.0376                 1.0617                 1.0726
 Frc consts  --      5.5912                 5.7770                 5.8653
 IR Inten    --     71.3690                25.3519                19.1095

                     76                     77                     78
                      A                      A                      A
 Frequencies --   3048.2788              3056.1725              3062.0776
 Red. masses --      1.0676                 1.0670                 1.0631
 Frc consts  --      5.8450                 5.8719                 5.8730
 IR Inten    --     28.5841                67.2839                17.2814

                     79                     80                     81
                      A                      A                      A
 Frequencies --   3066.6560              3077.7342              3081.9632
 Red. masses --      1.0604                 1.0631                 1.0984
 Frc consts  --      5.8757                 5.9330                 6.1470
 IR Inten    --     38.9871                54.7558                43.2034

                     82                     83                     84
                      A                      A                      A
 Frequencies --   3090.1782              3097.4254              3100.6342
 Red. masses --      1.1008                 1.1024                 1.0987
 Frc consts  --      6.1934                 6.2312                 6.2234
 IR Inten    --     51.0461                 3.6052                19.4550

                     85                     86                     87
                      A                      A                      A
 Frequencies --   3108.9163              3111.4260              3125.3021
 Red. masses --      1.1087                 1.1021                 1.1042
 Frc consts  --      6.3137                 6.2860                 6.3547
 IR Inten    --     44.3483                 8.2071                73.8924

                     88                     89                     90
                      A                      A                      A
 Frequencies --   3134.9919              3168.1660              3402.5384
 Red. masses --      1.1035                 1.0901                 1.0755
 Frc consts  --      6.3902                 6.4469                 7.3364
 IR Inten    --     25.1216                16.1874                 8.2210

 - Thermochemistry -
 -------------------
 Temperature   298.150 Kelvin.  Pressure   1.00000 Atm.
 Atom     1 has atomic number  6 and mass  12.00000

 Molecular mass:   185.14158 amu.
 Principal axes and moments of inertia in atomic units:
                           1         2         3
     Eigenvalues --  1468.382362868.932073413.26263
           X            0.99996  -0.00871  -0.00373
           Y            0.00868   0.99993  -0.00860
           Z            0.00380   0.00857   0.99996
 This molecule is an asymmetric top.
 Rotational symmetry number  1.
 Warning -- assumption of classical behavior for rotation
           may cause significant error
 Rotational temperatures (Kelvin)      0.05899     0.03019     0.02538
 Rotational constants (GHZ):           1.22907     0.62906     0.52874
 Zero-point vibrational energy     762008.1 (Joules/Mol)
                                  182.12430 (Kcal/Mol)
 Warning -- explicit consideration of  18 degrees of freedom as
           vibrations may cause significant error
 Vibrational temperatures:     48.95    89.81   143.42   174.71   179.85
          (Kelvin)            223.22   263.29   320.58   383.10   450.24
                              478.79   539.84   566.01   583.29   670.95
                              708.97   750.13   866.16   945.22  1031.28
                             1095.31  1137.28  1151.08  1185.04  1250.09
                             1273.10  1278.88  1304.34  1361.00  1369.79
                             1409.98  1453.34  1481.02  1504.89  1524.84
                             1545.57  1550.46  1592.81  1601.59  1626.33
                             1684.23  1702.01  1716.12  1756.11  1765.41
                             1785.39  1794.28  1823.39  1847.98  1859.16
                             1902.30  1927.87  1933.42  1948.48  1959.83
                             1991.64  2004.36  2017.66  2033.46  2063.62
                             2130.21  2147.42  2154.21  2160.54  2167.29
                             2179.70  2183.85  2190.48  2210.62  2217.95
                             2229.77  4349.37  4351.13  4372.43  4383.20
                             4385.79  4397.15  4405.65  4412.23  4428.17
                             4434.26  4446.08  4456.50  4461.12  4473.04
                             4476.65  4496.61  4510.55  4558.28  4895.49

 Zero-point correction=                           0.290234 (Hartree/Particle)
 Thermal correction to Energy=                    0.303112
 Thermal correction to Enthalpy=                  0.304056
 Thermal correction to Gibbs Free Energy=         0.250659
 Sum of electronic and zero-point Energies=           -597.395280
 Sum of electronic and thermal Energies=              -597.382402
 Sum of electronic and thermal Enthalpies=            -597.381458
 Sum of electronic and thermal Free Energies=         -597.434854

                     E (Thermal)             CV                S
                      KCal/Mol        Cal/Mol-Kelvin    Cal/Mol-Kelvin
 Total                  190.206             49.838            112.383
 Electronic               0.000              0.000              0.000
 Translational            0.889              2.981             41.554
 Rotational               0.889              2.981             31.042
 Vibrational            188.428             43.876             39.787
 Vibration     1          0.594              1.983              5.580
 Vibration     2          0.597              1.972              4.379
 Vibration     3          0.604              1.949              3.461
 Vibration     4          0.609              1.931              3.077
 Vibration     5          0.610              1.928              3.021
 Vibration     6          0.620              1.897              2.608
 Vibration     7          0.630              1.863              2.298
 Vibration     8          0.648              1.806              1.936
 Vibration     9          0.672              1.735              1.620
 Vibration    10          0.701              1.649              1.347
 Vibration    11          0.715              1.610              1.247
 Vibration    12          0.746              1.523              1.058
 Vibration    13          0.761              1.484              0.987
 Vibration    14          0.770              1.458              0.943
 Vibration    15          0.824              1.325              0.748
 Vibration    16          0.848              1.266              0.676
 Vibration    17          0.876              1.203              0.607
 Vibration    18          0.960              1.028              0.446

 Optimization completed.
    -- Stationary point found.
 Normal termination of Gaussian 16 at Sun Dec 13 12:41:23 2020.

 ----------------------------------------------------------------------
 # B3LYP/6-311++G(d,p) empiricaldispersion=gd3bj scf=xqc pop=npa geom=c
 heck
 ----------------------------------------------------------------------

 --------------------------------------
 CID_79903534_JID_3814_Energie_neutraal
 --------------------------------------
 Structure from the checkpoint file:  "JID_3814.chk"
 Charge =  0 Multiplicity = 1

 SCF Done:  E(RB3LYP) =  -597.856686525     A.U. after   14 cycles
 Normal termination of Gaussian 16 at Sun Dec 13 12:45:48 2020.

 ----------------------------------------------------------------------
 # B3LYP/6-311++G(d,p) empiricaldispersion=gd3bj scf=xqc pop=npa geom=c
 heck
 ----------------------------------------------------------------------

 ------------------------------------
 CID_79903534_JID_3814_Energie_kation
 ------------------------------------
 Structure from the checkpoint file:  "JID_3814.chk"
 Charge =  1 Multiplicity = 2

 SCF Done:  E(UB3LYP) =  -597.544017118     A.U. after   25 cycles
 Normal termination of Gaussian 16 at Sun Dec 13 12:56:51 2020.
 Gaussian 16:  ES64L-G16RevA.03 25-Dec-2016

 ----------------------------------------------------------------------
 # B3LYP/6-311++G(d,p) empiricaldispersion=gd3bj scf=xqc pop=npa geom=c
 heck
 ----------------------------------------------------------------------

 -----------------------------------
 CID_79903534_JID_3814_Energie_anion
 -----------------------------------
 Structure from the checkpoint file:  "JID_3814.chk"
 Charge = -1 Multiplicity = 2

                         Standard orientation:
 ---------------------------------------------------------------------
 Center     Atomic      Atomic             Coordinates (Angstroms)
 Number     Number       Type             X           Y           Z
 ---------------------------------------------------------------------
      1          6           0        2.347011    2.275197   -0.059869
      2          8           0        2.152426    0.929428   -0.461160
      3          7           0        2.489042    0.076254    0.654972
      4          6           0        1.548921   -1.053798    0.730569
      5          6           0        1.352248   -1.870255   -0.564170
      6          6           0        0.252732   -1.297988   -1.457767
      7          8           0       -0.972974   -1.187607   -0.744606
      8          6           0       -0.931977   -0.272531    0.368213
      9          6           0        0.187859   -0.670907    1.344743
     10          6           0       -2.318707   -0.391398    1.020863
     11          6           0       -3.277047    0.426326    0.125842
     12          6           0       -2.363120    1.366832   -0.710924
     13          6           0       -0.947086    1.183601   -0.135863
     14          1           0        2.046502    2.887027   -0.915834
     15          1           0        3.401238    2.475426    0.177427
     16          1           0        1.731897    2.526074    0.812002
     17          1           0        3.391296   -0.316404    0.370645
     18          1           0        2.056478   -1.698959    1.461393
     19          1           0        2.297744   -1.937980   -1.117958
     20          1           0        1.063412   -2.891267   -0.283547
     21          1           0        0.561678   -0.330888   -1.869862
     22          1           0        0.044128   -1.975116   -2.292308
     23          1           0       -0.171270   -1.555827    1.885730
     24          1           0        0.340792    0.119319    2.087430
     25          1           0       -2.603755   -1.443222    1.118905
     26          1           0       -2.266907    0.036604    2.029657
     27          1           0       -3.998550    0.987916    0.728236
     28          1           0       -3.852475   -0.233471   -0.529500
     29          1           0       -2.688776    2.411561   -0.676125
     30          1           0       -2.373678    1.059496   -1.760965
     31          1           0       -0.786026    1.848295    0.723010
     32          1           0       -0.157646    1.392593   -0.856832
 ---------------------------------------------------------------------

 SCF Done:  E(UB3LYP) =  -597.841605485     A.U. after   29 cycles

 The electronic state is 2-A.
 Alpha  occ. eigenvalues --  -19.04261 -19.01244 -14.24119 -10.11729 -10.10460
 Alpha  occ. eigenvalues --  -10.10350 -10.09693 -10.06299 -10.06038 -10.05962
 Alpha  occ. eigenvalues --  -10.05947 -10.05924 -10.05344  -0.96038  -0.92685
 Alpha  occ. eigenvalues --   -0.75689  -0.73020  -0.65985  -0.64715  -0.60846
 Alpha  occ. eigenvalues --   -0.57465  -0.55574  -0.53057  -0.48289  -0.46650
 Alpha  occ. eigenvalues --   -0.43087  -0.41105  -0.39030  -0.38085  -0.37444
 Alpha  occ. eigenvalues --   -0.35441  -0.34804  -0.34091  -0.33365  -0.32708
 Alpha  occ. eigenvalues --   -0.31291  -0.28763  -0.28122  -0.27244  -0.26456
 Alpha  occ. eigenvalues --   -0.25265  -0.24647  -0.23877  -0.23562  -0.23149
 Alpha  occ. eigenvalues --   -0.21931  -0.21648  -0.19057  -0.16952  -0.14810
 Alpha  occ. eigenvalues --   -0.13469   0.04601
 Alpha virt. eigenvalues --    0.06734   0.07371   0.07985   0.08970   0.09173
 Alpha virt. eigenvalues --    0.09440   0.10274   0.10404   0.11364   0.11478
 Alpha virt. eigenvalues --    0.12355   0.12726   0.12845   0.13380   0.13739

  Beta  occ. eigenvalues --  -19.04254 -19.01238 -14.24088 -10.11731 -10.10428
  Beta  occ. eigenvalues --  -10.10343 -10.09676 -10.06292 -10.06028 -10.05936
  Beta  occ. eigenvalues --  -10.05936 -10.05908 -10.05330  -0.96021  -0.92673
  Beta  occ. eigenvalues --   -0.75641  -0.73003  -0.65936  -0.64691  -0.60819
  Beta  occ. eigenvalues --   -0.57419  -0.55514  -0.53011  -0.48243  -0.46620
  Beta  occ. eigenvalues --   -0.43044  -0.41038  -0.38998  -0.38058  -0.37408
  Beta  occ. eigenvalues --   -0.35400  -0.34781  -0.34058  -0.33327  -0.32674
  Beta  occ. eigenvalues --   -0.31261  -0.28735  -0.28085  -0.27209  -0.26428
  Beta  occ. eigenvalues --   -0.25233  -0.24617  -0.23850  -0.23541  -0.23118
  Beta  occ. eigenvalues --   -0.21906  -0.21628  -0.19036  -0.16922  -0.14790
  Beta  occ. eigenvalues --   -0.13433
  Beta virt. eigenvalues --    0.06798   0.07760   0.07966   0.08290   0.09487
  Beta virt. eigenvalues --    0.09658   0.09897   0.10543   0.10687   0.11821
  Beta virt. eigenvalues --    0.11943   0.12763   0.13037   0.13083   0.13554

 Mulliken charges and spin densities:
               1          2
     1  C    0.847922  -1.087252
     2  O   -0.086313   0.100068
     3  N    0.027458  -0.383475
     4  C   -1.265299   1.610124
     5  C    2.141025  -2.858478
     6  C   -0.635054   0.543535
     7  O   -0.026074   0.034696
     8  C   -1.793459   2.023854
     9  C    1.708109  -2.333725
    10  C    1.054392  -1.556934
    11  C   -0.508293   0.220916
    12  C    0.067864  -0.642569
    13  C   -0.449606   0.171533
    14  H   -0.215279   0.351464
    15  H   -0.439867   0.574220
    16  H   -0.227772   0.359929
    17  H   -0.050855   0.330900
    18  H   -1.239294   1.488724
    19  H   -0.455639   0.618837
    20  H    0.111922   0.032353
    21  H    0.181123  -0.027370
    22  H   -0.049611   0.226675
    23  H   -0.046718   0.208042
    24  H    0.141406   0.060591
    25  H    0.078180   0.079966
    26  H   -0.140128   0.298019
    27  H   -0.023145   0.146701
    28  H    0.139721   0.009120
    29  H   -0.218699   0.375595
    30  H    0.074239   0.071877
    31  H   -0.157663   0.330176
    32  H    0.455408  -0.378109
 Sum of Mulliken charges =  -1.00000   1.00000

 Dipole moment (field-independent basis, Debye):
    X=             -4.9833    Y=              0.3631    Z=             -2.5099  Tot=              5.5915
 Quadrupole moment (field-independent basis, Debye-Ang):
   XX=           -143.4714   YY=           -129.8122   ZZ=           -114.5345
   XY=              5.8717   XZ=             -3.0542   YZ=              1.5416

 Summary of Natural Population Analysis:

                                       Natural Population
                Natural  -----------------------------------------------
    Atom  No    Charge         Core      Valence    Rydberg      Total
 -----------------------------------------------------------------------
      C    1   -0.09445      0.99962     2.08447    0.01036     3.09445
      O    2   -0.24460      0.99991     3.23270    0.01200     4.24460
      N    3   -0.17496      0.99971     2.66165    0.01360     3.67496
      C    4   -0.01581      0.99957     1.99965    0.01659     3.01581
      C    5   -0.20975      0.99960     2.20081    0.00933     3.20975
      C    6   -0.01083      0.99956     1.99907    0.01220     3.01083
      O    7   -0.31598      0.99987     3.30661    0.00949     4.31598
      C    8    0.14328      0.99949     1.84003    0.01721     2.85672
      C    9   -0.20604      0.99954     2.19436    0.01214     3.20604
      C   10   -0.19379      0.99957     2.18460    0.00962     3.19379
      C   11   -0.19142      0.99965     2.18498    0.00679     3.19142
      C   12   -0.19224      0.99964     2.18438    0.00822     3.19224
      C   13   -0.20796      0.99956     2.19880    0.00959     3.20796
      H   14    0.08672      0.00000     0.41198    0.00130     0.41328
      H   15    0.08198      0.00000     0.41658    0.00143     0.41802
      H   16    0.08429      0.00000     0.41399    0.00172     0.41571
      H   17    0.17050      0.00000     0.32462    0.00488     0.32950
      H   18    0.10496      0.00000     0.39171    0.00333     0.39504
      H   19    0.10370      0.00000     0.39470    0.00161     0.39630
      H   20    0.10124      0.00000     0.39732    0.00144     0.39876
      H   21    0.08590      0.00000     0.41214    0.00196     0.41410
      H   22    0.08627      0.00000     0.41270    0.00103     0.41373
      H   23    0.10335      0.00000     0.39525    0.00141     0.39665
      H   24    0.10875      0.00000     0.38943    0.00182     0.39125
      H   25    0.10440      0.00000     0.39444    0.00116     0.39560
      H   26    0.09873      0.00000     0.40007    0.00120     0.40127
      H   27    0.09487      0.00000     0.40405    0.00108     0.40513
      H   28    0.09681      0.00000     0.40209    0.00110     0.40319
      H   29    0.09692      0.00000     0.40207    0.00101     0.40308
      H   30    0.09636      0.00000     0.40238    0.00126     0.40364
      H   31    0.09910      0.00000     0.39930    0.00160     0.40090
      H   32    0.10970      0.00000     0.38850    0.00180     0.39030
 =======================================================================
   * Total *   -0.00000     12.99531    37.82542    0.17927    51.00000

 Normal termination of Gaussian 16 at Sun Dec 13 13:09:31 2020.
