 Gaussian 16, Revision A.03,

 -----------------------------------------------------------
 # opt freq B3LYP/6-31G(d) empiricaldispersion=gd3bj scf=xqc
 -----------------------------------------------------------

 ------------------------------
 CID_62998245_JID_5317_neutraal
 ------------------------------
 Symbolic Z-matrix:
 Charge =  0 Multiplicity = 1

 SCF Done:  E(RB3LYP) =  -651.666193171     A.U. after   14 cycles
 SCF Done:  E(RB3LYP) =  -651.665369310     A.U. after   14 cycles
 SCF Done:  E(RB3LYP) =  -651.669001968     A.U. after   12 cycles
 SCF Done:  E(RB3LYP) =  -651.669856485     A.U. after   12 cycles
 SCF Done:  E(RB3LYP) =  -651.669060401     A.U. after   12 cycles
 SCF Done:  E(RB3LYP) =  -651.670939881     A.U. after   12 cycles
 SCF Done:  E(RB3LYP) =  -651.672126583     A.U. after   12 cycles
 SCF Done:  E(RB3LYP) =  -651.672464661     A.U. after   11 cycles
 SCF Done:  E(RB3LYP) =  -651.672766337     A.U. after   11 cycles
 SCF Done:  E(RB3LYP) =  -651.673151242     A.U. after   12 cycles
 SCF Done:  E(RB3LYP) =  -651.674553674     A.U. after   10 cycles
 SCF Done:  E(RB3LYP) =  -651.674557783     A.U. after    8 cycles
 SCF Done:  E(RB3LYP) =  -651.674558701     A.U. after    8 cycles
 SCF Done:  E(RB3LYP) =  -651.674559178     A.U. after    7 cycles
 SCF Done:  E(RB3LYP) =  -651.674559245     A.U. after    7 cycles
 Optimization completed.
    -- Stationary point found.
 Normal termination of Gaussian 16 at Thu Dec 10 15:39:15 2020.

 --------------------------------------------------------------------
 #N Geom=AllCheck Guess=TCheck SCRF=Check GenChk RB3LYP/6-31G(d) Freq
 --------------------------------------------------------------------

 Structure from the checkpoint file:  "JID_5317.chk"
 ------------------------------
 CID_62998245_JID_5317_neutraal
 ------------------------------
 Charge =  0 Multiplicity = 1

 SCF Done:  E(RB3LYP) =  -651.674559245     A.U. after    1 cycles

  Exact polarizability: 171.365  10.431 161.257 -14.391   0.421  81.745
 Approx polarizability: 252.542  20.269 258.724 -34.086   0.441 127.450

                      1                      2                      3
                      A                      A                      A
 Frequencies --     39.9668                64.2975                77.1054
 Red. masses --      4.1325                 3.1133                 2.9670
 Frc consts  --      0.0039                 0.0076                 0.0104
 IR Inten    --      0.8523                 0.7644                 1.0960

                      4                      5                      6
                      A                      A                      A
 Frequencies --     91.1644               125.2886               180.0307
 Red. masses --      3.0807                 3.4739                 4.2365
 Frc consts  --      0.0151                 0.0321                 0.0809
 IR Inten    --      2.0420                 2.3923                 0.0580

                      7                      8                      9
                      A                      A                      A
 Frequencies --    212.8501               225.2129               235.2314
 Red. masses --      1.7491                 2.4146                 3.4030
 Frc consts  --      0.0467                 0.0722                 0.1109
 IR Inten    --      1.4437                 2.0744                 1.4119

                     10                     11                     12
                      A                      A                      A
 Frequencies --    266.3469               272.5535               283.7171
 Red. masses --      2.1766                 2.9452                 2.8725
 Frc consts  --      0.0910                 0.1289                 0.1362
 IR Inten    --      8.0820                 1.7482                 3.7613

                     13                     14                     15
                      A                      A                      A
 Frequencies --    338.6395               410.0494               456.3329
 Red. masses --      2.7059                 3.6586                 3.9919
 Frc consts  --      0.1828                 0.3624                 0.4898
 IR Inten    --      6.7371                 3.5852                 1.3680

                     16                     17                     18
                      A                      A                      A
 Frequencies --    494.9748               549.8729               565.8869
 Red. masses --      3.7548                 3.3857                 2.3624
 Frc consts  --      0.5420                 0.6032                 0.4457
 IR Inten    --      6.8070                 1.4164                52.0728

                     19                     20                     21
                      A                      A                      A
 Frequencies --    591.6684               596.0419               627.3626
 Red. masses --      3.5151                 3.7144                 3.7495
 Frc consts  --      0.7250                 0.7775                 0.8695
 IR Inten    --      4.9165                10.7596                13.8305

                     22                     23                     24
                      A                      A                      A
 Frequencies --    643.4771               690.9103               730.1304
 Red. masses --      1.8406                 3.6191                 1.3901
 Frc consts  --      0.4490                 1.0179                 0.4366
 IR Inten    --     22.1823                 5.6462                48.7628

                     25                     26                     27
                      A                      A                      A
 Frequencies --    763.4787               775.3103               803.1098
 Red. masses --      1.5540                 1.3974                 2.5189
 Frc consts  --      0.5337                 0.4949                 0.9572
 IR Inten    --     11.3690                97.9114                19.7999

                     28                     29                     30
                      A                      A                      A
 Frequencies --    851.5556               854.2155               868.6256
 Red. masses --      1.3285                 1.8711                 3.9405
 Frc consts  --      0.5676                 0.8044                 1.7517
 IR Inten    --      3.1139                18.0682                12.8677

                     31                     32                     33
                      A                      A                      A
 Frequencies --    882.9304               901.0220               913.8085
 Red. masses --      1.6707                 1.7364                 3.9138
 Frc consts  --      0.7674                 0.8305                 1.9255
 IR Inten    --      9.1293                14.5063                 7.5751

                     34                     35                     36
                      A                      A                      A
 Frequencies --    949.6182               987.4429              1034.4644
 Red. masses --      1.2529                 1.8063                 3.6321
 Frc consts  --      0.6657                 1.0377                 2.2900
 IR Inten    --      1.2012                15.0323                 8.1188

                     37                     38                     39
                      A                      A                      A
 Frequencies --   1043.9506              1087.1067              1104.4437
 Red. masses --      2.8026                 2.1712                 1.3989
 Frc consts  --      1.7996                 1.5118                 1.0053
 IR Inten    --     10.2965                 9.7204                 5.8302

                     40                     41                     42
                      A                      A                      A
 Frequencies --   1126.2214              1142.2219              1151.6136
 Red. masses --      1.8672                 1.8365                 1.9521
 Frc consts  --      1.3953                 1.4117                 1.5254
 IR Inten    --      8.8505                17.1700                20.0636

                     43                     44                     45
                      A                      A                      A
 Frequencies --   1159.1115              1183.1450              1195.9033
 Red. masses --      3.4998                 2.3425                 1.3067
 Frc consts  --      2.7704                 1.9320                 1.1011
 IR Inten    --    154.4427                24.9981                 2.8574

                     46                     47                     48
                      A                      A                      A
 Frequencies --   1204.7376              1219.6389              1253.5030
 Red. masses --      1.8200                 1.2876                 2.7641
 Frc consts  --      1.5563                 1.1284                 2.5589
 IR Inten    --     33.6120                17.0589                 2.8269

                     49                     50                     51
                      A                      A                      A
 Frequencies --   1262.6804              1272.6195              1282.8707
 Red. masses --      1.5815                 1.2249                 1.3299
 Frc consts  --      1.4856                 1.1689                 1.2895
 IR Inten    --      5.1644                 6.3141                 6.2146

                     52                     53                     54
                      A                      A                      A
 Frequencies --   1308.6043              1343.0956              1370.9274
 Red. masses --      2.7887                 1.2464                 1.8604
 Frc consts  --      2.8136                 1.3247                 2.0601
 IR Inten    --     11.2716                 3.7921                 5.4122

                     55                     56                     57
                      A                      A                      A
 Frequencies --   1381.0767              1397.3958              1417.7952
 Red. masses --      4.3436                 1.4243                 1.5180
 Frc consts  --      4.8813                 1.6387                 1.7978
 IR Inten    --     17.8406                17.6348                13.9664

                     58                     59                     60
                      A                      A                      A
 Frequencies --   1440.3953              1473.9751              1481.1109
 Red. masses --      1.4354                 2.7338                 2.0656
 Frc consts  --      1.7546                 3.4995                 2.6697
 IR Inten    --      7.6863                36.1505                24.3857

                     61                     62                     63
                      A                      A                      A
 Frequencies --   1499.5401              1502.1690              1514.3923
 Red. masses --      1.0923                 1.1570                 1.0482
 Frc consts  --      1.4471                 1.5382                 1.4163
 IR Inten    --      2.2916                 5.8827                 5.3764

                     64                     65                     66
                      A                      A                      A
 Frequencies --   1525.9661              1530.1960              1546.9833
 Red. masses --      1.2003                 1.0816                 1.5384
 Frc consts  --      1.6468                 1.4921                 2.1691
 IR Inten    --     24.4699                18.9444                 3.5875

                     67                     68                     69
                      A                      A                      A
 Frequencies --   1550.3987              1550.5716              1577.7734
 Red. masses --      1.1843                 1.3856                 4.2476
 Frc consts  --      1.6773                 1.9627                 6.2299
 IR Inten    --      2.1517                 4.9509                 6.8129

                     70                     71                     72
                      A                      A                      A
 Frequencies --   1645.0212              1665.2172              2993.5377
 Red. masses --      5.3339                 5.8096                 1.0702
 Frc consts  --      8.5044                 9.4915                 5.6506
 IR Inten    --      3.5940                 3.6176                28.5655

                     73                     74                     75
                      A                      A                      A
 Frequencies --   3004.4298              3013.6774              3028.5718
 Red. masses --      1.0443                 1.0460                 1.0599
 Frc consts  --      5.5540                 5.5973                 5.7278
 IR Inten    --     23.0956               101.7696                45.1296

                     76                     77                     78
                      A                      A                      A
 Frequencies --   3050.3437              3055.1835              3060.5876
 Red. masses --      1.1017                 1.0979                 1.1064
 Frc consts  --      6.0396                 6.0377                 6.1061
 IR Inten    --     65.7639                64.3508                35.1097

                     79                     80                     81
                      A                      A                      A
 Frequencies --   3062.6459              3144.5870              3167.2983
 Red. masses --      1.1045                 1.0989                 1.0868
 Frc consts  --      6.1037                 6.4024                 6.4236
 IR Inten    --     23.9285                21.9636                10.9619

                     82                     83                     84
                      A                      A                      A
 Frequencies --   3184.7706              3202.1549              3254.3177
 Red. masses --      1.0884                 1.0961                 1.0891
 Frc consts  --      6.5040                 6.6220                 6.7957
 IR Inten    --     16.8043                40.6672                 2.5592

                     85                     86                     87
                      A                      A                      A
 Frequencies --   3273.9694              3543.5371              3577.1851
 Red. masses --      1.1040                 1.0742                 1.0811
 Frc consts  --      6.9721                 7.9472                 8.1509
 IR Inten    --      9.8496                 4.3032               413.7339

 - Thermochemistry -
 -------------------
 Temperature   298.150 Kelvin.  Pressure   1.00000 Atm.
 Atom     1 has atomic number  6 and mass  12.00000

 Molecular mass:   204.12626 amu.
 Principal axes and moments of inertia in atomic units:
                           1         2         3
     Eigenvalues --  1786.015804209.842015617.53948
           X            0.99992   0.01253   0.00059
           Y           -0.01252   0.99992  -0.00152
           Z           -0.00061   0.00151   1.00000
 This molecule is an asymmetric top.
 Rotational symmetry number  1.
 Warning -- assumption of classical behavior for rotation
           may cause significant error
 Rotational temperatures (Kelvin)      0.04850     0.02057     0.01542
 Rotational constants (GHZ):           1.01048     0.42870     0.32127
 Zero-point vibrational energy     702111.4 (Joules/Mol)
                                  167.80866 (Kcal/Mol)
 Warning -- explicit consideration of  20 degrees of freedom as
           vibrations may cause significant error
 Vibrational temperatures:     57.50    92.51   110.94   131.17   180.26
          (Kelvin)            259.02   306.24   324.03   338.45   383.21
                              392.14   408.21   487.23   589.97   656.56
                              712.16   791.14   814.18   851.28   857.57
                              902.63   925.82   994.07  1050.49  1098.48
                             1115.50  1155.50  1225.20  1229.03  1249.76
                             1270.34  1296.37  1314.77  1366.29  1420.71
                             1488.36  1502.01  1564.10  1589.05  1620.38
                             1643.40  1656.92  1667.70  1702.28  1720.64
                             1733.35  1754.79  1803.51  1816.72  1831.02
                             1845.76  1882.79  1932.41  1972.46  1987.06
                             2010.54  2039.89  2072.41  2120.72  2130.99
                             2157.50  2161.29  2178.87  2195.52  2201.61
                             2225.76  2230.68  2230.93  2270.06  2366.82
                             2395.88  4307.03  4322.70  4336.01  4357.44
                             4388.76  4395.73  4403.50  4406.46  4524.36
                             4557.04  4582.17  4607.19  4682.24  4710.51
                             5098.36  5146.77

 Zero-point correction=                           0.267420 (Hartree/Particle)
 Thermal correction to Energy=                    0.281129
 Thermal correction to Enthalpy=                  0.282074
 Thermal correction to Gibbs Free Energy=         0.226593
 Sum of electronic and zero-point Energies=           -651.407139
 Sum of electronic and thermal Energies=              -651.393430
 Sum of electronic and thermal Enthalpies=            -651.392486
 Sum of electronic and thermal Free Energies=         -651.447966

                     E (Thermal)             CV                S
                      KCal/Mol        Cal/Mol-Kelvin    Cal/Mol-Kelvin
 Total                  176.411             53.132            116.768
 Electronic               0.000              0.000              0.000
 Translational            0.889              2.981             41.845
 Rotational               0.889              2.981             32.113
 Vibrational            174.634             47.170             42.810
 Vibration     1          0.594              1.981              5.261
 Vibration     2          0.597              1.971              4.321
 Vibration     3          0.599              1.964              3.963
 Vibration     4          0.602              1.955              3.635
 Vibration     5          0.610              1.928              3.017
 Vibration     6          0.629              1.867              2.328
 Vibration     7          0.644              1.821              2.019
 Vibration     8          0.650              1.803              1.917
 Vibration     9          0.655              1.787              1.839
 Vibration    10          0.672              1.735              1.620
 Vibration    11          0.676              1.724              1.580
 Vibration    12          0.682              1.704              1.511
 Vibration    13          0.719              1.598              1.219
 Vibration    14          0.774              1.448              0.926
 Vibration    15          0.815              1.347              0.777
 Vibration    16          0.851              1.261              0.671
 Vibration    17          0.905              1.140              0.544
 Vibration    18          0.922              1.105              0.512
 Vibration    19          0.949              1.050              0.464
 Vibration    20          0.954              1.040              0.457

                           ! Non-Optimized Parameters !
 Normal termination of Gaussian 16 at Thu Dec 10 15:49:31 2020.

 ----------------------------------------------------------------------
 # B3LYP/6-311++G(d,p) empiricaldispersion=gd3bj scf=xqc pop=npa geom=c
 heck
 ----------------------------------------------------------------------

 --------------------------------------
 CID_62998245_JID_5317_Energie_neutraal
 --------------------------------------
 Structure from the checkpoint file:  "JID_5317.chk"
 Charge =  0 Multiplicity = 1

 SCF Done:  E(RB3LYP) =  -651.857014753     A.U. after   14 cycles
 Normal termination of Gaussian 16 at Thu Dec 10 15:53:19 2020.

 ----------------------------------------------------------------------
 # B3LYP/6-311++G(d,p) empiricaldispersion=gd3bj scf=xqc pop=npa geom=c
 heck
 ----------------------------------------------------------------------

 ------------------------------------
 CID_62998245_JID_5317_Energie_kation
 ------------------------------------
 Structure from the checkpoint file:  "JID_5317.chk"
 Charge =  1 Multiplicity = 2

 SCF Done:  E(UB3LYP) =  -651.590539057     A.U. after   25 cycles
 Normal termination of Gaussian 16 at Thu Dec 10 16:02:03 2020.
 Gaussian 16:  ES64L-G16RevA.03 25-Dec-2016

 ----------------------------------------------------------------------
 # B3LYP/6-311++G(d,p) empiricaldispersion=gd3bj scf=xqc pop=npa geom=c
 heck
 ----------------------------------------------------------------------

 -----------------------------------
 CID_62998245_JID_5317_Energie_anion
 -----------------------------------
 Structure from the checkpoint file:  "JID_5317.chk"
 Charge = -1 Multiplicity = 2

                         Standard orientation:
 ---------------------------------------------------------------------
 Center     Atomic      Atomic             Coordinates (Angstroms)
 Number     Number       Type             X           Y           Z
 ---------------------------------------------------------------------
      1          6           0        4.068158    1.242288   -0.106387
      2          8           0        2.868940    0.505719    0.031036
      3          6           0        3.021155   -0.694750    0.787738
      4          6           0        1.679364   -1.404851    0.785002
      5          7           0        1.301138   -1.712295   -0.587868
      6          6           0       -0.098961   -2.056992   -0.798743
      7          6           0       -1.184272   -1.111081   -0.292134
      8          6           0       -2.423820   -1.647083    0.056686
      9          6           0       -3.528697   -0.848044    0.402175
     10          6           0       -3.424364    0.534574    0.422588
     11          6           0       -2.187456    1.121448    0.113244
     12          6           0       -1.079105    0.291943   -0.238245
     13          7           0       -0.007274    1.138456   -0.492092
     14          6           0       -0.403470    2.444785   -0.270519
     15          6           0       -1.727197    2.481502    0.074053
     16          1           0        3.839760    2.123650   -0.710290
     17          1           0        4.845066    0.649382   -0.611259
     18          1           0        4.451857    1.565414    0.872654
     19          1           0        3.791825   -1.326459    0.320749
     20          1           0        3.335976   -0.456431    1.814578
     21          1           0        1.768801   -2.337672    1.358139
     22          1           0        0.943462   -0.774181    1.311077
     23          1           0        1.574917   -0.948339   -1.197030
     24          1           0       -0.223618   -2.189955   -1.881980
     25          1           0       -0.280341   -3.043995   -0.352851
     26          1           0       -2.540457   -2.728745    0.040194
     27          1           0       -4.471718   -1.325516    0.653573
     28          1           0       -4.277095    1.155560    0.683450
     29          1           0        0.969563    0.868582   -0.492726
     30          1           0        0.308466    3.250295   -0.387024
     31          1           0       -2.313037    3.367106    0.277429
 ---------------------------------------------------------------------

 SCF Done:  E(UB3LYP) =  -651.843493983     A.U. after   33 cycles
 SCF Done:  E(UB3LYP) =  -651.843493983     a.u. after    1 cycles

 The electronic state is 2-A.
 Alpha  occ. eigenvalues --  -19.04001 -14.25281 -14.20651 -10.12261 -10.11227
 Alpha  occ. eigenvalues --  -10.11069 -10.10872 -10.10775 -10.10050 -10.08962
 Alpha  occ. eigenvalues --  -10.08054 -10.07992 -10.07817 -10.07719 -10.06731
 Alpha  occ. eigenvalues --   -0.94969  -0.88114  -0.81885  -0.75238  -0.69588
 Alpha  occ. eigenvalues --   -0.66823  -0.64636  -0.63006  -0.58788  -0.56159
 Alpha  occ. eigenvalues --   -0.52471  -0.50730  -0.50073  -0.48888  -0.43926
 Alpha  occ. eigenvalues --   -0.41041  -0.39813  -0.39470  -0.38675  -0.38131
 Alpha  occ. eigenvalues --   -0.36031  -0.34779  -0.34573  -0.34071  -0.32471
 Alpha  occ. eigenvalues --   -0.31982  -0.30132  -0.29983  -0.29026  -0.28257
 Alpha  occ. eigenvalues --   -0.27006  -0.26201  -0.25591  -0.24263  -0.23513
 Alpha  occ. eigenvalues --   -0.18586  -0.17505  -0.13962  -0.13539  -0.11659
 Alpha  occ. eigenvalues --    0.04492
 Alpha virt. eigenvalues --    0.06245   0.06706   0.06905   0.07742   0.07911
 Alpha virt. eigenvalues --    0.08514   0.09634   0.09700   0.10006   0.10227
 Alpha virt. eigenvalues --    0.11109   0.11901   0.12093   0.12463   0.12773

  Beta  occ. eigenvalues --  -19.03988 -14.25281 -14.20644 -10.12228 -10.11225
  Beta  occ. eigenvalues --  -10.11062 -10.10800 -10.10753 -10.10038 -10.08957
  Beta  occ. eigenvalues --  -10.08051 -10.07984 -10.07816 -10.07713 -10.06726
  Beta  occ. eigenvalues --   -0.94948  -0.88107  -0.81871  -0.75225  -0.69571
  Beta  occ. eigenvalues --   -0.66795  -0.64612  -0.62982  -0.58716  -0.56091
  Beta  occ. eigenvalues --   -0.52432  -0.50674  -0.50043  -0.48872  -0.43910
  Beta  occ. eigenvalues --   -0.40982  -0.39775  -0.39426  -0.38637  -0.38112
  Beta  occ. eigenvalues --   -0.36004  -0.34750  -0.34541  -0.34031  -0.32450
  Beta  occ. eigenvalues --   -0.31961  -0.30107  -0.29958  -0.29001  -0.28224
  Beta  occ. eigenvalues --   -0.26984  -0.26149  -0.25569  -0.24240  -0.23437
  Beta  occ. eigenvalues --   -0.18561  -0.17470  -0.13947  -0.13521  -0.11627
  Beta virt. eigenvalues --    0.06194   0.06756   0.07259   0.07385   0.08241
  Beta virt. eigenvalues --    0.08413   0.09019   0.09904   0.10047   0.10467
  Beta virt. eigenvalues --    0.10691   0.11498   0.12232   0.12346   0.12566

 Mulliken charges and spin densities:
               1          2
     1  C    1.574310  -1.815289
     2  O   -0.417180   0.155013
     3  C    0.805170  -1.160310
     4  C   -0.617911   0.194499
     5  N   -0.011892  -0.038780
     6  C   -0.083927  -0.538104
     7  C    0.500272   0.049718
     8  C   -0.514523   0.246418
     9  C   -0.386998  -0.081668
    10  C   -0.125589  -0.506467
    11  C    0.074653   0.300794
    12  C   -0.035576  -0.278154
    13  N   -0.170212   0.114531
    14  C    0.052972  -0.075605
    15  C    0.517357  -0.572734
    16  H   -0.568303   0.709592
    17  H   -0.616301   0.759499
    18  H   -0.615135   0.765703
    19  H    0.036412   0.146236
    20  H   -0.244945   0.407829
    21  H   -0.433280   0.596740
    22  H    0.226593  -0.078411
    23  H    0.157075   0.087654
    24  H    0.031477   0.155955
    25  H    0.108690   0.056236
    26  H    0.012798   0.119768
    27  H    0.020831   0.118197
    28  H    0.059613   0.063492
    29  H    0.337193   0.102982
    30  H   -0.605655   0.786699
    31  H   -0.067988   0.207970
 Sum of Mulliken charges =  -1.00000   1.00000

 Dipole moment (field-independent basis, Debye):
    X=             -9.5203    Y=             -3.7746    Z=             -0.5414  Tot=             10.2556
 Quadrupole moment (field-independent basis, Debye-Ang):
   XX=           -179.4950   YY=           -139.1255   ZZ=           -123.2448
   XY=            -12.3915   XZ=             -3.3882   YZ=              0.6425

 Summary of Natural Population Analysis:

                                       Natural Population
                Natural  -----------------------------------------------
    Atom  No    Charge         Core      Valence    Rydberg      Total
 -----------------------------------------------------------------------
      C    1   -0.09384      0.99962     2.08517    0.00905     3.09384
      O    2   -0.31585      0.99988     3.30471    0.01126     4.31585
      C    3   -0.00875      0.99958     1.99723    0.01194     3.00875
      C    4   -0.10112      0.99962     2.08983    0.01167     3.10112
      N    5   -0.34045      0.99975     2.82917    0.01153     3.84045
      C    6   -0.08907      0.99960     2.07841    0.01106     3.08907
      C    7   -0.03542      0.99946     2.02796    0.00800     3.03542
      C    8   -0.10901      0.99954     2.10067    0.00881     3.10901
      C    9   -0.11473      0.99958     2.10489    0.01026     3.11473
      C   10   -0.09948      0.99953     2.09137    0.00857     3.09948
      C   11   -0.04429      0.99951     2.03644    0.00834     3.04429
      C   12    0.07592      0.99943     1.91350    0.01115     2.92408
      N   13   -0.28547      0.99965     2.77638    0.00944     3.78547
      C   14    0.01064      0.99957     1.97701    0.01277     2.98936
      C   15   -0.14933      0.99953     2.14057    0.00923     3.14933
      H   16    0.09409      0.00000     0.40260    0.00331     0.40591
      H   17    0.08244      0.00000     0.41447    0.00309     0.41756
      H   18    0.08456      0.00000     0.41146    0.00397     0.41544
      H   19    0.08473      0.00000     0.41335    0.00192     0.41527
      H   20    0.08778      0.00000     0.41056    0.00166     0.41222
      H   21    0.09517      0.00000     0.40365    0.00118     0.40483
      H   22    0.08763      0.00000     0.41034    0.00202     0.41237
      H   23    0.17564      0.00000     0.31998    0.00438     0.32436
      H   24    0.10050      0.00000     0.39840    0.00110     0.39950
      H   25    0.09295      0.00000     0.40576    0.00129     0.40705
      H   26    0.09548      0.00000     0.40294    0.00158     0.40452
      H   27    0.09697      0.00000     0.40225    0.00078     0.40303
      H   28    0.09725      0.00000     0.40153    0.00121     0.40275
      H   29    0.21621      0.00000     0.28010    0.00370     0.28379
      H   30    0.10412      0.00000     0.39444    0.00144     0.39588
      H   31    0.10473      0.00000     0.39454    0.00073     0.39527
 =======================================================================
   * Total *    0.00000     14.99383    39.81971    0.18646    55.00000

 Normal termination of Gaussian 16 at Thu Dec 10 16:14:22 2020.
