 Gaussian 16, Revision A.03,

 -----------------------------------------------------------
 # opt freq B3LYP/6-31G(d) empiricaldispersion=gd3bj scf=xqc
 -----------------------------------------------------------

 -------------------------------
 CID_129995188_JID_3035_neutraal
 -------------------------------
 Symbolic Z-matrix:
 Charge =  0 Multiplicity = 1

 SCF Done:  E(RB3LYP) =  -651.140491161     A.U. after   14 cycles
 SCF Done:  E(RB3LYP) =  -651.144266817     A.U. after   12 cycles
 SCF Done:  E(RB3LYP) =  -651.144445789     A.U. after   12 cycles
 SCF Done:  E(RB3LYP) =  -651.144369469     A.U. after   12 cycles
 SCF Done:  E(RB3LYP) =  -651.144672863     A.U. after   11 cycles
 SCF Done:  E(RB3LYP) =  -651.144752303     A.U. after   12 cycles
 SCF Done:  E(RB3LYP) =  -651.144894572     A.U. after   15 cycles
 SCF Done:  E(RB3LYP) =  -651.145029287     A.U. after   12 cycles
 SCF Done:  E(RB3LYP) =  -651.145145227     A.U. after   12 cycles
 SCF Done:  E(RB3LYP) =  -651.145238565     A.U. after   11 cycles
 SCF Done:  E(RB3LYP) =  -651.145387328     A.U. after   12 cycles
 SCF Done:  E(RB3LYP) =  -651.145365114     A.U. after   12 cycles
 SCF Done:  E(RB3LYP) =  -651.145394812     A.U. after   11 cycles
 SCF Done:  E(RB3LYP) =  -651.145395506     A.U. after    8 cycles
 SCF Done:  E(RB3LYP) =  -651.145395527     A.U. after    8 cycles
 SCF Done:  E(RB3LYP) =  -651.145395544     A.U. after    7 cycles
 Optimization completed.
    -- Stationary point found.

 1\1\GINC-NODE313\FOpt\RB3LYP\6-31G(d)\C9H12O4\VSC10255\09-Dec-2020\0\\
 # opt freq B3LYP/6-31G(d) empiricaldispersion=gd3bj scf=xqc\\CID_12999
 5188_JID_3035_neutraal\\0,1\C,1.0287466339,-0.0280927722,-0.0770244555
 \C,0.4994643881,0.0930685285,1.3622021004\C,0.7905245512,1.4798012294,
 1.9904630548\C,2.112351613,1.2977173452,2.7662465268\C,2.1551290668,-0
 .1858776482,3.0509090488\C,1.2456940779,-0.8435473829,2.3024633645\C,1
 .0385396701,-2.3012978438,2.3178688644\O,1.6092071918,-3.1204193427,3.
 0184477194\O,0.077994049,-2.6851353487,1.4329942068\C,3.1475166622,-0.

 Normal termination of Gaussian 16 at Wed Dec  9 22:24:22 2020.

 --------------------------------------------------------------------
 #N Geom=AllCheck Guess=TCheck SCRF=Check GenChk RB3LYP/6-31G(d) Freq
 --------------------------------------------------------------------

 Structure from the checkpoint file:  "JID_3035.chk"
 -------------------------------
 CID_129995188_JID_3035_neutraal
 -------------------------------
 Charge =  0 Multiplicity = 1

 SCF Done:  E(RB3LYP) =  -651.145395544     A.U. after    1 cycles

  Exact polarizability: 126.046  -6.068 101.703   8.795  -1.087  80.105
 Approx polarizability: 188.029 -13.501 147.872  18.297  -1.063 118.719

                      1                      2                      3
                      A                      A                      A
 Frequencies --     29.2622                37.6704                58.5510
 Red. masses --      5.5422                 9.8548                 9.1281
 Frc consts  --      0.0028                 0.0082                 0.0184
 IR Inten    --      0.2024                 1.4343                 1.3885

                      4                      5                      6
                      A                      A                      A
 Frequencies --     74.5793               122.2062               173.1238
 Red. masses --      4.2380                 2.8364                 2.4083
 Frc consts  --      0.0139                 0.0250                 0.0425
 IR Inten    --      0.2836                 0.0768                 0.5887

                      7                      8                      9
                      A                      A                      A
 Frequencies --    189.7670               212.3251               250.7328
 Red. masses --      4.3693                 3.7577                 1.0765
 Frc consts  --      0.0927                 0.0998                 0.0399
 IR Inten    --      0.2122                 0.8182                 0.0649

                     10                     11                     12
                      A                      A                      A
 Frequencies --    296.0212               347.5355               381.8775
 Red. masses --      3.2512                 3.3883                 3.5887
 Frc consts  --      0.1679                 0.2411                 0.3083
 IR Inten    --      2.8457                 1.9620                 3.7044

                     13                     14                     15
                      A                      A                      A
 Frequencies --    404.7784               443.8403               490.0756
 Red. masses --      3.9631                 3.6033                 3.2598
 Frc consts  --      0.3826                 0.4182                 0.4613
 IR Inten    --      1.0003                 2.3355                 7.2712

                     16                     17                     18
                      A                      A                      A
 Frequencies --    525.6105               545.4189               608.2909
 Red. masses --      2.0753                 3.1881                 3.1000
 Frc consts  --      0.3378                 0.5588                 0.6758
 IR Inten    --     16.7359                19.5078                37.1831

                     19                     20                     21
                      A                      A                      A
 Frequencies --    649.2242               677.2992               690.4183
 Red. masses --      1.3964                 1.9763                 2.4335
 Frc consts  --      0.3468                 0.5342                 0.6835
 IR Inten    --     75.3515                32.8453                96.0227

                     22                     23                     24
                      A                      A                      A
 Frequencies --    726.8883               763.8448               799.6847
 Red. masses --      2.6408                 2.8296                 3.2609
 Frc consts  --      0.8221                 0.9727                 1.2286
 IR Inten    --     55.2055                17.4622                 8.2508

                     25                     26                     27
                      A                      A                      A
 Frequencies --    802.2485               871.3049               909.0563
 Red. masses --      3.0978                 4.1652                 2.4759
 Frc consts  --      1.1747                 1.8630                 1.2055
 IR Inten    --      6.3396                 5.8712                 5.3021

                     28                     29                     30
                      A                      A                      A
 Frequencies --    919.5429               978.9272               984.4620
 Red. masses --      1.9928                 1.5791                 2.4478
 Frc consts  --      0.9928                 0.8916                 1.3977
 IR Inten    --      1.9278                 2.9588                 0.4317

                     31                     32                     33
                      A                      A                      A
 Frequencies --   1006.1631              1049.5083              1097.4474
 Red. masses --      2.7679                 1.9468                 1.7057
 Frc consts  --      1.6510                 1.2634                 1.2104
 IR Inten    --     29.4151                15.4651                14.2448

                     34                     35                     36
                      A                      A                      A
 Frequencies --   1114.0278              1156.5051              1169.1143
 Red. masses --      1.7836                 2.5386                 1.8777
 Frc consts  --      1.3042                 2.0005                 1.5122
 IR Inten    --      6.0999                89.6331                63.0723

                     37                     38                     39
                      A                      A                      A
 Frequencies --   1192.3137              1205.3590              1219.8067
 Red. masses --      1.9498                 1.9933                 1.4289
 Frc consts  --      1.6331                 1.7063                 1.2526
 IR Inten    --    290.6398               123.2798                 9.3612

                     40                     41                     42
                      A                      A                      A
 Frequencies --   1265.7908              1285.2721              1323.1849
 Red. masses --      1.3757                 1.3624                 1.5102
 Frc consts  --      1.2987                 1.3260                 1.5579
 IR Inten    --     21.6442                 3.8076                 0.7158

                     43                     44                     45
                      A                      A                      A
 Frequencies --   1342.8329              1350.0224              1364.0988
 Red. masses --      1.5283                 1.8535                 1.5864
 Frc consts  --      1.6237                 1.9904                 1.7392
 IR Inten    --      2.4973                 0.5443                19.1806

                     46                     47                     48
                      A                      A                      A
 Frequencies --   1373.0750              1380.0413              1401.9839
 Red. masses --      1.5714                 2.1198                 3.1129
 Frc consts  --      1.7456                 2.3786                 3.6049
 IR Inten    --     20.5980                27.8172                61.0740

                     49                     50                     51
                      A                      A                      A
 Frequencies --   1433.3758              1488.7301              1506.2698
 Red. masses --      1.2322                 1.0898                 1.0832
 Frc consts  --      1.4916                 1.4231                 1.4480
 IR Inten    --      4.3088                16.0692                 2.9257

                     52                     53                     54
                      A                      A                      A
 Frequencies --   1522.0690              1529.9546              1537.9167
 Red. masses --      1.0638                 1.0907                 1.0464
 Frc consts  --      1.4521                 1.5042                 1.4582
 IR Inten    --      3.7453                 1.4816                 5.3695

                     55                     56                     57
                      A                      A                      A
 Frequencies --   1706.2667              1799.4211              1852.9238
 Red. masses --      8.6580                 9.1587                 9.8065
 Frc consts  --     14.8512                17.4724                19.8372
 IR Inten    --    133.3400               257.0049               345.1377

                     58                     59                     60
                      A                      A                      A
 Frequencies --   3034.3625              3048.5097              3061.5299
 Red. masses --      1.0649                 1.0369                 1.0730
 Frc consts  --      5.7766                 5.6775                 5.9256
 IR Inten    --     20.7254                23.6982                11.3692

                     61                     62                     63
                      A                      A                      A
 Frequencies --   3072.9295              3076.9271              3080.2947
 Red. masses --      1.0890                 1.0626                 1.0792
 Frc consts  --      6.0586                 5.9275                 6.0328
 IR Inten    --      8.4181                31.3859                39.9997

                     64                     65                     66
                      A                      A                      A
 Frequencies --   3114.6075              3115.1136              3127.7926
 Red. masses --      1.1023                 1.1044                 1.1023
 Frc consts  --      6.3005                 6.3144                 6.3535
 IR Inten    --     45.1912                30.8309                11.4999

                     67                     68                     69
                      A                      A                      A
 Frequencies --   3136.9038              3684.4515              3692.0018
 Red. masses --      1.1008                 1.0639                 1.0640
 Frc consts  --      6.3823                 8.5096                 8.5450
 IR Inten    --     20.1826                53.2263                69.9424

 - Thermochemistry -
 -------------------
 Temperature   298.150 Kelvin.  Pressure   1.00000 Atm.
 Atom     1 has atomic number  6 and mass  12.00000

 Molecular mass:   184.07356 amu.
 Principal axes and moments of inertia in atomic units:
                           1         2         3
     Eigenvalues --  1651.807213008.727803870.41465
           X            0.99960   0.02545   0.01236
           Y           -0.02544   0.99968  -0.00095
           Z           -0.01238   0.00064   0.99992
 This molecule is an asymmetric top.
 Rotational symmetry number  1.
 Warning -- assumption of classical behavior for rotation
           may cause significant error
 Rotational temperatures (Kelvin)      0.05244     0.02879     0.02238
 Rotational constants (GHZ):           1.09259     0.59984     0.46629
 Zero-point vibrational energy     537622.5 (Joules/Mol)
                                  128.49487 (Kcal/Mol)
 Warning -- explicit consideration of  18 degrees of freedom as
           vibrations may cause significant error
 Vibrational temperatures:     42.10    54.20    84.24   107.30   175.83
          (Kelvin)            249.09   273.03   305.49   360.75   425.91
                              500.03   549.44   582.39   638.59   705.11
                              756.24   784.74   875.19   934.09   974.48
                              993.36  1045.83  1099.00  1150.57  1154.26
                             1253.61  1307.93  1323.02  1408.46  1416.42
                             1447.64  1510.01  1578.98  1602.84  1663.95
                             1682.09  1715.47  1734.24  1755.03  1821.19
                             1849.22  1903.77  1932.04  1942.38  1962.63
                             1975.55  1985.57  2017.14  2062.31  2141.95
                             2167.19  2189.92  2201.26  2212.72  2454.94
                             2588.97  2665.94  4365.77  4386.13  4404.86
                             4421.26  4427.01  4431.86  4481.23  4481.95
                             4500.20  4513.30  5301.10  5311.97

 Zero-point correction=                           0.204770 (Hartree/Particle)
 Thermal correction to Energy=                    0.217607
 Thermal correction to Enthalpy=                  0.218551
 Thermal correction to Gibbs Free Energy=         0.163838
 Sum of electronic and zero-point Energies=           -650.940626
 Sum of electronic and thermal Energies=              -650.927789
 Sum of electronic and thermal Enthalpies=            -650.926844
 Sum of electronic and thermal Free Energies=         -650.981558

                     E (Thermal)             CV                S
                      KCal/Mol        Cal/Mol-Kelvin    Cal/Mol-Kelvin
 Total                  136.550             47.090            115.154
 Electronic               0.000              0.000              0.000
 Translational            0.889              2.981             41.537
 Rotational               0.889              2.981             31.331
 Vibrational            134.773             41.129             42.285
 Vibration     1          0.593              1.984              5.879
 Vibration     2          0.594              1.982              5.378
 Vibration     3          0.596              1.974              4.505
 Vibration     4          0.599              1.966              4.029
 Vibration     5          0.610              1.931              3.065
 Vibration     6          0.627              1.876              2.401
 Vibration     7          0.633              1.854              2.230
 Vibration     8          0.643              1.822              2.024
 Vibration     9          0.663              1.762              1.725
 Vibration    10          0.690              1.681              1.439
 Vibration    11          0.725              1.580              1.177
 Vibration    12          0.751              1.509              1.032
 Vibration    13          0.770              1.460              0.945
 Vibration    14          0.803              1.374              0.815
 Vibration    15          0.846              1.272              0.683
 Vibration    16          0.881              1.193              0.597
 Vibration    17          0.901              1.150              0.554
 Vibration    18          0.967              1.014              0.436

 Optimization completed.
    -- Stationary point found.

 1\1\GINC-NODE313\Freq\RB3LYP\6-31G(d)\C9H12O4\VSC10255\09-Dec-2020\0\\
 #N Geom=AllCheck Guess=TCheck SCRF=Check GenChk RB3LYP/6-31G(d) Freq\\
 CID_129995188_JID_3035_neutraal\\0,1\C,1.0287466339,-0.0280927722,-0.0
 770244555\C,0.4994643881,0.0930685285,1.3622021004\C,0.7905245512,1.47
 98012294,1.9904630548\C,2.112351613,1.2977173452,2.7662465268\C,2.1551
 290668,-0.1858776482,3.0509090488\C,1.2456940779,-0.8435473829,2.30246
 33645\C,1.0385396701,-2.3012978438,2.3178688644\O,1.6092071918,-3.1204
 193427,3.0184477194\O,0.077994049,-2.6851353487,1.4329942068\C,3.14751

 Normal termination of Gaussian 16 at Wed Dec  9 22:30:20 2020.

 ----------------------------------------------------------------------
 # B3LYP/6-311++G(d,p) empiricaldispersion=gd3bj scf=xqc pop=npa geom=c
 heck
 ----------------------------------------------------------------------

 ---------------------------------------
 CID_129995188_JID_3035_Energie_neutraal
 ---------------------------------------
 Structure from the checkpoint file:  "JID_3035.chk"
 Charge =  0 Multiplicity = 1

 SCF Done:  E(RB3LYP) =  -651.349779880     A.U. after   15 cycles
 Normal termination of Gaussian 16 at Wed Dec  9 22:32:28 2020.

 ----------------------------------------------------------------------
 # B3LYP/6-311++G(d,p) empiricaldispersion=gd3bj scf=xqc pop=npa geom=c
 heck
 ----------------------------------------------------------------------

 -------------------------------------
 CID_129995188_JID_3035_Energie_kation
 -------------------------------------
 Structure from the checkpoint file:  "JID_3035.chk"
 Charge =  1 Multiplicity = 2

 SCF Done:  E(UB3LYP) =  -651.018835357     A.U. after   24 cycles
 Normal termination of Gaussian 16 at Wed Dec  9 22:37:05 2020.
 Gaussian 16:  ES64L-G16RevA.03 25-Dec-2016

 ------------------------------------
 CID_129995188_JID_3035_Energie_anion
 ------------------------------------
 Structure from the checkpoint file:  "JID_3035.chk"
 Charge = -1 Multiplicity = 2

                         Standard orientation:
 ---------------------------------------------------------------------
 Center     Atomic      Atomic             Coordinates (Angstroms)
 Number     Number       Type             X           Y           Z
 ---------------------------------------------------------------------
      1          6           0        2.178948    1.173470    1.408104
      2          6           0        1.909603    0.985436   -0.094657
      3          6           0        1.181789    2.199033   -0.727053
      4          6           0       -0.317730    1.837051   -0.675743
      5          6           0       -0.316512    0.326643   -0.624916
      6          6           0        0.915439   -0.141873   -0.337580
      7          6           0        1.261739   -1.565593   -0.191687
      8          8           0        0.522971   -2.524069   -0.343270
      9          8           0        2.572102   -1.736593    0.134949
     10          6           0       -1.579574   -0.452384   -0.830986
     11          6           0       -2.643562   -0.174432    0.215730
     12          8           0       -3.835467   -0.151293    0.013425
     13          8           0       -2.108031    0.014657    1.448990
     14          1           0        2.868101    2.009271    1.574696
     15          1           0        2.623131    0.272517    1.840870
     16          1           0        1.246212    1.384821    1.944357
     17          1           0        2.863213    0.789117   -0.596422
     18          1           0        1.412454    3.137756   -0.214327
     19          1           0        1.491278    2.308242   -1.772279
     20          1           0       -0.811508    2.228918    0.225149
     21          1           0       -0.885705    2.221395   -1.531930
     22          1           0        2.698681   -2.701302    0.203538
     23          1           0       -2.031314   -0.216103   -1.800156
     24          1           0       -1.362281   -1.524587   -0.803678
     25          1           0       -2.865704    0.144238    2.050161
 ---------------------------------------------------------------------

 SCF Done:  E(UB3LYP) =  -651.351067374     A.U. after   31 cycles

 The electronic state is 2-A.
 Alpha  occ. eigenvalues --  -19.05104 -19.01519 -18.99644 -18.94126 -10.18291
 Alpha  occ. eigenvalues --  -10.12506 -10.04805 -10.04191 -10.03963 -10.03565
 Alpha  occ. eigenvalues --  -10.02736 -10.01709 -10.01191  -0.99089  -0.95097
 Alpha  occ. eigenvalues --   -0.90258  -0.85507  -0.71873  -0.64833  -0.60094
 Alpha  occ. eigenvalues --   -0.58129  -0.52463  -0.49323  -0.48260  -0.43331
 Alpha  occ. eigenvalues --   -0.38689  -0.37420  -0.36819  -0.35065  -0.33808
 Alpha  occ. eigenvalues --   -0.33216  -0.32350  -0.30131  -0.28296  -0.27933
 Alpha  occ. eigenvalues --   -0.27850  -0.26976  -0.26830  -0.25249  -0.23559
 Alpha  occ. eigenvalues --   -0.21422  -0.20766  -0.20443  -0.20000  -0.19687
 Alpha  occ. eigenvalues --   -0.17680  -0.16450  -0.12224  -0.10547   0.05184
 Alpha virt. eigenvalues --    0.07967   0.08589   0.09676   0.10087   0.11152
 Alpha virt. eigenvalues --    0.11546   0.11955   0.12599   0.13033   0.13619
 Alpha virt. eigenvalues --    0.14785   0.15181   0.15619   0.16688   0.17377

  Beta  occ. eigenvalues --  -19.05084 -19.01425 -18.99635 -18.93862 -10.18212
  Beta  occ. eigenvalues --  -10.12208 -10.04841 -10.04198 -10.03951 -10.03606
  Beta  occ. eigenvalues --  -10.02712 -10.01199 -10.01120  -0.99028  -0.94769
  Beta  occ. eigenvalues --   -0.90218  -0.85089  -0.71534  -0.64572  -0.59961
  Beta  occ. eigenvalues --   -0.57757  -0.52197  -0.49109  -0.48003  -0.43228
  Beta  occ. eigenvalues --   -0.38268  -0.37273  -0.36679  -0.34942  -0.33649
  Beta  occ. eigenvalues --   -0.32932  -0.32119  -0.29230  -0.28120  -0.27770
  Beta  occ. eigenvalues --   -0.27424  -0.26873  -0.26645  -0.25075  -0.23357
  Beta  occ. eigenvalues --   -0.21304  -0.20640  -0.20259  -0.19922  -0.19530
  Beta  occ. eigenvalues --   -0.16630  -0.16288  -0.11970  -0.08775
  Beta virt. eigenvalues --    0.08106   0.08881   0.09657   0.09908   0.11236
  Beta virt. eigenvalues --    0.11414   0.11737   0.12423   0.12902   0.13085
  Beta virt. eigenvalues --    0.13908   0.14732   0.15216   0.15568   0.16687

 Mulliken charges and spin densities:
               1          2
     1  C    0.212981  -0.915699
     2  C   -0.528321   0.829448
     3  C   -0.375257  -0.074513
     4  C   -0.189378  -0.479347
     5  C    1.050695   0.034445
     6  C   -0.161327   0.245622
     7  C   -0.099554   0.112598
     8  O   -0.422218   0.090224
     9  O   -0.209504   0.014412
    10  C   -0.787695   0.061796
    11  C    0.055569  -0.123309
    12  O   -0.297262   0.006388
    13  O   -0.157165   0.004400
    14  H   -0.177693   0.284031
    15  H    0.124560   0.010071
    16  H    0.013245   0.142517
    17  H    0.100152   0.097454
    18  H   -0.035351   0.173162
    19  H    0.115105  -0.004969
    20  H   -0.121194   0.277853
    21  H    0.147675  -0.023382
    22  H    0.250347   0.001857
    23  H    0.180023   0.010082
    24  H    0.254689  -0.007001
    25  H    0.056878   0.231859
 Sum of Mulliken charges =  -1.00000   1.00000

 Dipole moment (field-independent basis, Debye):
    X=              1.1325    Y=              0.1344    Z=             -1.0988  Tot=              1.5836
 Quadrupole moment (field-independent basis, Debye-Ang):
   XX=           -115.9960   YY=           -104.0720   ZZ=            -90.6953
   XY=             -4.2439   XZ=             -2.5653   YZ=             -7.1007

 Summary of Natural Population Analysis:

                                       Natural Population
                Natural  -----------------------------------------------
    Atom  No    Charge         Core      Valence    Rydberg      Total
 -----------------------------------------------------------------------
      C    1   -0.28454      0.99965     2.27910    0.00579     3.28454
      C    2   -0.11319      0.99960     2.10287    0.01072     3.11319
      C    3   -0.18140      0.99964     2.17302    0.00875     3.18140
      C    4   -0.20959      0.99961     2.20210    0.00788     3.20959
      C    5    0.12644      0.99945     1.86378    0.01033     2.87356
      C    6   -0.07864      0.99933     2.06769    0.01162     3.07864
      C    7    0.43192      0.99963     1.54466    0.02379     2.56808
      O    8   -0.31767      0.99987     3.31189    0.00590     4.31767
      O    9   -0.35296      0.99988     3.34664    0.00644     4.35296
      C   10   -0.26451      0.99953     2.25541    0.00957     3.26451
      C   11    0.42233      0.99973     1.55125    0.02669     2.57767
      O   12   -0.32094      0.99986     3.31499    0.00609     4.32094
      O   13   -0.34105      0.99988     3.33452    0.00666     4.34105
      H   14    0.08980      0.00000     0.40895    0.00125     0.41020
      H   15    0.10236      0.00000     0.39648    0.00116     0.39764
      H   16    0.09849      0.00000     0.40057    0.00094     0.40151
      H   17    0.09452      0.00000     0.40351    0.00196     0.40548
      H   18    0.09284      0.00000     0.40620    0.00096     0.40716
      H   19    0.09203      0.00000     0.40702    0.00095     0.40797
      H   20    0.10615      0.00000     0.39200    0.00186     0.39385
      H   21    0.09448      0.00000     0.40445    0.00107     0.40552
      H   22    0.22789      0.00000     0.26758    0.00454     0.27211
      H   23    0.10970      0.00000     0.38940    0.00090     0.39030
      H   24    0.14104      0.00000     0.35800    0.00096     0.35896
      H   25    0.23448      0.00000     0.26117    0.00435     0.26552
 =======================================================================
   * Total *    0.00000     12.99564    35.84323    0.16113    49.00000

 Normal termination of Gaussian 16 at Wed Dec  9 22:43:01 2020.
