 Gaussian 16, Revision A.03,

 -----------------------------------------------------------
 # opt freq B3LYP/6-31G(d) empiricaldispersion=gd3bj scf=xqc
 -----------------------------------------------------------

 ----------------------------
 CID_834400_JID_7581_neutraal
 ----------------------------
 Symbolic Z-matrix:
 Charge =  0 Multiplicity = 1

 SCF Done:  E(RB3LYP) =  -727.885909048     A.U. after   14 cycles
 SCF Done:  E(RB3LYP) =  -727.889333217     A.U. after   12 cycles
 SCF Done:  E(RB3LYP) =  -727.889804329     A.U. after   11 cycles
 SCF Done:  E(RB3LYP) =  -727.889939643     A.U. after   11 cycles
 SCF Done:  E(RB3LYP) =  -727.889982432     A.U. after   10 cycles
 SCF Done:  E(RB3LYP) =  -727.890027678     A.U. after   11 cycles
 SCF Done:  E(RB3LYP) =  -727.890056695     A.U. after   11 cycles
 SCF Done:  E(RB3LYP) =  -727.890065746     A.U. after   10 cycles
 SCF Done:  E(RB3LYP) =  -727.890066996     A.U. after    9 cycles
 SCF Done:  E(RB3LYP) =  -727.890067176     A.U. after    8 cycles
 SCF Done:  E(RB3LYP) =  -727.890067220     A.U. after    7 cycles
 Optimization completed.
    -- Stationary point found.
 Normal termination of Gaussian 16 at Mon Dec 14 13:13:44 2020.

 --------------------------------------------------------------------
 #N Geom=AllCheck Guess=TCheck SCRF=Check GenChk RB3LYP/6-31G(d) Freq
 --------------------------------------------------------------------

 Structure from the checkpoint file:  "JID_7581.chk"
 ----------------------------
 CID_834400_JID_7581_neutraal
 ----------------------------
 Charge =  0 Multiplicity = 1

 SCF Done:  E(RB3LYP) =  -727.890067220     A.U. after    1 cycles

  Exact polarizability: 175.480  13.901 171.184  -6.170  -6.403 120.085
 Approx polarizability: 237.101  26.484 280.079 -13.851 -12.494 203.367

                      1                      2                      3
                      A                      A                      A
 Frequencies --     16.5040                23.6009                30.9412
 Red. masses --      4.0687                 5.2247                 3.7895
 Frc consts  --      0.0007                 0.0017                 0.0021
 IR Inten    --      0.3706                 0.4625                 0.0480

                      4                      5                      6
                      A                      A                      A
 Frequencies --     66.1638                91.0219               105.3225
 Red. masses --      4.0492                 3.3155                 4.2782
 Frc consts  --      0.0104                 0.0162                 0.0280
 IR Inten    --      1.4945                 3.0040                 0.9850

                      7                      8                      9
                      A                      A                      A
 Frequencies --    169.0772               208.5718               215.4644
 Red. masses --      3.5268                 2.4748                 2.5273
 Frc consts  --      0.0594                 0.0634                 0.0691
 IR Inten    --      3.8584                 1.4586                 0.1485

                     10                     11                     12
                      A                      A                      A
 Frequencies --    227.2732               258.7172               287.2594
 Red. masses --      3.4835                 3.6089                 1.5833
 Frc consts  --      0.1060                 0.1423                 0.0770
 IR Inten    --      3.2426                 1.6208                 0.2174

                     13                     14                     15
                      A                      A                      A
 Frequencies --    357.3815               381.0806               384.5313
 Red. masses --      2.2234                 3.5873                 3.8294
 Frc consts  --      0.1673                 0.3069                 0.3336
 IR Inten    --      0.3125                 2.1387                 1.8709

                     16                     17                     18
                      A                      A                      A
 Frequencies --    388.7919               458.5776               465.8055
 Red. masses --      2.6136                 3.2425                 4.3818
 Frc consts  --      0.2328                 0.4017                 0.5602
 IR Inten    --      0.0225                 1.0654                 1.5117

                     19                     20                     21
                      A                      A                      A
 Frequencies --    507.1987               561.0018               570.8522
 Red. masses --      4.6860                 4.7221                 3.9709
 Frc consts  --      0.7102                 0.8756                 0.7624
 IR Inten    --     10.9224                 1.3274                 6.6383

                     22                     23                     24
                      A                      A                      A
 Frequencies --    608.1201               653.4885               687.9043
 Red. masses --      3.6689                 4.2405                 6.8440
 Frc consts  --      0.7994                 1.0669                 1.9082
 IR Inten    --     19.6189                 3.7116                 0.3744

                     25                     26                     27
                      A                      A                      A
 Frequencies --    705.2601               760.9695               764.1184
 Red. masses --      2.4746                 4.1279                 2.6243
 Frc consts  --      0.7252                 1.4084                 0.9028
 IR Inten    --      8.7597                 3.9234                20.4981

                     28                     29                     30
                      A                      A                      A
 Frequencies --    777.1542               806.7487               817.4358
 Red. masses --      2.0559                 1.4387                 1.5557
 Frc consts  --      0.7316                 0.5517                 0.6125
 IR Inten    --     90.6141                34.2559                22.5623

                     31                     32                     33
                      A                      A                      A
 Frequencies --    861.4440               874.1215               891.8318
 Red. masses --      1.8060                 1.8976                 1.2629
 Frc consts  --      0.7896                 0.8543                 0.5918
 IR Inten    --     11.0744                25.8868                 0.6668

                     34                     35                     36
                      A                      A                      A
 Frequencies --    905.3812               918.4444               967.0839
 Red. masses --      1.4150                 2.3636                 2.1959
 Frc consts  --      0.6834                 1.1747                 1.2100
 IR Inten    --      4.0019                11.7582                 2.4956

                     37                     38                     39
                      A                      A                      A
 Frequencies --    976.2050               978.8533               991.2383
 Red. masses --      1.2576                 1.3610                 1.4568
 Frc consts  --      0.7061                 0.7684                 0.8434
 IR Inten    --      1.4077                 1.0801                 0.0321

                     40                     41                     42
                      A                      A                      A
 Frequencies --   1006.2466              1015.2762              1018.1333
 Red. masses --      2.1732                 7.2597                 6.1207
 Frc consts  --      1.2965                 4.4090                 3.7382
 IR Inten    --     26.3645                 6.0130                 2.8555

                     43                     44                     45
                      A                      A                      A
 Frequencies --   1087.0265              1088.1394              1102.0236
 Red. masses --      3.8301                 2.0122                 1.9943
 Frc consts  --      2.6665                 1.4038                 1.4270
 IR Inten    --     46.6408                 8.9940                 1.4240

                     46                     47                     48
                      A                      A                      A
 Frequencies --   1115.1309              1129.2864              1144.9778
 Red. masses --      1.5443                 1.5128                 4.2303
 Frc consts  --      1.1315                 1.1367                 3.2675
 IR Inten    --      7.5852                 0.8921                41.1775

                     49                     50                     51
                      A                      A                      A
 Frequencies --   1186.5166              1193.1356              1207.3467
 Red. masses --      1.2718                 1.1252                 1.6295
 Frc consts  --      1.0549                 0.9437                 1.3995
 IR Inten    --      0.6873                 7.1297                32.5376

                     52                     53                     54
                      A                      A                      A
 Frequencies --   1224.9859              1227.8320              1235.6297
 Red. masses --      1.2165                 1.5229                 3.1648
 Frc consts  --      1.0755                 1.3527                 2.8469
 IR Inten    --      2.5384                 5.6535                 9.7331

                     55                     56                     57
                      A                      A                      A
 Frequencies --   1256.9419              1298.7937              1313.4606
 Red. masses --      1.3007                 2.1040                 4.7757
 Frc consts  --      1.2108                 2.0911                 4.8542
 IR Inten    --      7.2691                 3.3325               163.7628

                     58                     59                     60
                      A                      A                      A
 Frequencies --   1321.9374              1345.6205              1377.4634
 Red. masses --      2.5326                 1.4388                 2.6724
 Frc consts  --      2.6076                 1.5349                 2.9875
 IR Inten    --     13.4440                 3.7367                29.7302

                     61                     62                     63
                      A                      A                      A
 Frequencies --   1381.6859              1384.1759              1414.0898
 Red. masses --      1.3362                 1.3951                 1.4514
 Frc consts  --      1.5029                 1.5749                 1.7100
 IR Inten    --     10.2970                15.9326                 9.6382

                     64                     65                     66
                      A                      A                      A
 Frequencies --   1462.4479              1484.9001              1499.3374
 Red. masses --      2.0564                 1.7442                 1.1020
 Frc consts  --      2.5913                 2.2659                 1.4596
 IR Inten    --     19.9630                42.3061                 3.5792

                     67                     68                     69
                      A                      A                      A
 Frequencies --   1511.7621              1515.5744              1520.8142
 Red. masses --      1.5578                 1.2588                 1.0479
 Frc consts  --      2.0976                 1.7036                 1.4279
 IR Inten    --      3.9996                29.9165                 5.5153

                     70                     71                     72
                      A                      A                      A
 Frequencies --   1533.8139              1540.5968              1543.6738
 Red. masses --      1.1765                 1.1253                 2.1041
 Frc consts  --      1.6308                 1.5736                 2.9541
 IR Inten    --     69.3572                 8.3461                 1.1720

                     73                     74                     75
                      A                      A                      A
 Frequencies --   1551.5340              1622.4735              1654.1535
 Red. masses --      1.8593                 6.6195                 6.1715
 Frc consts  --      2.6371                10.2667                 9.9493
 IR Inten    --     24.1488                14.9474                37.8492

                     76                     77                     78
                      A                      A                      A
 Frequencies --   1655.8816              1665.7713              2976.2951
 Red. masses --      5.4291                 5.5593                 1.0677
 Frc consts  --      8.7708                 9.0887                 5.5725
 IR Inten    --     26.9815               101.7855                38.8471

                     79                     80                     81
                      A                      A                      A
 Frequencies --   3024.1604              3024.4650              3051.5755
 Red. masses --      1.0354                 1.0914                 1.0592
 Frc consts  --      5.5793                 5.8820                 5.8114
 IR Inten    --     44.1213                29.9487                41.4554

                     82                     83                     84
                      A                      A                      A
 Frequencies --   3081.9269              3096.5711              3157.8724
 Red. masses --      1.1065                 1.1064                 1.0996
 Frc consts  --      6.1923                 6.2504                 6.4604
 IR Inten    --     43.3104                20.5854                29.1223

                     85                     86                     87
                      A                      A                      A
 Frequencies --   3167.7526              3168.8479              3187.5339
 Red. masses --      1.0861                 1.0890                 1.0944
 Frc consts  --      6.4215                 6.4427                 6.5516
 IR Inten    --     17.7083                23.6525                34.9904

                     88                     89                     90
                      A                      A                      A
 Frequencies --   3189.5031              3194.1340              3214.6971
 Red. masses --      1.0875                 1.0947                 1.0890
 Frc consts  --      6.5184                 6.5804                 6.6307
 IR Inten    --     16.1253                11.0825                 8.3663

                     91                     92                     93
                      A                      A                      A
 Frequencies --   3216.2784              3222.7910              3485.8019
 Red. masses --      1.0917                 1.0941                 1.0740
 Frc consts  --      6.6539                 6.6951                 7.6892
 IR Inten    --     10.7958                 6.9826                 0.3309

 - Thermochemistry -
 -------------------
 Temperature   298.150 Kelvin.  Pressure   1.00000 Atm.
 Atom     1 has atomic number  6 and mass  12.00000

 Molecular mass:   228.12626 amu.
 Principal axes and moments of inertia in atomic units:
                           1         2         3
     Eigenvalues --  2204.939908518.924409974.94185
           X            0.99995  -0.00992  -0.00065
           Y            0.00992   0.99991  -0.00864
           Z            0.00074   0.00863   0.99996
 This molecule is an asymmetric top.
 Rotational symmetry number  1.
 Warning -- assumption of classical behavior for rotation
           may cause significant error
 Rotational temperatures (Kelvin)      0.03928     0.01017     0.00868
 Rotational constants (GHZ):           0.81850     0.21185     0.18093
 Zero-point vibrational energy     729840.1 (Joules/Mol)
                                  174.43597 (Kcal/Mol)
 Warning -- explicit consideration of  22 degrees of freedom as
           vibrations may cause significant error
 Vibrational temperatures:     23.75    33.96    44.52    95.19   130.96
          (Kelvin)            151.54   243.26   300.09   310.01   327.00
                              372.24   413.30   514.19   548.29   553.25
                              559.38   659.79   670.19   729.75   807.16
                              821.33   874.95   940.22   989.74  1014.71
                             1094.87  1099.40  1118.15  1160.73  1176.11
                             1239.43  1257.67  1283.15  1302.64  1321.44
                             1391.42  1404.54  1408.35  1426.17  1447.76
                             1460.76  1464.87  1563.99  1565.59  1585.57
                             1604.42  1624.79  1647.37  1707.13  1716.66
                             1737.10  1762.48  1766.58  1777.80  1808.46
                             1868.67  1889.78  1901.97  1936.05  1981.86
                             1987.94  1991.52  2034.56  2104.14  2136.44
                             2157.21  2175.09  2180.57  2188.11  2206.82
                             2216.58  2221.00  2232.31  2334.38  2379.96
                             2382.44  2396.67  4282.22  4351.09  4351.53
                             4390.54  4434.21  4455.28  4543.47  4557.69
                             4559.27  4586.15  4588.98  4595.65  4625.23
                             4627.51  4636.88  5015.29

 Zero-point correction=                           0.277981 (Hartree/Particle)
 Thermal correction to Energy=                    0.293163
 Thermal correction to Enthalpy=                  0.294107
 Thermal correction to Gibbs Free Energy=         0.232378
 Sum of electronic and zero-point Energies=           -727.612086
 Sum of electronic and thermal Energies=              -727.596904
 Sum of electronic and thermal Enthalpies=            -727.595960
 Sum of electronic and thermal Free Energies=         -727.657689

                     E (Thermal)             CV                S
                      KCal/Mol        Cal/Mol-Kelvin    Cal/Mol-Kelvin
 Total                  183.962             57.853            129.920
 Electronic               0.000              0.000              0.000
 Translational            0.889              2.981             42.176
 Rotational               0.889              2.981             33.593
 Vibrational            182.185             51.892             54.151
 Vibration     1          0.593              1.986              7.016
 Vibration     2          0.593              1.985              6.306
 Vibration     3          0.594              1.984              5.768
 Vibration     4          0.598              1.970              4.264
 Vibration     5          0.602              1.956              3.638
 Vibration     6          0.605              1.945              3.353
 Vibration     7          0.625              1.881              2.446
 Vibration     8          0.642              1.828              2.056
 Vibration     9          0.645              1.817              1.997
 Vibration    10          0.651              1.799              1.900
 Vibration    11          0.668              1.748              1.670
 Vibration    12          0.684              1.697              1.490
 Vibration    13          0.733              1.560              1.133
 Vibration    14          0.751              1.511              1.035
 Vibration    15          0.753              1.503              1.021
 Vibration    16          0.757              1.494              1.005
 Vibration    17          0.817              1.342              0.770
 Vibration    18          0.823              1.326              0.749
 Vibration    19          0.862              1.234              0.640
 Vibration    20          0.917              1.116              0.522
 Vibration    21          0.927              1.094              0.503
 Vibration    22          0.967              1.015              0.436

                           ! Non-Optimized Parameters !
 Normal termination of Gaussian 16 at Mon Dec 14 13:24:11 2020.

 ----------------------------------------------------------------------
 # B3LYP/6-311++G(d,p) empiricaldispersion=gd3bj scf=xqc pop=npa geom=c
 heck
 ----------------------------------------------------------------------

 ------------------------------------
 CID_834400_JID_7581_Energie_neutraal
 ------------------------------------
 Structure from the checkpoint file:  "JID_7581.chk"
 Charge =  0 Multiplicity = 1

 SCF Done:  E(RB3LYP) =  -728.085870555     A.U. after   15 cycles
 Normal termination of Gaussian 16 at Mon Dec 14 13:29:29 2020.

 ----------------------------------------------------------------------
 # B3LYP/6-311++G(d,p) empiricaldispersion=gd3bj scf=xqc pop=npa geom=c
 heck
 ----------------------------------------------------------------------

 ----------------------------------
 CID_834400_JID_7581_Energie_kation
 ----------------------------------
 Structure from the checkpoint file:  "JID_7581.chk"
 Charge =  1 Multiplicity = 2

 SCF Done:  E(UB3LYP) =  -727.798738389     A.U. after   24 cycles
 Normal termination of Gaussian 16 at Mon Dec 14 13:41:28 2020.
 Gaussian 16:  ES64L-G16RevA.03 25-Dec-2016

 ----------------------------------------------------------------------
 # B3LYP/6-311++G(d,p) empiricaldispersion=gd3bj scf=xqc pop=npa geom=c
 heck
 ----------------------------------------------------------------------

 ---------------------------------
 CID_834400_JID_7581_Energie_anion
 ---------------------------------
 Structure from the checkpoint file:  "JID_7581.chk"
 Charge = -1 Multiplicity = 2

                         Standard orientation:
 ---------------------------------------------------------------------
 Center     Atomic      Atomic             Coordinates (Angstroms)
 Number     Number       Type             X           Y           Z
 ---------------------------------------------------------------------
      1          6           0       -3.451190    2.922874   -0.092784
      2          8           0       -4.128735    1.710027    0.185867
      3          6           0       -3.420612    0.545571    0.094207
      4          6           0       -4.134077   -0.624852    0.382827
      5          6           0       -3.489660   -1.855017    0.320866
      6          6           0       -2.140158   -1.939074   -0.029947
      7          6           0       -1.426830   -0.774156   -0.320308
      8          6           0       -2.067685    0.469364   -0.252326
      9          6           0        0.030100   -0.841773   -0.722911
     10          7           0        0.762983   -1.797477    0.107937
     11          6           0        2.184572   -1.920168   -0.225332
     12          6           0        2.984802   -0.641230   -0.062235
     13          6           0        3.400811   -0.210288    1.202050
     14          6           0        4.070975    1.005179    1.323089
     15          7           0        4.348603    1.809591    0.287941
     16          6           0        3.950337    1.393823   -0.919842
     17          6           0        3.275677    0.193142   -1.144512
     18          1           0       -4.189972    3.715941    0.034832
     19          1           0       -3.069086    2.944416   -1.122097
     20          1           0       -2.617046    3.088367    0.602011
     21          1           0       -5.181252   -0.541512    0.654862
     22          1           0       -4.046413   -2.760116    0.548156
     23          1           0       -1.631037   -2.895901   -0.070150
     24          1           0       -1.498038    1.366263   -0.468830
     25          1           0        0.115471   -1.192450   -1.762403
     26          1           0        0.459251    0.174536   -0.706713
     27          1           0        0.661091   -1.529552    1.086030
     28          1           0        2.606657   -2.704285    0.413686
     29          1           0        2.254507   -2.270907   -1.262071
     30          1           0        3.209546   -0.817216    2.084111
     31          1           0        4.406566    1.351265    2.299273
     32          1           0        4.183212    2.054729   -1.753255
     33          1           0        2.982945   -0.088970   -2.152573
 ---------------------------------------------------------------------

 SCF Done:  E(UB3LYP) =  -728.077803004     A.U. after   33 cycles
 SCF Done:  E(UB3LYP) =  -728.077803004     a.u. after    1 cycles

 The electronic state is 2-A.
 Alpha  occ. eigenvalues --  -19.06239 -14.20156 -14.17391 -10.14399 -10.12627
 Alpha  occ. eigenvalues --  -10.10007 -10.09492 -10.09024 -10.08758 -10.08473
 Alpha  occ. eigenvalues --  -10.08225 -10.07963 -10.07908 -10.07312 -10.06017
 Alpha  occ. eigenvalues --  -10.05895 -10.05843  -0.97821  -0.82013  -0.81168
 Alpha  occ. eigenvalues --   -0.76357  -0.69631  -0.67384  -0.65973  -0.64070
 Alpha  occ. eigenvalues --   -0.61307  -0.59163  -0.55221  -0.51366  -0.51066
 Alpha  occ. eigenvalues --   -0.49248  -0.48453  -0.44144  -0.40453  -0.40116
 Alpha  occ. eigenvalues --   -0.39158  -0.38168  -0.37702  -0.36433  -0.35817
 Alpha  occ. eigenvalues --   -0.35531  -0.33928  -0.32752  -0.31848  -0.31090
 Alpha  occ. eigenvalues --   -0.30415  -0.28904  -0.28052  -0.27627  -0.27315
 Alpha  occ. eigenvalues --   -0.26916  -0.26447  -0.23893  -0.23564  -0.22864
 Alpha  occ. eigenvalues --   -0.16971  -0.16390  -0.15033  -0.14216  -0.13522
 Alpha  occ. eigenvalues --   -0.12639   0.04509
 Alpha virt. eigenvalues --    0.05760   0.07205   0.07257   0.07570   0.08213
 Alpha virt. eigenvalues --    0.08584   0.08835   0.09177   0.09382   0.09959
 Alpha virt. eigenvalues --    0.10319   0.10427   0.10941   0.11488   0.12615

  Beta  occ. eigenvalues --  -19.06233 -14.20105 -14.17051 -10.14403 -10.12577
  Beta  occ. eigenvalues --  -10.10009 -10.09506 -10.09012 -10.08751 -10.08466
  Beta  occ. eigenvalues --  -10.08171 -10.07946 -10.07890 -10.07311 -10.06035
  Beta  occ. eigenvalues --  -10.05853 -10.05549  -0.97807  -0.81684  -0.80942
  Beta  occ. eigenvalues --   -0.76323  -0.69285  -0.67237  -0.65943  -0.63890
  Beta  occ. eigenvalues --   -0.61237  -0.59092  -0.55069  -0.51306  -0.51014
  Beta  occ. eigenvalues --   -0.49155  -0.48174  -0.44113  -0.40385  -0.40037
  Beta  occ. eigenvalues --   -0.39132  -0.38056  -0.37671  -0.36321  -0.35745
  Beta  occ. eigenvalues --   -0.35377  -0.33831  -0.32696  -0.31790  -0.31052
  Beta  occ. eigenvalues --   -0.30291  -0.28809  -0.27937  -0.27265  -0.27167
  Beta  occ. eigenvalues --   -0.26560  -0.26372  -0.23805  -0.23517  -0.22829
  Beta  occ. eigenvalues --   -0.16303  -0.15598  -0.14565  -0.13873  -0.13363
  Beta  occ. eigenvalues --   -0.12456
  Beta virt. eigenvalues --    0.06596   0.07176   0.07383   0.07542   0.08180
  Beta virt. eigenvalues --    0.08600   0.08752   0.09176   0.09478   0.09680
  Beta virt. eigenvalues --    0.10266   0.10361   0.10794   0.10970   0.11433

 Mulliken charges and spin densities:
               1          2
     1  C    0.966127  -1.284361
     2  O   -0.206596   0.050165
     3  C   -1.201512   0.503324
     4  C   -0.533272   0.183006
     5  C   -0.321053  -0.014758
     6  C   -0.215298  -0.149300
     7  C    0.688347   0.074557
     8  C    1.029835  -0.604503
     9  C   -0.494638  -0.163365
    10  N    0.131747  -0.050469
    11  C   -0.486410  -0.464028
    12  C    0.232955   0.327159
    13  C    0.214548   0.042234
    14  C   -0.532068   0.002763
    15  N   -0.127133   0.133911
    16  C   -0.586651   0.057932
    17  C    0.325643   0.024547
    18  H   -0.917440   1.103968
    19  H   -0.267617   0.423848
    20  H   -0.142036   0.300759
    21  H    0.103797   0.061127
    22  H    0.144761  -0.000145
    23  H    0.113958   0.084317
    24  H    0.335766  -0.239306
    25  H    0.130059  -0.000948
    26  H    0.040574   0.105964
    27  H    0.184615  -0.002802
    28  H   -0.111818   0.294874
    29  H    0.038884   0.103077
    30  H    0.066318   0.082199
    31  H    0.132113  -0.003737
    32  H    0.128288   0.000982
    33  H    0.135206   0.017009
 Sum of Mulliken charges =  -1.00000   1.00000

 Dipole moment (field-independent basis, Debye):
    X=             -0.7911    Y=             -6.7848    Z=             -0.2760  Tot=              6.8363
 Quadrupole moment (field-independent basis, Debye-Ang):
   XX=           -194.7571   YY=           -159.6659   ZZ=           -115.5603
   XY=             17.7456   XZ=             -4.3123   YZ=              0.1689

 Summary of Natural Population Analysis:

                                       Natural Population
                Natural  -----------------------------------------------
    Atom  No    Charge         Core      Valence    Rydberg      Total
 -----------------------------------------------------------------------
      C    1   -0.10127      0.99960     2.09240    0.00927     3.10127
      O    2   -0.27362      0.99986     3.26376    0.01000     4.27362
      C    3    0.16301      0.99938     1.82424    0.01336     2.83699
      C    4   -0.12578      0.99953     2.11619    0.01006     3.12578
      C    5   -0.09430      0.99958     2.08591    0.00881     3.09430
      C    6   -0.11889      0.99951     2.10937    0.01001     3.11889
      C    7   -0.00743      0.99952     1.99849    0.00942     3.00743
      C    8   -0.14225      0.99947     2.13444    0.00834     3.14225
      C    9   -0.09498      0.99959     2.08549    0.00990     3.09498
      N   10   -0.32853      0.99975     2.81791    0.01086     3.82853
      C   11   -0.09681      0.99959     2.08356    0.01367     3.09681
      C   12    0.03457      0.99950     1.95650    0.00943     2.96543
      C   13   -0.12669      0.99951     2.11711    0.01007     3.12669
      C   14    0.02260      0.99960     1.96199    0.01581     2.97740
      N   15   -0.20007      0.99972     2.68901    0.01134     3.70007
      C   16    0.03128      0.99960     1.95303    0.01609     2.96872
      C   17   -0.13251      0.99951     2.12384    0.00916     3.13251
      H   18    0.09699      0.00000     0.40076    0.00225     0.40301
      H   19    0.08496      0.00000     0.41339    0.00166     0.41504
      H   20    0.08592      0.00000     0.41256    0.00151     0.41408
      H   21    0.10418      0.00000     0.39491    0.00091     0.39582
      H   22    0.09654      0.00000     0.40272    0.00074     0.40346
      H   23    0.10813      0.00000     0.39063    0.00124     0.39187
      H   24    0.10833      0.00000     0.39050    0.00117     0.39167
      H   25    0.09490      0.00000     0.40422    0.00088     0.40510
      H   26    0.09104      0.00000     0.40686    0.00210     0.40896
      H   27    0.17150      0.00000     0.32658    0.00192     0.32850
      H   28    0.09871      0.00000     0.39998    0.00131     0.40129
      H   29    0.09195      0.00000     0.40711    0.00094     0.40805
      H   30    0.09604      0.00000     0.40299    0.00097     0.40396
      H   31    0.08290      0.00000     0.41607    0.00103     0.41710
      H   32    0.08280      0.00000     0.41617    0.00103     0.41720
      H   33    0.09675      0.00000     0.40242    0.00082     0.40325
 =======================================================================
   * Total *    0.00000     16.99281    43.80113    0.20607    61.00000

 Normal termination of Gaussian 16 at Mon Dec 14 13:58:51 2020.
