 Gaussian 16, Revision A.03,

 -----------------------------------------------------------
 # opt freq B3LYP/6-31G(d) empiricaldispersion=gd3bj scf=xqc
 -----------------------------------------------------------

 -------------------------------
 CID_103102702_JID_2720_neutraal
 -------------------------------
 Symbolic Z-matrix:
 Charge =  0 Multiplicity = 1

 SCF Done:  E(RB3LYP) =  -591.711281159     A.U. after   14 cycles
 SCF Done:  E(RB3LYP) =  -591.715442608     A.U. after   12 cycles
 SCF Done:  E(RB3LYP) =  -591.714276632     A.U. after   13 cycles
 SCF Done:  E(RB3LYP) =  -591.714747144     A.U. after   12 cycles
 SCF Done:  E(RB3LYP) =  -591.716206737     A.U. after    9 cycles
 SCF Done:  E(RB3LYP) =  -591.716579954     A.U. after   12 cycles
 SCF Done:  E(RB3LYP) =  -591.716622729     A.U. after   10 cycles
 SCF Done:  E(RB3LYP) =  -591.716716025     A.U. after   11 cycles
 SCF Done:  E(RB3LYP) =  -591.716750621     A.U. after   10 cycles
 SCF Done:  E(RB3LYP) =  -591.716755515     A.U. after   10 cycles
 SCF Done:  E(RB3LYP) =  -591.716761927     A.U. after    8 cycles
 SCF Done:  E(RB3LYP) =  -591.716763183     A.U. after    8 cycles
 SCF Done:  E(RB3LYP) =  -591.716763805     A.U. after    8 cycles
 SCF Done:  E(RB3LYP) =  -591.716764045     A.U. after    7 cycles
 Optimization completed.
    -- Stationary point found.
 Normal termination of Gaussian 16 at Wed Dec  9 17:57:02 2020.

 --------------------------------------------------------------------
 #N Geom=AllCheck Guess=TCheck SCRF=Check GenChk RB3LYP/6-31G(d) Freq
 --------------------------------------------------------------------

 Structure from the checkpoint file:  "JID_2720.chk"
 -------------------------------
 CID_103102702_JID_2720_neutraal
 -------------------------------
 Charge =  0 Multiplicity = 1

 SCF Done:  E(RB3LYP) =  -591.716764045     A.U. after    1 cycles

  Exact polarizability: 109.246   0.654  99.123   0.609   0.780  90.996
 Approx polarizability: 139.373   9.187 135.532   5.638   7.017 142.672

                      1                      2                      3
                      A                      A                      A
 Frequencies --     39.7210                57.5458                75.3280
 Red. masses --      5.0035                 4.9904                 3.3714
 Frc consts  --      0.0047                 0.0097                 0.0113
 IR Inten    --      3.7525                 5.2249                 3.4004

                      4                      5                      6
                      A                      A                      A
 Frequencies --    101.5261               128.0845               156.7546
 Red. masses --      5.1848                 2.2244                 3.3792
 Frc consts  --      0.0315                 0.0215                 0.0489
 IR Inten    --      0.4700                 0.8621                 0.7386

                      7                      8                      9
                      A                      A                      A
 Frequencies --    163.2804               227.8910               257.9975
 Red. masses --      2.7424                 2.1964                 2.0579
 Frc consts  --      0.0431                 0.0672                 0.0807
 IR Inten    --      2.1666                 6.5207                 7.3080

                     10                     11                     12
                      A                      A                      A
 Frequencies --    277.4992               285.4154               309.0861
 Red. masses --      1.8421                 1.1580                 2.7117
 Frc consts  --      0.0836                 0.0556                 0.1526
 IR Inten    --     10.7595                 1.4348                 2.4156

                     13                     14                     15
                      A                      A                      A
 Frequencies --    334.6312               356.0530               394.1174
 Red. masses --      4.1056                 2.8589                 2.3520
 Frc consts  --      0.2709                 0.2135                 0.2152
 IR Inten    --      2.7356                 3.3327                 9.6729

                     16                     17                     18
                      A                      A                      A
 Frequencies --    426.1670               456.1607               482.2046
 Red. masses --      1.5265                 1.8680                 1.9622
 Frc consts  --      0.1633                 0.2290                 0.2688
 IR Inten    --    103.7978               113.6261                 0.4405

                     19                     20                     21
                      A                      A                      A
 Frequencies --    541.6290               570.7059               591.6693
 Red. masses --      2.9653                 2.3134                 3.3570
 Frc consts  --      0.5125                 0.4439                 0.6924
 IR Inten    --     10.7059                38.1515                 2.1405

                     22                     23                     24
                      A                      A                      A
 Frequencies --    616.4141               655.2628               715.6898
 Red. masses --      1.1582                 2.2048                 1.2456
 Frc consts  --      0.2593                 0.5578                 0.3759
 IR Inten    --    108.4582                32.7705                11.5519

                     25                     26                     27
                      A                      A                      A
 Frequencies --    811.9067               825.4558               857.8009
 Red. masses --      2.3828                 1.1875                 2.6302
 Frc consts  --      0.9254                 0.4767                 1.1403
 IR Inten    --      3.6103                 2.4494                24.5295

                     28                     29                     30
                      A                      A                      A
 Frequencies --    868.2404               885.0815               959.3248
 Red. masses --      1.4920                 3.1083                 1.7658
 Frc consts  --      0.6627                 1.4346                 0.9575
 IR Inten    --     82.2462                 3.1228                51.1953

                     31                     32                     33
                      A                      A                      A
 Frequencies --    972.5583               992.1383              1024.6817
 Red. masses --      2.6620                 2.0758                 2.0906
 Frc consts  --      1.4835                 1.2039                 1.2933
 IR Inten    --     39.9312                 2.7550                11.6695

                     34                     35                     36
                      A                      A                      A
 Frequencies --   1058.7691              1078.4485              1092.9669
 Red. masses --      2.1554                 2.3164                 2.3830
 Frc consts  --      1.4235                 1.5873                 1.6772
 IR Inten    --      3.9745                58.6955                 9.3019

                     37                     38                     39
                      A                      A                      A
 Frequencies --   1115.6487              1121.1693              1143.2672
 Red. masses --      1.9612                 2.3201                 2.1398
 Frc consts  --      1.4382                 1.7183                 1.6479
 IR Inten    --      0.2308                28.8304                53.8790

                     40                     41                     42
                      A                      A                      A
 Frequencies --   1171.2922              1200.3936              1239.4960
 Red. masses --      1.7139                 1.5327                 1.8618
 Frc consts  --      1.3853                 1.3012                 1.6853
 IR Inten    --     13.0278                14.9143                12.3512

                     43                     44                     45
                      A                      A                      A
 Frequencies --   1275.5750              1287.8185              1315.9413
 Red. masses --      1.2938                 1.3092                 1.4753
 Frc consts  --      1.2403                 1.2793                 1.5052
 IR Inten    --     17.9068                16.1155                33.2279

                     46                     47                     48
                      A                      A                      A
 Frequencies --   1352.3342              1360.1460              1363.9241
 Red. masses --      1.1972                 1.2520                 2.0337
 Frc consts  --      1.2900                 1.3647                 2.2290
 IR Inten    --      9.3845                13.7286                46.4804

                     49                     50                     51
                      A                      A                      A
 Frequencies --   1372.8568              1387.5831              1409.6764
 Red. masses --      1.4805                 1.4165                 1.3870
 Frc consts  --      1.6441                 1.6069                 1.6239
 IR Inten    --     15.3731                34.7109                 4.4956

                     52                     53                     54
                      A                      A                      A
 Frequencies --   1427.0636              1436.8235              1456.2153
 Red. masses --      1.3362                 1.2983                 1.3479
 Frc consts  --      1.6032                 1.5792                 1.6841
 IR Inten    --      5.9253                 1.5916                14.7615

                     55                     56                     57
                      A                      A                      A
 Frequencies --   1472.7906              1497.4479              1520.1032
 Red. masses --      1.3030                 1.0923                 1.0670
 Frc consts  --      1.6652                 1.4430                 1.4526
 IR Inten    --    102.6434                 8.8285                 3.6765

                     58                     59                     60
                      A                      A                      A
 Frequencies --   1526.7241              1531.4652              1540.1531
 Red. masses --      1.0612                 1.0552                 1.0819
 Frc consts  --      1.4573                 1.4582                 1.5121
 IR Inten    --      8.2554                 4.7981                 9.6328

                     61                     62                     63
                      A                      A                      A
 Frequencies --   1543.9825              1605.5721              1695.2340
 Red. masses --      1.0849                 1.3088                 1.0886
 Frc consts  --      1.5237                 1.9879                 1.8432
 IR Inten    --      1.1096               143.8917                33.4181

                     64                     65                     66
                      A                      A                      A
 Frequencies --   1816.4767              2944.0890              2987.4228
 Red. masses --      9.5711                 1.0733                 1.0723
 Frc consts  --     18.6068                 5.4812                 5.6386
 IR Inten    --    309.4926                69.5042                46.1718

                     67                     68                     69
                      A                      A                      A
 Frequencies --   3024.4139              3046.9172              3059.1710
 Red. masses --      1.0688                 1.0682                 1.0804
 Frc consts  --      5.7600                 5.8426                 5.9573
 IR Inten    --     30.6636                 9.1815                55.7506

                     70                     71                     72
                      A                      A                      A
 Frequencies --   3060.6605              3084.5669              3098.9789
 Red. masses --      1.0365                 1.0894                 1.0936
 Frc consts  --      5.7205                 6.1070                 6.1880
 IR Inten    --     25.5405                10.8877                34.3696

                     73                     74                     75
                      A                      A                      A
 Frequencies --   3102.7871              3114.4041              3128.2650
 Red. masses --      1.0998                 1.0911                 1.1016
 Frc consts  --      6.2383                 6.2357                 6.3516
 IR Inten    --     15.3659                25.5948                35.2428

                     76                     77                     78
                      A                      A                      A
 Frequencies --   3135.8104              3490.6113              3555.0055
 Red. masses --      1.1028                 1.0507                 1.0456
 Frc consts  --      6.3891                 7.5425                 7.7853
 IR Inten    --     30.4320                 0.8752                30.3027

                     79                     80                     81
                      A                      A                      A
 Frequencies --   3577.2569              3590.6588              3694.3828
 Red. masses --      1.0924                 1.0647                 1.1032
 Frc consts  --      8.2365                 8.0875                 8.8712
 IR Inten    --      0.7958                84.5515                71.6925

 - Thermochemistry -
 -------------------
 Temperature   298.150 Kelvin.  Pressure   1.00000 Atm.
 Atom     1 has atomic number  6 and mass  12.00000

 Molecular mass:   175.13208 amu.
 Principal axes and moments of inertia in atomic units:
                           1         2         3
     Eigenvalues --  1469.147433030.615513907.68689
           X            0.99820  -0.05941  -0.00807
           Y            0.05931   0.99816  -0.01234
           Z            0.00878   0.01184   0.99989
 This molecule is an asymmetric top.
 Rotational symmetry number  1.
 Warning -- assumption of classical behavior for rotation
           may cause significant error
 Rotational temperatures (Kelvin)      0.05896     0.02858     0.02217
 Rotational constants (GHZ):           1.22843     0.59550     0.46184
 Zero-point vibrational energy     679064.9 (Joules/Mol)
                                  162.30040 (Kcal/Mol)
 Warning -- explicit consideration of  22 degrees of freedom as
           vibrations may cause significant error
 Vibrational temperatures:     57.15    82.80   108.38   146.07   184.29
          (Kelvin)            225.53   234.92   327.88   371.20   399.26
                              410.65   444.71   481.46   512.28   567.05
                              613.16   656.31   693.78   779.28   821.12
                              851.28   886.88   942.78  1029.72  1168.15
                             1187.65  1234.18  1249.20  1273.43  1380.25
                             1399.29  1427.47  1474.29  1523.33  1551.65
                             1572.54  1605.17  1613.11  1644.91  1685.23
                             1727.10  1783.36  1835.27  1852.88  1893.35
                             1945.71  1956.95  1962.38  1975.23  1996.42
                             2028.21  2053.23  2067.27  2095.17  2119.02
                             2154.49  2187.09  2196.62  2203.44  2215.94
                             2221.45  2310.06  2439.06  2613.50  4235.89
                             4298.24  4351.46  4383.83  4401.46  4403.61
                             4438.00  4458.74  4464.22  4480.93  4500.88
                             4511.73  5022.21  5114.86  5146.87  5166.16
                             5315.39

 Zero-point correction=                           0.258642 (Hartree/Particle)
 Thermal correction to Energy=                    0.272470
 Thermal correction to Enthalpy=                  0.273414
 Thermal correction to Gibbs Free Energy=         0.218138
 Sum of electronic and zero-point Energies=           -591.458122
 Sum of electronic and thermal Energies=              -591.444294
 Sum of electronic and thermal Enthalpies=            -591.443350
 Sum of electronic and thermal Free Energies=         -591.498626

                     E (Thermal)             CV                S
                      KCal/Mol        Cal/Mol-Kelvin    Cal/Mol-Kelvin
 Total                  170.977             51.631            116.339
 Electronic               0.000              0.000              0.000
 Translational            0.889              2.981             41.388
 Rotational               0.889              2.981             31.232
 Vibrational            169.200             45.669             43.719
 Vibration     1          0.594              1.981              5.273
 Vibration     2          0.596              1.974              4.540
 Vibration     3          0.599              1.965              4.009
 Vibration     4          0.604              1.948              3.425
 Vibration     5          0.611              1.925              2.975
 Vibration     6          0.620              1.895              2.589
 Vibration     7          0.623              1.888              2.511
 Vibration     8          0.651              1.798              1.895
 Vibration     9          0.667              1.749              1.675
 Vibration    10          0.678              1.715              1.549
 Vibration    11          0.683              1.701              1.501
 Vibration    12          0.698              1.656              1.367
 Vibration    13          0.716              1.606              1.238
 Vibration    14          0.732              1.563              1.139
 Vibration    15          0.761              1.483              0.985
 Vibration    16          0.788              1.413              0.871
 Vibration    17          0.814              1.347              0.777
 Vibration    18          0.838              1.290              0.704
 Vibration    19          0.897              1.158              0.562
 Vibration    20          0.927              1.095              0.503
 Vibration    21          0.949              1.050              0.464
 Vibration    22          0.976              0.997              0.422

                           ! Non-Optimized Parameters !
 Normal termination of Gaussian 16 at Wed Dec  9 18:05:24 2020.

 ----------------------------------------------------------------------
 # B3LYP/6-311++G(d,p) empiricaldispersion=gd3bj scf=xqc pop=npa geom=c
 heck
 ----------------------------------------------------------------------

 ---------------------------------------
 CID_103102702_JID_2720_Energie_neutraal
 ---------------------------------------
 Structure from the checkpoint file:  "JID_2720.chk"
 Charge =  0 Multiplicity = 1

 SCF Done:  E(RB3LYP) =  -591.916526660     A.U. after   14 cycles
 Normal termination of Gaussian 16 at Wed Dec  9 18:09:27 2020.

 ----------------------------------------------------------------------
 # B3LYP/6-311++G(d,p) empiricaldispersion=gd3bj scf=xqc pop=npa geom=c
 heck
 ----------------------------------------------------------------------

 -------------------------------------
 CID_103102702_JID_2720_Energie_kation
 -------------------------------------
 Structure from the checkpoint file:  "JID_2720.chk"
 Charge =  1 Multiplicity = 2

 SCF Done:  E(UB3LYP) =  -591.610185954     A.U. after   20 cycles
 Normal termination of Gaussian 16 at Wed Dec  9 18:17:27 2020.
 Gaussian 16:  ES64L-G16RevA.03 25-Dec-2016

 ----------------------------------------------------------------------
 # B3LYP/6-311++G(d,p) empiricaldispersion=gd3bj scf=xqc pop=npa geom=c
 heck
 ----------------------------------------------------------------------

 ------------------------------------
 CID_103102702_JID_2720_Energie_anion
 ------------------------------------
 Structure from the checkpoint file:  "JID_2720.chk"
 Charge = -1 Multiplicity = 2

                         Standard orientation:
 ---------------------------------------------------------------------
 Center     Atomic      Atomic             Coordinates (Angstroms)
 Number     Number       Type             X           Y           Z
 ---------------------------------------------------------------------
      1          6           0       -2.742148    1.750307    0.228708
      2          6           0       -1.327487    1.980260   -0.298299
      3          7           0       -0.437471    0.820861   -0.129549
      4          6           0        0.967722    1.145546   -0.418510
      5          6           0        1.967269    0.516975    0.570533
      6          6           0        2.053977   -1.015738    0.528263
      7          7           0        2.715877   -1.413183   -0.726673
      8          8           0        3.256311    1.053157    0.322704
      9          6           0       -0.933141   -0.350913   -0.852008
     10          6           0       -1.792673   -1.306475   -0.014846
     11          8           0       -2.555271   -2.106419   -0.536306
     12          7           0       -1.555342   -1.223805    1.324771
     13          1           0       -3.258217    0.944838   -0.303434
     14          1           0       -3.333503    2.662796    0.097609
     15          1           0       -2.729660    1.499724    1.294159
     16          1           0       -1.380583    2.279087   -1.362683
     17          1           0       -0.877650    2.817535    0.245132
     18          1           0        1.246579    0.883980   -1.453084
     19          1           0        1.105509    2.226795   -0.335682
     20          1           0        1.664654    0.822995    1.579908
     21          1           0        2.706277   -1.330049    1.349492
     22          1           0        1.071102   -1.475771    0.694861
     23          1           0        3.083417   -2.358073   -0.654615
     24          1           0        2.056751   -1.415476   -1.502589
     25          1           0        3.640538    0.434728   -0.331898
     26          1           0       -1.518523   -0.084529   -1.744591
     27          1           0       -0.087320   -0.947014   -1.209789
     28          1           0       -1.064364   -0.400896    1.652432
     29          1           0       -2.155877   -1.741459    1.950702
 ---------------------------------------------------------------------

 SCF Done:  E(UB3LYP) =  -591.906514455     A.U. after   30 cycles

 The electronic state is 2-A.
 Alpha  occ. eigenvalues --  -19.01266 -18.99191 -14.22971 -14.22222 -14.20506
 Alpha  occ. eigenvalues --  -10.17520 -10.11799 -10.10958 -10.10492 -10.09766
 Alpha  occ. eigenvalues --  -10.09426 -10.06748  -0.94056  -0.92222  -0.84069
 Alpha  occ. eigenvalues --   -0.80339  -0.78818  -0.67124  -0.65307  -0.61257
 Alpha  occ. eigenvalues --   -0.56462  -0.51290  -0.48900  -0.48086  -0.44358
 Alpha  occ. eigenvalues --   -0.42088  -0.40808  -0.39213  -0.37520  -0.36995
 Alpha  occ. eigenvalues --   -0.35999  -0.34412  -0.33369  -0.32459  -0.31659
 Alpha  occ. eigenvalues --   -0.30303  -0.29947  -0.28194  -0.27937  -0.26476
 Alpha  occ. eigenvalues --   -0.25360  -0.25218  -0.22500  -0.18509  -0.17784
 Alpha  occ. eigenvalues --   -0.16785  -0.15821  -0.13311   0.04183
 Alpha virt. eigenvalues --    0.06049   0.06880   0.08190   0.08683   0.09254
 Alpha virt. eigenvalues --    0.09808   0.10206   0.10766   0.11620   0.12144
 Alpha virt. eigenvalues --    0.12423   0.12938   0.13600   0.14041   0.14629

  Beta  occ. eigenvalues --  -19.01259 -18.99187 -14.22936 -14.22208 -14.20440
  Beta  occ. eigenvalues --  -10.17515 -10.11793 -10.10935 -10.10472 -10.09754
  Beta  occ. eigenvalues --  -10.09403 -10.06716  -0.94045  -0.92204  -0.84041
  Beta  occ. eigenvalues --   -0.80290  -0.78712  -0.67086  -0.65262  -0.61189
  Beta  occ. eigenvalues --   -0.56387  -0.51222  -0.48851  -0.48016  -0.44326
  Beta  occ. eigenvalues --   -0.42026  -0.40759  -0.39179  -0.37471  -0.36946
  Beta  occ. eigenvalues --   -0.35962  -0.34379  -0.33322  -0.32429  -0.31626
  Beta  occ. eigenvalues --   -0.30270  -0.29909  -0.28163  -0.27879  -0.26437
  Beta  occ. eigenvalues --   -0.25326  -0.25188  -0.22472  -0.18482  -0.17759
  Beta  occ. eigenvalues --   -0.16749  -0.15781  -0.13246
  Beta virt. eigenvalues --    0.06580   0.07289   0.07669   0.08719   0.09203
  Beta virt. eigenvalues --    0.09810   0.10024   0.10516   0.11190   0.11774
  Beta virt. eigenvalues --    0.12538   0.12881   0.13127   0.13925   0.14310

 Mulliken charges and spin densities:
               1          2
     1  C    0.450510  -1.027014
     2  C    0.124716  -0.310349
     3  N    0.026431   0.140706
     4  C    0.579351  -0.990976
     5  C   -1.195982   0.879821
     6  C    1.107791  -1.426186
     7  N   -0.381199  -0.052929
     8  O   -0.224940   0.021479
     9  C    0.114543  -0.493210
    10  C    0.207898  -0.205257
    11  O   -0.352653   0.033028
    12  N   -0.393383   0.036597
    13  H    0.125528   0.050371
    14  H   -0.386390   0.532657
    15  H   -0.144336   0.300757
    16  H    0.027131   0.103348
    17  H   -0.258958   0.406046
    18  H   -0.045563   0.223642
    19  H    0.100155   0.053473
    20  H   -0.163985   0.368828
    21  H   -0.350729   0.567052
    22  H   -0.023976   0.162462
    23  H   -0.322636   0.601899
    24  H   -0.019237   0.236816
    25  H    0.302824  -0.025433
    26  H    0.050757   0.146413
    27  H   -0.004604   0.153777
    28  H    0.246211  -0.008724
    29  H   -0.195273   0.520905
 Sum of Mulliken charges =  -1.00000   1.00000

 Dipole moment (field-independent basis, Debye):
    X=             -0.5318    Y=              2.6052    Z=             -1.3753  Tot=              2.9935
 Quadrupole moment (field-independent basis, Debye-Ang):
   XX=           -140.4588   YY=           -128.9817   ZZ=           -106.6725
   XY=              4.1216   XZ=              1.0403   YZ=             -5.5600

 Summary of Natural Population Analysis:

                                       Natural Population
                Natural  -----------------------------------------------
    Atom  No    Charge         Core      Valence    Rydberg      Total
 -----------------------------------------------------------------------
      C    1   -0.29335      0.99966     2.28819    0.00550     3.29335
      C    2   -0.07741      0.99962     2.06686    0.01093     3.07741
      N    3   -0.29775      0.99971     2.78340    0.01464     3.79775
      C    4   -0.09008      0.99957     2.07933    0.01118     3.09008
      C    5    0.05636      0.99957     1.92825    0.01583     2.94364
      C    6   -0.10821      0.99961     2.09675    0.01185     3.10821
      N    7   -0.43840      0.99977     2.92735    0.01129     3.93840
      O    8   -0.38064      0.99990     3.37413    0.00661     4.38064
      C    9   -0.12982      0.99956     2.11900    0.01126     3.12982
      C   10    0.33258      0.99970     1.64300    0.02473     2.66742
      O   11   -0.32352      0.99988     3.31774    0.00591     4.32352
      N   12   -0.40461      0.99970     2.89663    0.00828     3.90461
      H   13    0.09985      0.00000     0.39891    0.00124     0.40015
      H   14    0.10204      0.00000     0.39702    0.00094     0.39796
      H   15    0.10163      0.00000     0.39665    0.00172     0.39837
      H   16    0.07863      0.00000     0.42019    0.00118     0.42137
      H   17    0.09686      0.00000     0.40156    0.00158     0.40314
      H   18    0.08505      0.00000     0.41353    0.00142     0.41495
      H   19    0.10173      0.00000     0.39668    0.00159     0.39827
      H   20    0.08662      0.00000     0.41147    0.00191     0.41338
      H   21    0.09709      0.00000     0.40148    0.00143     0.40291
      H   22    0.09237      0.00000     0.40473    0.00289     0.40763
      H   23    0.18738      0.00000     0.30769    0.00493     0.31262
      H   24    0.17697      0.00000     0.32052    0.00251     0.32303
      H   25    0.23902      0.00000     0.25749    0.00349     0.26098
      H   26    0.10081      0.00000     0.39795    0.00124     0.39919
      H   27    0.10884      0.00000     0.38928    0.00188     0.39116
      H   28    0.20371      0.00000     0.29273    0.00356     0.29629
      H   29    0.19626      0.00000     0.30153    0.00221     0.30374
 =======================================================================
   * Total *    0.00000     11.99623    35.83003    0.17374    48.00000

 Normal termination of Gaussian 16 at Wed Dec  9 18:28:18 2020.
