 Gaussian 16, Revision A.03,

 -----------------------------------------------------------
 # opt freq B3LYP/6-31G(d) empiricaldispersion=gd3bj scf=xqc
 -----------------------------------------------------------

 -------------------------------
 CID_113483228_JID_8008_neutraal
 -------------------------------
 Symbolic Z-matrix:
 Charge =  0 Multiplicity = 1

 SCF Done:  E(RB3LYP) =  -1253.46081603     A.U. after   15 cycles
 SCF Done:  E(RB3LYP) =  -1253.43068114     A.U. after   14 cycles
 SCF Done:  E(RB3LYP) =  -1253.47229458     A.U. after   12 cycles
 SCF Done:  E(RB3LYP) =  -1253.47493357     A.U. after   15 cycles
 SCF Done:  E(RB3LYP) =  -1253.47734363     A.U. after   13 cycles
 SCF Done:  E(RB3LYP) =  -1253.47873175     A.U. after   13 cycles
 SCF Done:  E(RB3LYP) =  -1253.48085562     A.U. after   13 cycles
 SCF Done:  E(RB3LYP) =  -1253.48176809     A.U. after   13 cycles
 SCF Done:  E(RB3LYP) =  -1253.48246798     A.U. after   13 cycles
 SCF Done:  E(RB3LYP) =  -1253.48252361     A.U. after   13 cycles
 SCF Done:  E(RB3LYP) =  -1253.48460551     A.U. after    9 cycles
 SCF Done:  E(RB3LYP) =  -1253.48460751     A.U. after    9 cycles
 SCF Done:  E(RB3LYP) =  -1253.48460956     A.U. after    9 cycles
 SCF Done:  E(RB3LYP) =  -1253.48461064     A.U. after    8 cycles
 SCF Done:  E(RB3LYP) =  -1253.48461115     A.U. after    8 cycles
 Optimization completed.
    -- Stationary point found.
 Normal termination of Gaussian 16 at Fri Dec 11 19:05:31 2020.

 --------------------------------------------------------------------
 #N Geom=AllCheck Guess=TCheck SCRF=Check GenChk RB3LYP/6-31G(d) Freq
 --------------------------------------------------------------------

 Structure from the checkpoint file:  "JID_8008.chk"
 -------------------------------
 CID_113483228_JID_8008_neutraal
 -------------------------------
 Charge =  0 Multiplicity = 1

 SCF Done:  E(RB3LYP) =  -1253.48461115     A.U. after    1 cycles

  Exact polarizability: 169.288  -7.146 126.637   7.745   9.207 144.469
 Approx polarizability: 277.324  -7.483 179.745  10.920  24.729 249.958

                      1                      2                      3
                      A                      A                      A
 Frequencies --     38.4811                50.6352                56.9634
 Red. masses --      5.7128                 9.0224                 5.6041
 Frc consts  --      0.0050                 0.0136                 0.0107
 IR Inten    --      4.6250                 1.1373                 4.9398

                      4                      5                      6
                      A                      A                      A
 Frequencies --     76.3518                90.1620               100.7957
 Red. masses --      3.2318                 1.2428                 5.1771
 Frc consts  --      0.0111                 0.0060                 0.0310
 IR Inten    --      2.7303                 0.7575                 1.7247

                      7                      8                      9
                      A                      A                      A
 Frequencies --    106.9906               120.7838               147.0423
 Red. masses --      6.5116                 6.4919                 3.0904
 Frc consts  --      0.0439                 0.0558                 0.0394
 IR Inten    --      3.0474                 7.0553                 3.7618

                     10                     11                     12
                      A                      A                      A
 Frequencies --    163.2504               179.3444               198.2682
 Red. masses --      5.8912                 6.2317                 6.6777
 Frc consts  --      0.0925                 0.1181                 0.1547
 IR Inten    --      0.5422                 3.5493                 5.5123

                     13                     14                     15
                      A                      A                      A
 Frequencies --    230.1444               241.2483               247.6724
 Red. masses --      4.3261                 3.5979                 2.6457
 Frc consts  --      0.1350                 0.1234                 0.0956
 IR Inten    --     13.4562                 0.7015                 0.6428

                     16                     17                     18
                      A                      A                      A
 Frequencies --    261.3387               295.7013               303.1872
 Red. masses --      1.3288                 3.1425                 2.8428
 Frc consts  --      0.0535                 0.1619                 0.1540
 IR Inten    --      1.7472                 2.0556                 2.5643

                     19                     20                     21
                      A                      A                      A
 Frequencies --    357.6430               378.0252               380.6641
 Red. masses --      2.7999                 4.2292                 4.6212
 Frc consts  --      0.2110                 0.3561                 0.3945
 IR Inten    --      4.7163                 4.3245                 3.1960

                     22                     23                     24
                      A                      A                      A
 Frequencies --    421.0142               435.7450               486.2539
 Red. masses --      4.2435                 4.2839                 4.7963
 Frc consts  --      0.4432                 0.4792                 0.6682
 IR Inten    --      1.3430                 1.5680                 4.7831

                     25                     26                     27
                      A                      A                      A
 Frequencies --    540.3503               585.4110               609.5990
 Red. masses --      2.3865                 3.7987                 3.3572
 Frc consts  --      0.4105                 0.7670                 0.7350
 IR Inten    --      9.3234                 9.7626                70.6542

                     28                     29                     30
                      A                      A                      A
 Frequencies --    614.4834               640.0886               642.6861
 Red. masses --      2.4038                 2.9750                 2.7598
 Frc consts  --      0.5348                 0.7182                 0.6716
 IR Inten    --     10.6531                22.9682                24.1467

                     31                     32                     33
                      A                      A                      A
 Frequencies --    652.5389               663.3622               672.2383
 Red. masses --      1.5356                 1.7301                 3.7311
 Frc consts  --      0.3852                 0.4486                 0.9934
 IR Inten    --     70.7910                83.8150                 9.6441

                     34                     35                     36
                      A                      A                      A
 Frequencies --    689.8903               715.0089               766.7315
 Red. masses --      1.4869                 4.4460                 3.4987
 Frc consts  --      0.4170                 1.3392                 1.2118
 IR Inten    --    102.5118                 1.4818                13.8787

                     37                     38                     39
                      A                      A                      A
 Frequencies --    772.7471               795.5611               815.7885
 Red. masses --      5.5016                 4.2748                 1.2687
 Frc consts  --      1.9356                 1.5941                 0.4975
 IR Inten    --      7.8856                87.5840                39.9502

                     40                     41                     42
                      A                      A                      A
 Frequencies --    852.1490               897.3945               917.1605
 Red. masses --      1.7924                 3.0846                 2.5016
 Frc consts  --      0.7669                 1.4636                 1.2398
 IR Inten    --      3.8869                17.5844                 9.0529

                     43                     44                     45
                      A                      A                      A
 Frequencies --    963.6836               969.9883               990.7729
 Red. masses --      1.4736                 1.3562                 2.3576
 Frc consts  --      0.8063                 0.7518                 1.3635
 IR Inten    --      3.4776                 7.3962                 0.6947

                     46                     47                     48
                      A                      A                      A
 Frequencies --   1016.8800              1033.2990              1061.8232
 Red. masses --      1.3763                 4.4347                 1.9472
 Frc consts  --      0.8385                 2.7897                 1.2935
 IR Inten    --      1.8312                 3.5839                 8.8487

                     49                     50                     51
                      A                      A                      A
 Frequencies --   1077.2382              1082.3342              1116.0475
 Red. masses --      1.4689                 7.4477                 2.2591
 Frc consts  --      1.0043                 5.1404                 1.6579
 IR Inten    --      2.4204               111.0892                30.3812

                     52                     53                     54
                      A                      A                      A
 Frequencies --   1127.0631              1187.3708              1209.7823
 Red. masses --      2.7138                 1.6841                 1.7246
 Frc consts  --      2.0311                 1.3989                 1.4872
 IR Inten    --      7.7185                10.7446                34.7996

                     55                     56                     57
                      A                      A                      A
 Frequencies --   1224.1148              1240.2636              1256.0878
 Red. masses --      1.6708                 1.3836                 1.2856
 Frc consts  --      1.4751                 1.2540                 1.1951
 IR Inten    --     14.2705                26.1999                28.8035

                     58                     59                     60
                      A                      A                      A
 Frequencies --   1326.7491              1332.2063              1362.8925
 Red. masses --      3.3098                 1.3166                 1.2223
 Frc consts  --      3.4326                 1.3767                 1.3377
 IR Inten    --    300.4498                41.1127                17.5343

                     61                     62                     63
                      A                      A                      A
 Frequencies --   1379.2720              1388.7210              1430.2023
 Red. masses --      5.5364                 1.4307                 1.6914
 Frc consts  --      6.2055                 1.6257                 2.0384
 IR Inten    --     26.8705                81.6932                84.2869

                     64                     65                     66
                      A                      A                      A
 Frequencies --   1440.7415              1454.6322              1463.0164
 Red. masses --      1.5676                 2.1034                 1.6564
 Frc consts  --      1.9172                 2.6222                 2.0888
 IR Inten    --     28.5953                22.0320                62.7616

                     67                     68                     69
                      A                      A                      A
 Frequencies --   1481.3228              1490.5069              1493.9480
 Red. masses --      1.1480                 1.1432                 1.3775
 Frc consts  --      1.4843                 1.4964                 1.8113
 IR Inten    --     43.4338                 4.0370               119.0935

                     70                     71                     72
                      A                      A                      A
 Frequencies --   1497.0872              1506.2782              1511.1076
 Red. masses --      1.7551                 1.8770                 1.0522
 Frc consts  --      2.3177                 2.5092                 1.4156
 IR Inten    --    104.6614                81.3290                 3.9997

                     73                     74                     75
                      A                      A                      A
 Frequencies --   1525.7230              1535.8279              1544.3989
 Red. masses --      1.1278                 2.1269                 2.9032
 Frc consts  --      1.5468                 2.9559                 4.0798
 IR Inten    --     13.2044                56.0413                17.1969

                     76                     77                     78
                      A                      A                      A
 Frequencies --   1626.1582              1769.5706              1786.7835
 Red. masses --      4.7739                 5.4708                10.0512
 Frc consts  --      7.4378                10.0933                18.9065
 IR Inten    --     30.0381               484.4067               286.5796

                     79                     80                     81
                      A                      A                      A
 Frequencies --   3034.9878              3048.3204              3069.0280
 Red. masses --      1.0743                 1.0387                 1.0616
 Frc consts  --      5.8302                 5.6869                 5.8915
 IR Inten    --     44.5381                23.7069                15.7186

                     82                     83                     84
                      A                      A                      A
 Frequencies --   3071.2500              3101.4255              3130.9329
 Red. masses --      1.0306                 1.1019                 1.1043
 Frc consts  --      5.7278                 6.2446                 6.3779
 IR Inten    --      4.3365                12.0251                 3.3580

                     85                     86                     87
                      A                      A                      A
 Frequencies --   3145.7988              3171.5118              3174.4708
 Red. masses --      1.0992                 1.1053                 1.0899
 Frc consts  --      6.4087                 6.5502                 6.4713
 IR Inten    --      8.7695                 3.9348                 1.8026

                     88                     89                     90
                      A                      A                      A
 Frequencies --   3186.5713              3261.4251              3533.5971
 Red. masses --      1.1057                 1.0968                 1.0741
 Frc consts  --      6.6153                 6.8738                 7.9020
 IR Inten    --      1.1278                 1.4130                31.1167

                     91                     92                     93
                      A                      A                      A
 Frequencies --   3570.9406              3596.5375              3622.9497
 Red. masses --      1.0692                 1.0757                 1.0800
 Frc consts  --      8.0328                 8.1982                 8.3525
 IR Inten    --    256.2567                28.7912                99.0386

 - Thermochemistry -
 -------------------
 Temperature   298.150 Kelvin.  Pressure   1.00000 Atm.
 Atom     1 has atomic number  6 and mass  12.00000

 Molecular mass:   273.07833 amu.
 Principal axes and moments of inertia in atomic units:
                           1         2         3
     Eigenvalues --  4178.070674728.106735695.97689
           X            0.98921  -0.14379   0.02791
           Y            0.14472   0.98885  -0.03499
           Z           -0.02256   0.03866   0.99900
 This molecule is an asymmetric top.
 Rotational symmetry number  1.
 Warning -- assumption of classical behavior for rotation
           may cause significant error
 Rotational temperatures (Kelvin)      0.02073     0.01832     0.01521
 Rotational constants (GHZ):           0.43196     0.38170     0.31684
 Zero-point vibrational energy     686863.1 (Joules/Mol)
                                  164.16421 (Kcal/Mol)
 Warning -- explicit consideration of  28 degrees of freedom as
           vibrations may cause significant error
 Vibrational temperatures:     55.37    72.85    81.96   109.85   129.72
          (Kelvin)            145.02   153.94   173.78   211.56   234.88
                              258.04   285.26   331.13   347.10   356.35
                              376.01   425.45   436.22   514.57   543.89
                              547.69   605.75   626.94   699.61   777.44
                              842.28   877.08   884.10   920.94   924.68
                              938.86   954.43   967.20   992.60  1028.74
                             1103.16  1111.81  1144.63  1173.74  1226.05
                             1291.15  1319.59  1386.53  1395.60  1425.50
                             1463.06  1486.69  1527.73  1549.91  1557.24
                             1605.74  1621.59  1708.36  1740.61  1761.23
                             1784.46  1807.23  1908.90  1916.75  1960.90
                             1984.46  1998.06  2057.74  2072.91  2092.89
                             2104.95  2131.29  2144.51  2149.46  2153.97
                             2167.20  2174.15  2195.18  2209.71  2222.05
                             2339.68  2546.02  2570.78  4366.67  4385.85
                             4415.65  4418.84  4462.26  4504.71  4526.10
                             4563.10  4567.36  4584.77  4692.46  5084.06
                             5137.79  5174.62  5212.62

 Zero-point correction=                           0.261612 (Hartree/Particle)
 Thermal correction to Energy=                    0.280266
 Thermal correction to Enthalpy=                  0.281210
 Thermal correction to Gibbs Free Energy=         0.214619
 Sum of electronic and zero-point Energies=          -1253.222999
 Sum of electronic and thermal Energies=             -1253.204345
 Sum of electronic and thermal Enthalpies=           -1253.203401
 Sum of electronic and thermal Free Energies=        -1253.269992

                     E (Thermal)             CV                S
                      KCal/Mol        Cal/Mol-Kelvin    Cal/Mol-Kelvin
 Total                  175.870             69.016            140.152
 Electronic               0.000              0.000              0.000
 Translational            0.889              2.981             42.712
 Rotational               0.889              2.981             33.086
 Vibrational            174.092             63.054             64.353
 Vibration     1          0.594              1.982              5.336
 Vibration     2          0.595              1.977              4.792
 Vibration     3          0.596              1.975              4.560
 Vibration     4          0.599              1.965              3.983
 Vibration     5          0.602              1.956              3.657
 Vibration     6          0.604              1.948              3.439
 Vibration     7          0.606              1.944              3.323
 Vibration     8          0.609              1.932              3.088
 Vibration     9          0.617              1.906              2.710
 Vibration    10          0.623              1.888              2.512
 Vibration    11          0.629              1.868              2.335
 Vibration    12          0.637              1.842              2.149
 Vibration    13          0.652              1.795              1.878
 Vibration    14          0.658              1.777              1.794
 Vibration    15          0.661              1.767              1.747
 Vibration    16          0.669              1.744              1.653
 Vibration    17          0.690              1.682              1.441
 Vibration    18          0.695              1.668              1.399
 Vibration    19          0.733              1.560              1.132
 Vibration    20          0.748              1.517              1.047
 Vibration    21          0.750              1.511              1.037
 Vibration    22          0.784              1.425              0.889
 Vibration    23          0.796              1.392              0.840
 Vibration    24          0.842              1.281              0.693
 Vibration    25          0.895              1.161              0.565
 Vibration    26          0.942              1.063              0.475
 Vibration    27          0.969              1.011              0.433
 Vibration    28          0.974              1.001              0.425

                           ! Non-Optimized Parameters !
 Normal termination of Gaussian 16 at Fri Dec 11 19:21:56 2020.

 ----------------------------------------------------------------------
 # B3LYP/6-311++G(d,p) empiricaldispersion=gd3bj scf=xqc pop=npa geom=c
 heck
 ----------------------------------------------------------------------

 ---------------------------------------
 CID_113483228_JID_8008_Energie_neutraal
 ---------------------------------------
 Structure from the checkpoint file:  "JID_8008.chk"
 Charge =  0 Multiplicity = 1

 SCF Done:  E(RB3LYP) =  -1253.77763003     A.U. after   16 cycles
 Normal termination of Gaussian 16 at Fri Dec 11 19:28:01 2020.

 ----------------------------------------------------------------------
 # B3LYP/6-311++G(d,p) empiricaldispersion=gd3bj scf=xqc pop=npa geom=c
 heck
 ----------------------------------------------------------------------

 -------------------------------------
 CID_113483228_JID_8008_Energie_kation
 -------------------------------------
 Structure from the checkpoint file:  "JID_8008.chk"
 Charge =  1 Multiplicity = 2

 SCF Done:  E(UB3LYP) =  -1253.47413547     A.U. after   29 cycles
 Normal termination of Gaussian 16 at Fri Dec 11 19:43:14 2020.
 Gaussian 16:  ES64L-G16RevA.03 25-Dec-2016

 ----------------------------------------------------------------------
 # B3LYP/6-311++G(d,p) empiricaldispersion=gd3bj scf=xqc pop=npa geom=c
 heck
 ----------------------------------------------------------------------

 ------------------------------------
 CID_113483228_JID_8008_Energie_anion
 ------------------------------------
 Structure from the checkpoint file:  "JID_8008.chk"
 Charge = -1 Multiplicity = 2

                         Standard orientation:
 ---------------------------------------------------------------------
 Center     Atomic      Atomic             Coordinates (Angstroms)
 Number     Number       Type             X           Y           Z
 ---------------------------------------------------------------------
      1          6           0       -3.226066    1.826212   -1.363182
      2          6           0       -1.775507    1.608854   -1.085790
      3          6           0       -0.757229    1.132454   -1.903515
      4          6           0        0.419909    1.057729   -1.122968
      5          6           0        0.109538    1.508324    0.164327
      6          7           0       -1.229116    1.831623    0.141238
      7          6           0        0.792200    1.690015    1.455596
      8          8           0        0.153089    2.056417    2.428359
      9          8           0        2.107897    1.439659    1.578223
     10          7           0        1.693362    0.604819   -1.579453
     11          6           0        2.399574   -0.353273   -0.839518
     12          8           0        3.529177   -0.109403   -0.405422
     13          7           0        1.773874   -1.538237   -0.584085
     14          6           0        0.662634   -2.139623   -1.313565
     15          6           0       -0.405977   -2.730349   -0.395392
     16         16           0       -1.369919   -1.456147    0.554406
     17          8           0       -2.668081   -2.118701    0.968556
     18          6           0       -0.291451   -1.416962    2.033576
     19          1           0       -3.845556    1.101297   -0.820755
     20          1           0       -3.549708    2.831469   -1.068167
     21          1           0       -3.426664    1.707034   -2.430770
     22          1           0       -0.849379    0.860484   -2.946001
     23          1           0       -1.698230    2.147910    0.980675
     24          1           0        2.567728    1.136927    0.767354
     25          1           0        2.334840    1.354724   -1.821823
     26          1           0        2.366652   -2.162615   -0.050512
     27          1           0        0.226118   -1.374657   -1.954442
     28          1           0        1.043569   -2.935514   -1.968316
     29          1           0       -1.175781   -3.221628   -0.998545
     30          1           0        0.001333   -3.473273    0.299875
     31          1           0       -0.339018   -2.393829    2.523753
     32          1           0        0.729897   -1.169200    1.738334
     33          1           0       -0.676318   -0.642266    2.699810
 ---------------------------------------------------------------------

 SCF Done:  E(UB3LYP) =  -1253.78034060     A.U. after   33 cycles
 SCF Done:  E(UB3LYP) =  -1253.78034060     a.u. after    1 cycles

 The electronic state is 2-A.
 Alpha  occ. eigenvalues --  -88.84135 -19.03125 -19.00069 -18.97816 -18.96395
 Alpha  occ. eigenvalues --  -14.24873 -14.24059 -14.23812 -10.20972 -10.16087
 Alpha  occ. eigenvalues --  -10.12626 -10.10636 -10.10015 -10.09055 -10.08913
 Alpha  occ. eigenvalues --  -10.08570 -10.08469 -10.05645  -7.91835  -5.88106
 Alpha  occ. eigenvalues --   -5.87980  -5.87395  -0.97129  -0.96186  -0.90733
 Alpha  occ. eigenvalues --   -0.88901  -0.87145  -0.84587  -0.81692  -0.70212
 Alpha  occ. eigenvalues --   -0.67588  -0.66492  -0.64953  -0.59425  -0.57244
 Alpha  occ. eigenvalues --   -0.53255  -0.50750  -0.50111  -0.49215  -0.48574
 Alpha  occ. eigenvalues --   -0.44845  -0.42286  -0.39909  -0.38050  -0.37492
 Alpha  occ. eigenvalues --   -0.36644  -0.36114  -0.35373  -0.34468  -0.33644
 Alpha  occ. eigenvalues --   -0.33110  -0.32886  -0.32441  -0.31957  -0.31580
 Alpha  occ. eigenvalues --   -0.30725  -0.29785  -0.29089  -0.28457  -0.28269
 Alpha  occ. eigenvalues --   -0.27892  -0.25330  -0.24896  -0.20593  -0.19276
 Alpha  occ. eigenvalues --   -0.18108  -0.16953  -0.16545  -0.15095  -0.14880
 Alpha  occ. eigenvalues --   -0.12817  -0.11650   0.04011
 Alpha virt. eigenvalues --    0.05687   0.06903   0.08073   0.08327   0.09389
 Alpha virt. eigenvalues --    0.09796   0.10212   0.10623   0.10819   0.11496
 Alpha virt. eigenvalues --    0.12072   0.12501   0.12943   0.13447   0.13808

  Beta  occ. eigenvalues --  -88.84134 -19.03041 -19.00065 -18.97813 -18.96174
  Beta  occ. eigenvalues --  -14.24850 -14.23885 -14.23821 -10.20962 -10.15838
  Beta  occ. eigenvalues --  -10.12592 -10.10621 -10.09901 -10.08912 -10.08853
  Beta  occ. eigenvalues --  -10.08581 -10.08417 -10.05705  -7.91834  -5.88104
  Beta  occ. eigenvalues --   -5.87979  -5.87392  -0.96964  -0.96037  -0.90725
  Beta  occ. eigenvalues --   -0.88603  -0.86850  -0.84538  -0.81587  -0.70178
  Beta  occ. eigenvalues --   -0.67397  -0.66304  -0.64926  -0.59161  -0.57199
  Beta  occ. eigenvalues --   -0.53060  -0.50455  -0.50054  -0.49068  -0.48483
  Beta  occ. eigenvalues --   -0.44622  -0.42189  -0.39822  -0.37971  -0.37372
  Beta  occ. eigenvalues --   -0.36476  -0.36061  -0.35170  -0.34276  -0.33558
  Beta  occ. eigenvalues --   -0.33047  -0.32738  -0.32381  -0.31394  -0.31264
  Beta  occ. eigenvalues --   -0.30644  -0.29699  -0.29015  -0.28316  -0.28049
  Beta  occ. eigenvalues --   -0.27660  -0.25204  -0.24756  -0.20464  -0.18358
  Beta  occ. eigenvalues --   -0.18048  -0.16892  -0.16488  -0.14824  -0.14289
  Beta  occ. eigenvalues --   -0.12791  -0.10735
  Beta virt. eigenvalues --    0.06620   0.07089   0.08168   0.08344   0.08898
  Beta virt. eigenvalues --    0.09561   0.09968   0.10450   0.10689   0.10882
  Beta virt. eigenvalues --    0.11643   0.12144   0.12644   0.12962   0.13473

 Mulliken charges and spin densities:
               1          2
     1  C   -0.583090  -0.080166
     2  C    0.031188   0.150876
     3  C   -0.106174  -0.087639
     4  C   -0.183232  -0.100515
     5  C    0.346295   0.148375
     6  N   -0.006467   0.075486
     7  C   -0.383075   0.010771
     8  O   -0.342763   0.081957
     9  O   -0.156880   0.020936
    10  N   -0.180444   0.041436
    11  C   -0.042863  -0.135936
    12  O   -0.299696   0.014306
    13  N   -0.204332  -0.028324
    14  C    0.531268  -0.622487
    15  C   -0.338112  -0.456785
    16  S    0.597958   0.080657
    17  O   -0.425157   0.002685
    18  C   -0.653078  -0.132583
    19  H    0.168106   0.021774
    20  H    0.134643   0.000328
    21  H    0.135425   0.010139
    22  H    0.028737   0.110127
    23  H    0.302031  -0.000807
    24  H    0.299708  -0.008849
    25  H    0.207542   0.124542
    26  H    0.111388   0.221142
    27  H    0.321196  -0.126282
    28  H   -1.007055   1.256240
    29  H    0.146232   0.096856
    30  H   -0.010055   0.200393
    31  H    0.192673   0.046010
    32  H    0.167473   0.031787
    33  H    0.200609   0.033549
 Sum of Mulliken charges =  -1.00000   1.00000

 Dipole moment (field-independent basis, Debye):
    X=             -3.0721    Y=              2.5192    Z=             -2.6839  Tot=              4.7945
 Quadrupole moment (field-independent basis, Debye-Ang):
   XX=           -160.5790   YY=           -160.6678   ZZ=           -146.8373
   XY=             -6.5013   XZ=              5.4097   YZ=            -15.4588

 Summary of Natural Population Analysis:

                                       Natural Population
                Natural  -----------------------------------------------
    Atom  No    Charge         Core      Valence    Rydberg      Total
 -----------------------------------------------------------------------
      C    1   -0.30108      0.99964     2.29707    0.00437     3.30108
      C    2    0.10546      0.99958     1.88415    0.01081     2.89454
      C    3   -0.16998      0.99946     2.16094    0.00958     3.16998
      C    4    0.06817      0.99941     1.91939    0.01303     2.93183
      C    5    0.00418      0.99944     1.98220    0.01418     2.99582
      N    6   -0.23293      0.99962     2.72415    0.00916     3.73293
      C    7    0.40925      0.99963     1.56672    0.02441     2.59075
      O    8   -0.30816      0.99987     3.30259    0.00570     4.30816
      O    9   -0.34489      0.99986     3.33915    0.00588     4.34489
      N   10   -0.34127      0.99965     2.83140    0.01021     3.84127
      C   11    0.40615      0.99968     1.56923    0.02493     2.59385
      O   12   -0.34698      0.99988     3.34190    0.00520     4.34698
      N   13   -0.32394      0.99965     2.81270    0.01159     3.82394
      C   14   -0.09904      0.99958     2.08634    0.01311     3.09904
      C   15   -0.28014      0.99958     2.26695    0.01360     3.28014
      S   16    0.59189      4.99947     2.35451    0.05413     7.40811
      O   17   -0.49081      0.99993     3.48541    0.00547     4.49081
      C   18   -0.37942      0.99961     2.37361    0.00619     3.37942
      H   19    0.10848      0.00000     0.39040    0.00112     0.39152
      H   20    0.10034      0.00000     0.39853    0.00113     0.39966
      H   21    0.10417      0.00000     0.39507    0.00076     0.39583
      H   22    0.10292      0.00000     0.39608    0.00100     0.39708
      H   23    0.20774      0.00000     0.29085    0.00141     0.29226
      H   24    0.24538      0.00000     0.25100    0.00362     0.25462
      H   25    0.19674      0.00000     0.30097    0.00230     0.30326
      H   26    0.19795      0.00000     0.29949    0.00256     0.30205
      H   27    0.11236      0.00000     0.38526    0.00237     0.38764
      H   28    0.10117      0.00000     0.39495    0.00388     0.39883
      H   29    0.11436      0.00000     0.38447    0.00117     0.38564
      H   30    0.10409      0.00000     0.39410    0.00180     0.39591
      H   31    0.10421      0.00000     0.39467    0.00112     0.39579
      H   32    0.11484      0.00000     0.38311    0.00204     0.38516
      H   33    0.11878      0.00000     0.37988    0.00134     0.38122
 =======================================================================
   * Total *    0.00000     21.99355    49.73727    0.26918    72.00000

 Normal termination of Gaussian 16 at Fri Dec 11 20:00:33 2020.
