 Gaussian 16, Revision A.03,

 -----------------------------------------------------------
 # opt freq B3LYP/6-31G(d) empiricaldispersion=gd3bj scf=xqc
 -----------------------------------------------------------

 -------------------------------
 CID_105440465_JID_3774_neutraal
 -------------------------------
 Symbolic Z-matrix:
 Charge =  0 Multiplicity = 1

 SCF Done:  E(RB3LYP) =  -631.224850092     A.U. after   15 cycles
 SCF Done:  E(RB3LYP) =  -631.227281718     A.U. after   13 cycles
 SCF Done:  E(RB3LYP) =  -631.227055656     A.U. after   13 cycles
 SCF Done:  E(RB3LYP) =  -631.227925583     A.U. after   11 cycles
 SCF Done:  E(RB3LYP) =  -631.228084504     A.U. after   11 cycles
 SCF Done:  E(RB3LYP) =  -631.228099820     A.U. after   10 cycles
 SCF Done:  E(RB3LYP) =  -631.228106658     A.U. after    9 cycles
 SCF Done:  E(RB3LYP) =  -631.228108424     A.U. after    9 cycles
 SCF Done:  E(RB3LYP) =  -631.228109951     A.U. after    9 cycles
 SCF Done:  E(RB3LYP) =  -631.228111727     A.U. after   10 cycles
 SCF Done:  E(RB3LYP) =  -631.228671654     A.U. after   10 cycles
 SCF Done:  E(RB3LYP) =  -631.228668261     A.U. after   10 cycles
 SCF Done:  E(RB3LYP) =  -631.228671991     A.U. after   10 cycles
 SCF Done:  E(RB3LYP) =  -631.228671867     A.U. after    7 cycles
 SCF Done:  E(RB3LYP) =  -631.228672032     A.U. after    8 cycles
 Optimization completed.
    -- Stationary point found.
 Normal termination of Gaussian 16 at Sun Dec 13 12:36:39 2020.

 --------------------------------------------------------------------
 #N Geom=AllCheck Guess=TCheck SCRF=Check GenChk RB3LYP/6-31G(d) Freq
 --------------------------------------------------------------------

 Structure from the checkpoint file:  "JID_3774.chk"
 -------------------------------
 CID_105440465_JID_3774_neutraal
 -------------------------------
 Charge =  0 Multiplicity = 1

 SCF Done:  E(RB3LYP) =  -631.228672032     A.U. after    1 cycles

  Exact polarizability: 121.026   6.100 103.593  -5.227  -4.481  83.518
 Approx polarizability: 175.390   5.683 159.764 -13.794 -18.744 128.715

                      1                      2                      3
                      A                      A                      A
 Frequencies --     35.0248                48.8829                66.1207
 Red. masses --      5.7950                 4.3663                 3.6409
 Frc consts  --      0.0042                 0.0061                 0.0094
 IR Inten    --      1.2523                 1.9761                 1.1169

                      4                      5                      6
                      A                      A                      A
 Frequencies --     88.6421               102.9932               114.9742
 Red. masses --      4.3295                 4.5883                 5.2667
 Frc consts  --      0.0200                 0.0287                 0.0410
 IR Inten    --      0.8323                 0.3642                 0.9429

                      7                      8                      9
                      A                      A                      A
 Frequencies --    215.2740               239.2761               248.2085
 Red. masses --      2.8406                 1.0546                 4.6744
 Frc consts  --      0.0776                 0.0356                 0.1697
 IR Inten    --      0.6194                 0.1088                 2.6684

                     10                     11                     12
                      A                      A                      A
 Frequencies --    272.1463               316.8428               337.5921
 Red. masses --      1.1497                 2.9547                 3.5602
 Frc consts  --      0.0502                 0.1748                 0.2391
 IR Inten    --      0.5894                 0.3170                 0.8335

                     13                     14                     15
                      A                      A                      A
 Frequencies --    382.4792               416.2481               426.4257
 Red. masses --      2.6380                 2.3021                 1.9431
 Frc consts  --      0.2274                 0.2350                 0.2082
 IR Inten    --      1.8334                 2.0007                 0.7620

                     16                     17                     18
                      A                      A                      A
 Frequencies --    449.9432               544.7128               610.7208
 Red. masses --      3.6030                 2.7629                 2.5898
 Frc consts  --      0.4298                 0.4830                 0.5691
 IR Inten    --      0.3121                22.9268                35.8603

                     19                     20                     21
                      A                      A                      A
 Frequencies --    647.0829               661.8760               692.0564
 Red. masses --      6.6749                 3.1747                 2.1614
 Frc consts  --      1.6467                 0.8194                 0.6099
 IR Inten    --      9.1170                35.5889               105.1490

                     22                     23                     24
                      A                      A                      A
 Frequencies --    772.0356               819.8836               833.9845
 Red. masses --      4.6398                 3.9029                 2.9202
 Frc consts  --      1.6294                 1.5457                 1.1967
 IR Inten    --      6.6623                 6.7577                 2.6520

                     25                     26                     27
                      A                      A                      A
 Frequencies --    886.8445               889.0502               904.9141
 Red. masses --      2.2553                 1.6879                 2.3544
 Frc consts  --      1.0451                 0.7861                 1.1359
 IR Inten    --      7.7655                 9.7523                 1.2584

                     28                     29                     30
                      A                      A                      A
 Frequencies --    932.8487               943.4624               951.6175
 Red. masses --      3.5071                 2.6779                 1.2086
 Frc consts  --      1.7981                 1.4044                 0.6449
 IR Inten    --      4.0624                12.0994                 1.8387

                     31                     32                     33
                      A                      A                      A
 Frequencies --    959.8761               973.5961               982.3927
 Red. masses --      2.4493                 2.7971                 1.4875
 Frc consts  --      1.3296                 1.5621                 0.8458
 IR Inten    --      6.8846                 3.7189                 0.0844

                     34                     35                     36
                      A                      A                      A
 Frequencies --   1101.6276              1137.4432              1150.2780
 Red. masses --      1.9812                 1.6132                 2.2335
 Frc consts  --      1.4166                 1.2297                 1.7412
 IR Inten    --     16.7568                84.1238                 1.5350

                     37                     38                     39
                      A                      A                      A
 Frequencies --   1197.0473              1210.0937              1213.7175
 Red. masses --      2.4254                 1.7861                 1.7253
 Frc consts  --      2.0476                 1.5410                 1.4974
 IR Inten    --     61.0998                58.9869                 4.1771

                     40                     41                     42
                      A                      A                      A
 Frequencies --   1249.7353              1270.1649              1309.9999
 Red. masses --      1.9645                 1.4694                 1.8014
 Frc consts  --      1.8078                 1.3967                 1.8214
 IR Inten    --     20.4422                34.4912                10.1646

                     43                     44                     45
                      A                      A                      A
 Frequencies --   1332.4428              1334.8517              1388.5711
 Red. masses --      1.3599                 1.4384                 1.7387
 Frc consts  --      1.4225                 1.5101                 1.9753
 IR Inten    --      1.5721                 4.3525                19.0570

                     46                     47                     48
                      A                      A                      A
 Frequencies --   1391.0786              1399.4916              1433.1141
 Red. masses --      1.8925                 1.4699                 1.6092
 Frc consts  --      2.1577                 1.6962                 1.9472
 IR Inten    --     21.2620                11.9902                 0.9048

                     49                     50                     51
                      A                      A                      A
 Frequencies --   1435.9159              1453.2762              1501.4401
 Red. masses --      2.6599                 1.2330                 1.0997
 Frc consts  --      3.2313                 1.5343                 1.4606
 IR Inten    --     14.9915                 5.0984                 7.0561

                     52                     53                     54
                      A                      A                      A
 Frequencies --   1504.5662              1520.7634              1526.3885
 Red. masses --      1.1448                 1.0428                 1.1970
 Frc consts  --      1.5268                 1.4210                 1.6431
 IR Inten    --      4.3336                 0.3514                 2.4581

                     55                     56                     57
                      A                      A                      A
 Frequencies --   1530.2589              1536.8495              1544.1612
 Red. masses --      3.2494                 1.0474                 1.0521
 Frc consts  --      4.4832                 1.4576                 1.4781
 IR Inten    --     36.6958                 8.5762                10.7942

                     58                     59                     60
                      A                      A                      A
 Frequencies --   1672.9947              1839.5248              3040.4470
 Red. masses --      7.5638                 9.4348                 1.0392
 Frc consts  --     12.4733                18.8101                 5.6603
 IR Inten    --     21.2338               243.5701                18.3038

                     61                     62                     63
                      A                      A                      A
 Frequencies --   3045.9285              3046.1515              3050.2311
 Red. masses --      1.0693                 1.0687                 1.0407
 Frc consts  --      5.8450                 5.8429                 5.7050
 IR Inten    --     20.0255                25.6736                 7.7119

                     64                     65                     66
                      A                      A                      A
 Frequencies --   3084.3038              3103.4383              3108.8241
 Red. masses --      1.0592                 1.1002                 1.1009
 Frc consts  --      5.9364                 6.2430                 6.2689
 IR Inten    --     10.1112                 2.1896                29.0161

                     67                     68                     69
                      A                      A                      A
 Frequencies --   3114.1015              3117.2819              3122.8037
 Red. masses --      1.1027                 1.1019                 1.1020
 Frc consts  --      6.3003                 6.3089                 6.3315
 IR Inten    --     13.4631                50.7430                36.9264

                     70                     71                     72
                      A                      A                      A
 Frequencies --   3134.0497              3250.8115              3685.8110
 Red. masses --      1.1058                 1.0962                 1.0640
 Frc consts  --      6.3996                 6.8253                 8.5165
 IR Inten    --      4.7605                 3.9808                48.4582

 - Thermochemistry -
 -------------------
 Temperature   298.150 Kelvin.  Pressure   1.00000 Atm.
 Atom     1 has atomic number  6 and mass  12.00000

 Molecular mass:   183.08954 amu.
 Principal axes and moments of inertia in atomic units:
                           1         2         3
     Eigenvalues --  2080.917762394.461803764.56096
           X            0.99860   0.05271   0.00532
           Y           -0.05278   0.99853   0.01274
           Z           -0.00464  -0.01300   0.99990
 This molecule is an asymmetric top.
 Rotational symmetry number  1.
 Warning -- assumption of classical behavior for rotation
           may cause significant error
 Rotational temperatures (Kelvin)      0.04162     0.03617     0.02301
 Rotational constants (GHZ):           0.86728     0.75371     0.47940
 Zero-point vibrational energy     567376.9 (Joules/Mol)
                                  135.60633 (Kcal/Mol)
 Warning -- explicit consideration of  18 degrees of freedom as
           vibrations may cause significant error
 Vibrational temperatures:     50.39    70.33    95.13   127.54   148.18
          (Kelvin)            165.42   309.73   344.26   357.12   391.56
                              455.87   485.72   550.30   598.89   613.53
                              647.37   783.72   878.69   931.01   952.29
                              995.71  1110.79  1179.63  1199.92  1275.97
                             1279.14  1301.97  1342.16  1357.43  1369.17
                             1381.05  1400.79  1413.44  1585.00  1636.53
                             1654.99  1722.28  1741.05  1746.27  1798.09
                             1827.48  1884.80  1917.09  1920.55  1997.84
                             2001.45  2013.56  2061.93  2065.96  2090.94
                             2160.24  2164.74  2188.04  2196.13  2201.70
                             2211.18  2221.70  2407.07  2646.67  4374.53
                             4382.41  4382.73  4388.60  4437.63  4465.16
                             4472.90  4480.50  4485.07  4493.02  4509.20
                             4677.19  5303.06

 Zero-point correction=                           0.216102 (Hartree/Particle)
 Thermal correction to Energy=                    0.229193
 Thermal correction to Enthalpy=                  0.230137
 Thermal correction to Gibbs Free Energy=         0.175319
 Sum of electronic and zero-point Energies=           -631.012570
 Sum of electronic and thermal Energies=              -630.999479
 Sum of electronic and thermal Enthalpies=            -630.998535
 Sum of electronic and thermal Free Energies=         -631.053353

                     E (Thermal)             CV                S
                      KCal/Mol        Cal/Mol-Kelvin    Cal/Mol-Kelvin
 Total                  143.821             47.886            115.374
 Electronic               0.000              0.000              0.000
 Translational            0.889              2.981             41.521
 Rotational               0.889              2.981             31.306
 Vibrational            142.043             41.925             42.546
 Vibration     1          0.594              1.982              5.522
 Vibration     2          0.595              1.978              4.862
 Vibration     3          0.598              1.970              4.266
 Vibration     4          0.601              1.957              3.690
 Vibration     5          0.605              1.947              3.397
 Vibration     6          0.608              1.937              3.183
 Vibration     7          0.645              1.818              1.998
 Vibration     8          0.657              1.780              1.808
 Vibration     9          0.662              1.766              1.743
 Vibration    10          0.675              1.725              1.583
 Vibration    11          0.704              1.641              1.326
 Vibration    12          0.718              1.600              1.224
 Vibration    13          0.752              1.508              1.029
 Vibration    14          0.779              1.435              0.905
 Vibration    15          0.788              1.413              0.870
 Vibration    16          0.809              1.361              0.796
 Vibration    17          0.900              1.151              0.555
 Vibration    18          0.970              1.009              0.432

 Optimization completed.
    -- Stationary point found.
 Normal termination of Gaussian 16 at Sun Dec 13 12:43:08 2020.

 ----------------------------------------------------------------------
 # B3LYP/6-311++G(d,p) empiricaldispersion=gd3bj scf=xqc pop=npa geom=c
 heck
 ----------------------------------------------------------------------

 ---------------------------------------
 CID_105440465_JID_3774_Energie_neutraal
 ---------------------------------------
 Structure from the checkpoint file:  "JID_3774.chk"
 Charge =  0 Multiplicity = 1

 SCF Done:  E(RB3LYP) =  -631.413703345     A.U. after   15 cycles
 Normal termination of Gaussian 16 at Sun Dec 13 12:46:00 2020.

 ----------------------------------------------------------------------
 # B3LYP/6-311++G(d,p) empiricaldispersion=gd3bj scf=xqc pop=npa geom=c
 heck
 ----------------------------------------------------------------------

 -------------------------------------
 CID_105440465_JID_3774_Energie_kation
 -------------------------------------
 Structure from the checkpoint file:  "JID_3774.chk"
 Charge =  1 Multiplicity = 2

 SCF Done:  E(UB3LYP) =  -631.081444280     A.U. after   23 cycles
 Normal termination of Gaussian 16 at Sun Dec 13 12:52:14 2020.
 Gaussian 16:  ES64L-G16RevA.03 25-Dec-2016

 ----------------------------------------------------------------------
 # B3LYP/6-311++G(d,p) empiricaldispersion=gd3bj scf=xqc pop=npa geom=c
 heck
 ----------------------------------------------------------------------

 ------------------------------------
 CID_105440465_JID_3774_Energie_anion
 ------------------------------------
 Structure from the checkpoint file:  "JID_3774.chk"
 Charge = -1 Multiplicity = 2

                         Standard orientation:
 ---------------------------------------------------------------------
 Center     Atomic      Atomic             Coordinates (Angstroms)
 Number     Number       Type             X           Y           Z
 ---------------------------------------------------------------------
      1          6           0       -1.714564   -0.737896   -1.306569
      2          6           0       -2.277008    0.209492   -0.240233
      3          6           0       -3.590916   -0.326201    0.336517
      4          6           0       -1.261216    0.448500    0.903516
      5          6           0        0.010382    1.071451    0.439076
      6          6           0        1.314827    0.655063    0.424631
      7          6           0        1.998332    1.729423   -0.212713
      8          7           0        1.198044    2.711950   -0.548617
      9          8           0       -0.074527    2.292445   -0.133872
     10          6           0        1.888221   -0.637779    0.938181
     11          6           0        1.328159   -1.824677    0.177073
     12          8           0        0.489615   -2.592313    0.596707
     13          8           0        1.844978   -1.909435   -1.069526
     14          1           0       -1.519970   -1.727869   -0.878448
     15          1           0       -0.775487   -0.360020   -1.726164
     16          1           0       -2.426725   -0.856343   -2.130690
     17          1           0       -2.472025    1.182530   -0.709799
     18          1           0       -3.433789   -1.294874    0.827480
     19          1           0       -4.015176    0.362177    1.076763
     20          1           0       -4.334826   -0.470311   -0.454885
     21          1           0       -1.721366    1.096464    1.661032
     22          1           0       -1.023225   -0.505207    1.387189
     23          1           0        3.056006    1.811714   -0.432650
     24          1           0        2.976562   -0.623214    0.826053
     25          1           0        1.653104   -0.791188    1.994637
     26          1           0        1.392789   -2.657333   -1.503553
 ---------------------------------------------------------------------

 SCF Done:  E(UB3LYP) =  -631.402358842     A.U. after   33 cycles
 SCF Done:  E(UB3LYP) =  -631.402358842     a.u. after    1 cycles

 The electronic state is 2-A.
 Alpha  occ. eigenvalues --  -19.10667 -19.06834 -19.01737 -14.25927 -10.20842
 Alpha  occ. eigenvalues --  -10.14217 -10.10861 -10.09799 -10.09169 -10.08730
 Alpha  occ. eigenvalues --  -10.08554 -10.06741 -10.05621  -1.04232  -1.01059
 Alpha  occ. eigenvalues --   -0.92234  -0.77527  -0.73904  -0.70758  -0.65120
 Alpha  occ. eigenvalues --   -0.60435  -0.58993  -0.52736  -0.51192  -0.48672
 Alpha  occ. eigenvalues --   -0.46499  -0.41244  -0.39704  -0.39064  -0.37663
 Alpha  occ. eigenvalues --   -0.37156  -0.36787  -0.33759  -0.33554  -0.32416
 Alpha  occ. eigenvalues --   -0.31105  -0.30156  -0.29890  -0.29222  -0.28467
 Alpha  occ. eigenvalues --   -0.27535  -0.24712  -0.24289  -0.23728  -0.22423
 Alpha  occ. eigenvalues --   -0.21432  -0.20366  -0.18643  -0.15298   0.04438
 Alpha virt. eigenvalues --    0.06450   0.06882   0.07513   0.08354   0.09032
 Alpha virt. eigenvalues --    0.09367   0.09461   0.10260   0.11458   0.11956
 Alpha virt. eigenvalues --    0.12352   0.13234   0.13428   0.14176   0.14665

  Beta  occ. eigenvalues --  -19.10645 -19.06775 -19.01714 -14.25877 -10.20812
  Beta  occ. eigenvalues --  -10.14200 -10.10838 -10.09754 -10.09172 -10.08716
  Beta  occ. eigenvalues --  -10.08550 -10.06719 -10.05595  -1.04184  -1.00965
  Beta  occ. eigenvalues --   -0.92159  -0.77461  -0.73867  -0.70722  -0.65042
  Beta  occ. eigenvalues --   -0.60385  -0.58944  -0.52653  -0.51100  -0.48613
  Beta  occ. eigenvalues --   -0.46442  -0.41186  -0.39628  -0.39009  -0.37605
  Beta  occ. eigenvalues --   -0.37089  -0.36709  -0.33717  -0.33492  -0.32357
  Beta  occ. eigenvalues --   -0.31046  -0.30114  -0.29841  -0.29195  -0.28428
  Beta  occ. eigenvalues --   -0.27502  -0.24670  -0.24254  -0.23694  -0.22351
  Beta  occ. eigenvalues --   -0.21364  -0.20252  -0.18572  -0.15178
  Beta virt. eigenvalues --    0.06656   0.07435   0.07573   0.08393   0.08903
  Beta virt. eigenvalues --    0.09373   0.09606   0.10094   0.10645   0.11896
  Beta virt. eigenvalues --    0.12129   0.12637   0.13344   0.13559   0.14371

 Mulliken charges and spin densities:
               1          2
     1  C   -0.207039  -0.499652
     2  C   -0.792764   1.181102
     3  C    0.371229  -1.039631
     4  C    2.318393  -2.979177
     5  C   -0.441721   0.385162
     6  C   -0.959660   1.765827
     7  C   -0.118166  -0.056962
     8  N   -0.234454   0.036972
     9  O    0.123107   0.013580
    10  C    0.703788  -1.584308
    11  C    0.304184  -0.354648
    12  O   -0.281650   0.067294
    13  O   -0.188102   0.084460
    14  H   -0.019066   0.189670
    15  H    0.189331  -0.025751
    16  H   -0.255837   0.393509
    17  H    0.203856  -0.022485
    18  H    0.012750   0.128399
    19  H   -0.175554   0.300132
    20  H   -0.031298   0.164737
    21  H   -0.179143   0.393870
    22  H    0.373952  -0.202302
    23  H   -0.475550   0.678947
    24  H   -0.511257   0.713151
    25  H   -0.228850   0.449968
    26  H   -0.500479   0.818135
 Sum of Mulliken charges =  -1.00000   1.00000

 Dipole moment (field-independent basis, Debye):
    X=             -3.0637    Y=              2.2413    Z=              1.1736  Tot=              3.9733
 Quadrupole moment (field-independent basis, Debye-Ang):
   XX=           -132.5827   YY=           -129.7268   ZZ=           -111.2247
   XY=              2.4972   XZ=              1.1102   YZ=             -4.6460

 Summary of Natural Population Analysis:

                                       Natural Population
                Natural  -----------------------------------------------
    Atom  No    Charge         Core      Valence    Rydberg      Total
 -----------------------------------------------------------------------
      C    1   -0.29122      0.99964     2.28500    0.00657     3.29122
      C    2   -0.10793      0.99961     2.10015    0.00817     3.10793
      C    3   -0.28235      0.99965     2.27789    0.00480     3.28235
      C    4   -0.21719      0.99957     2.20800    0.00963     3.21719
      C    5    0.18696      0.99941     1.79804    0.01558     2.81304
      C    6   -0.08388      0.99942     2.07329    0.01118     3.08388
      C    7    0.00717      0.99958     1.97863    0.01462     2.99283
      N    8   -0.07591      0.99971     2.56387    0.01232     3.57591
      O    9   -0.16947      0.99985     3.16112    0.00850     4.16947
      C   10   -0.24264      0.99955     2.23242    0.01067     3.24264
      C   11    0.41410      0.99973     1.56098    0.02520     2.58590
      O   12   -0.30800      0.99987     3.30187    0.00626     4.30800
      O   13   -0.34216      0.99987     3.33518    0.00711     4.34216
      H   14    0.10437      0.00000     0.39432    0.00131     0.39563
      H   15    0.10311      0.00000     0.39553    0.00136     0.39689
      H   16    0.09851      0.00000     0.40061    0.00088     0.40149
      H   17    0.09503      0.00000     0.40313    0.00184     0.40497
      H   18    0.09797      0.00000     0.40102    0.00100     0.40203
      H   19    0.09803      0.00000     0.40085    0.00113     0.40197
      H   20    0.09890      0.00000     0.40011    0.00099     0.40110
      H   21    0.11044      0.00000     0.38816    0.00140     0.38956
      H   22    0.11491      0.00000     0.38367    0.00142     0.38509
      H   23    0.10608      0.00000     0.39252    0.00139     0.39392
      H   24    0.12227      0.00000     0.37405    0.00368     0.37773
      H   25    0.11617      0.00000     0.38245    0.00137     0.38383
      H   26    0.24674      0.00000     0.23597    0.01729     0.25326
 =======================================================================
   * Total *    0.00000     12.99547    35.82886    0.17568    49.00000

 Normal termination of Gaussian 16 at Sun Dec 13 13:01:15 2020.
