 Gaussian 16, Revision A.03,

 -----------------------------------------------------------
 # opt freq B3LYP/6-31G(d) empiricaldispersion=gd3bj scf=xqc
 -----------------------------------------------------------

 --------------------------------
 CID_114720947_JID_10639_neutraal
 --------------------------------
 Symbolic Z-matrix:
 Charge =  0 Multiplicity = 1

 SCF Done:  E(RB3LYP) =  -842.046266989     A.U. after   14 cycles
 SCF Done:  E(RB3LYP) =  -842.050650028     A.U. after   12 cycles
 SCF Done:  E(RB3LYP) =  -842.050880837     A.U. after   13 cycles
 SCF Done:  E(RB3LYP) =  -842.051837712     A.U. after   13 cycles
 SCF Done:  E(RB3LYP) =  -842.053809046     A.U. after   12 cycles
 SCF Done:  E(RB3LYP) =  -842.054031392     A.U. after   12 cycles
 SCF Done:  E(RB3LYP) =  -842.054125579     A.U. after   10 cycles
 SCF Done:  E(RB3LYP) =  -842.054157668     A.U. after   10 cycles
 SCF Done:  E(RB3LYP) =  -842.054160891     A.U. after   10 cycles
 SCF Done:  E(RB3LYP) =  -842.054164653     A.U. after    9 cycles
 SCF Done:  E(RB3LYP) =  -842.054165886     A.U. after    8 cycles
 SCF Done:  E(RB3LYP) =  -842.054166370     A.U. after    7 cycles
 SCF Done:  E(RB3LYP) =  -842.054166395     A.U. after    7 cycles
 Optimization completed.
    -- Stationary point found.
 Normal termination of Gaussian 16 at Sun Dec 13 13:16:24 2020.

 --------------------------------------------------------------------
 #N Geom=AllCheck Guess=TCheck SCRF=Check GenChk RB3LYP/6-31G(d) Freq
 --------------------------------------------------------------------

 Structure from the checkpoint file:  "JID_10639.chk"
 --------------------------------
 CID_114720947_JID_10639_neutraal
 --------------------------------
 Charge =  0 Multiplicity = 1

 SCF Done:  E(RB3LYP) =  -842.054166395     A.U. after    1 cycles

  Exact polarizability: 214.100  24.963 164.121  -3.255   7.522 166.054
 Approx polarizability: 294.061  50.681 262.475  -1.682  22.774 288.720

                      1                      2                      3
                      A                      A                      A
 Frequencies --     33.1244                56.4612                60.9638
 Red. masses --      3.8929                 5.0972                 4.6274
 Frc consts  --      0.0025                 0.0096                 0.0101
 IR Inten    --      0.7498                 1.6648                 0.7452

                      4                      5                      6
                      A                      A                      A
 Frequencies --     77.0801               105.0706               141.1297
 Red. masses --      4.0755                 4.4944                 4.0555
 Frc consts  --      0.0143                 0.0292                 0.0476
 IR Inten    --      0.6474                 1.5876                 0.1841

                      7                      8                      9
                      A                      A                      A
 Frequencies --    156.8977               171.5128               214.2231
 Red. masses --      2.5516                 3.7973                 3.2538
 Frc consts  --      0.0370                 0.0658                 0.0880
 IR Inten    --      0.2508                 0.1944                 1.1118

                     10                     11                     12
                      A                      A                      A
 Frequencies --    238.1773               278.7921               279.0390
 Red. masses --      4.0179                 3.1883                 1.4262
 Frc consts  --      0.1343                 0.1460                 0.0654
 IR Inten    --      1.0753                 1.5798                 0.4903

                     13                     14                     15
                      A                      A                      A
 Frequencies --    293.6084               317.9542               319.3567
 Red. masses --      3.0167                 1.9851                 1.2779
 Frc consts  --      0.1532                 0.1182                 0.0768
 IR Inten    --      0.6373                 0.1074                 0.2310

                     16                     17                     18
                      A                      A                      A
 Frequencies --    336.5867               357.5735               359.4808
 Red. masses --      3.1056                 4.0361                 2.4576
 Frc consts  --      0.2073                 0.3041                 0.1871
 IR Inten    --      2.0785                 2.5190                 0.5781

                     19                     20                     21
                      A                      A                      A
 Frequencies --    389.5947               409.3405               413.7396
 Red. masses --      2.0031                 1.2406                 2.3586
 Frc consts  --      0.1791                 0.1225                 0.2379
 IR Inten    --      0.5736                84.3239                 7.3666

                     22                     23                     24
                      A                      A                      A
 Frequencies --    433.3130               480.2211               507.8231
 Red. masses --      1.6599                 3.4941                 2.4453
 Frc consts  --      0.1836                 0.4748                 0.3715
 IR Inten    --      0.1658                10.6101                48.9841

                     25                     26                     27
                      A                      A                      A
 Frequencies --    539.4535               555.2182               567.5035
 Red. masses --      1.6072                 4.9085                 3.7465
 Frc consts  --      0.2756                 0.8915                 0.7109
 IR Inten    --    140.9970                 2.4927                23.3663

                     28                     29                     30
                      A                      A                      A
 Frequencies --    580.7162               606.5591               637.1707
 Red. masses --      3.3113                 4.4957                 3.4530
 Frc consts  --      0.6579                 0.9745                 0.8260
 IR Inten    --      7.4763                 3.0395                 4.7806

                     31                     32                     33
                      A                      A                      A
 Frequencies --    679.0427               701.1057               725.4980
 Red. masses --      4.4987                 4.3817                 4.1210
 Frc consts  --      1.2222                 1.2690                 1.2780
 IR Inten    --      9.3142                 3.0846                 2.1906

                     34                     35                     36
                      A                      A                      A
 Frequencies --    730.4535               773.6615               777.4121
 Red. masses --      4.7575                 4.4620                 2.6463
 Frc consts  --      1.4956                 1.5736                 0.9423
 IR Inten    --      0.5865                 5.6252                 0.6157

                     37                     38                     39
                      A                      A                      A
 Frequencies --    820.3786               829.2598               832.8902
 Red. masses --      1.3433                 1.9152                 1.4167
 Frc consts  --      0.5327                 0.7760                 0.5790
 IR Inten    --     19.8985                 0.6822                24.4961

                     40                     41                     42
                      A                      A                      A
 Frequencies --    841.8078               866.9674               871.5069
 Red. masses --      1.4052                 2.9367                 3.9457
 Frc consts  --      0.5867                 1.3005                 1.7657
 IR Inten    --      6.2250                 4.6577                 9.1250

                     43                     44                     45
                      A                      A                      A
 Frequencies --    880.1639               923.4577               941.1028
 Red. masses --      1.6924                 1.8171                 4.5093
 Frc consts  --      0.7725                 0.9130                 2.3531
 IR Inten    --      5.0296                 2.7670                30.6430

                     46                     47                     48
                      A                      A                      A
 Frequencies --    948.2619               956.5350               965.5823
 Red. masses --      1.3370                 2.3148                 1.8486
 Frc consts  --      0.7083                 1.2479                 1.0155
 IR Inten    --      0.9514                 1.1737                 0.2034

                     49                     50                     51
                      A                      A                      A
 Frequencies --    982.8897              1006.4215              1023.8252
 Red. masses --      1.4232                 2.0793                 1.9562
 Frc consts  --      0.8101                 1.2409                 1.2081
 IR Inten    --      0.9592                 0.0210                 1.7434

                     52                     53                     54
                      A                      A                      A
 Frequencies --   1032.2666              1063.9726              1076.7521
 Red. masses --      4.2864                 1.4042                 1.8939
 Frc consts  --      2.6911                 0.9366                 1.2937
 IR Inten    --     15.2199                 0.1001                 8.9467

                     55                     56                     57
                      A                      A                      A
 Frequencies --   1096.0775              1119.3546              1121.8717
 Red. masses --      1.7888                 1.5654                 2.1526
 Frc consts  --      1.2662                 1.1556                 1.5963
 IR Inten    --      1.3285                 0.7468                 1.8077

                     58                     59                     60
                      A                      A                      A
 Frequencies --   1148.7770              1154.3078              1166.8420
 Red. masses --      1.5818                 1.5440                 1.8380
 Frc consts  --      1.2299                 1.2121                 1.4744
 IR Inten    --      6.8754                 1.2785                16.8457

                     61                     62                     63
                      A                      A                      A
 Frequencies --   1169.8554              1184.7761              1219.8213
 Red. masses --      1.1017                 1.9468                 2.9632
 Frc consts  --      0.8884                 1.6101                 2.5978
 IR Inten    --      1.9223                 5.1844                 4.0858

                     64                     65                     66
                      A                      A                      A
 Frequencies --   1228.8428              1255.1857              1291.9382
 Red. masses --      1.8604                 1.4667                 1.8217
 Frc consts  --      1.6552                 1.3615                 1.7914
 IR Inten    --     16.9858                44.5931                 5.7264

                     67                     68                     69
                      A                      A                      A
 Frequencies --   1308.3672              1323.0519              1325.1645
 Red. masses --      1.9313                 1.2928                 3.6198
 Frc consts  --      1.9479                 1.3333                 3.7452
 IR Inten    --      7.6713                 6.5258                22.3301

                     70                     71                     72
                      A                      A                      A
 Frequencies --   1327.9779              1342.2578              1346.4406
 Red. masses --      2.0672                 2.0551                 1.9198
 Frc consts  --      2.1479                 2.1815                 2.0506
 IR Inten    --      6.0990                17.8439                 2.6953

                     73                     74                     75
                      A                      A                      A
 Frequencies --   1352.1958              1372.3814              1375.0280
 Red. masses --      2.0204                 1.8850                 1.8598
 Frc consts  --      2.1765                 2.0918                 2.0717
 IR Inten    --      4.6634                13.1718                 4.5988

                     76                     77                     78
                      A                      A                      A
 Frequencies --   1389.3675              1397.2064              1409.5009
 Red. masses --      1.3110                 2.8450                 1.3324
 Frc consts  --      1.4911                 3.2724                 1.5596
 IR Inten    --      0.2134                19.4307                 2.6124

                     79                     80                     81
                      A                      A                      A
 Frequencies --   1412.6450              1418.3510              1422.7591
 Red. masses --      1.3619                 1.5427                 1.4383
 Frc consts  --      1.6012                 1.8285                 1.7154
 IR Inten    --      2.5111                 1.8176                 1.2849

                     82                     83                     84
                      A                      A                      A
 Frequencies --   1434.8711              1447.5021              1450.2425
 Red. masses --      1.7380                 1.2809                 1.2938
 Frc consts  --      2.1082                 1.5812                 1.6032
 IR Inten    --     13.5293                 8.0247                10.5822

                     85                     86                     87
                      A                      A                      A
 Frequencies --   1456.2297              1509.0305              1511.6645
 Red. masses --      2.0084                 1.1652                 1.0928
 Frc consts  --      2.5094                 1.5633                 1.4713
 IR Inten    --     11.4509                 5.2128                 3.9285

                     88                     89                     90
                      A                      A                      A
 Frequencies --   1519.0534              1524.5049              1528.4245
 Red. masses --      2.0907                 1.2158                 1.0672
 Frc consts  --      2.8425                 1.6649                 1.4688
 IR Inten    --     34.6260                 6.7005                 7.6141

                     91                     92                     93
                      A                      A                      A
 Frequencies --   1533.8955              1541.9140              1544.6570
 Red. masses --      1.0638                 2.1311                 1.1395
 Frc consts  --      1.4746                 2.9852                 1.6019
 IR Inten    --      5.0219                29.9652                 9.0759

                     94                     95                     96
                      A                      A                      A
 Frequencies --   1554.8611              1592.9225              1618.7613
 Red. masses --      1.0600                 5.6017                 4.7160
 Frc consts  --      1.5098                 8.3746                 7.2809
 IR Inten    --     14.5770                24.5956                30.6406

                     97                     98                     99
                      A                      A                      A
 Frequencies --   1652.9002              1681.2715              3009.6836
 Red. masses --      3.6214                 1.4517                 1.0775
 Frc consts  --      5.8294                 2.4177                 5.7504
 IR Inten    --     35.4966               183.9509                 1.5172

                    100                    101                    102
                      A                      A                      A
 Frequencies --   3016.3435              3030.1147              3043.3826
 Red. masses --      1.0829                 1.0697                 1.0728
 Frc consts  --      5.8052                 5.7869                 5.8546
 IR Inten    --     27.9791                46.4389                37.6359

                    103                    104                    105
                      A                      A                      A
 Frequencies --   3045.4778              3050.1741              3055.0738
 Red. masses --      1.0573                 1.0553                 1.0443
 Frc consts  --      5.7779                 5.7846                 5.7425
 IR Inten    --     15.8146                36.3382                26.4984

                    106                    107                    108
                      A                      A                      A
 Frequencies --   3066.7090              3067.2971              3087.5226
 Red. masses --      1.0808                 1.0971                 1.1002
 Frc consts  --      5.9890                 6.0815                 6.1795
 IR Inten    --     21.0322                64.6979                24.8638

                    109                    110                    111
                      A                      A                      A
 Frequencies --   3102.2274              3114.7714              3145.7901
 Red. masses --      1.1006                 1.1018                 1.0891
 Frc consts  --      6.2405                 6.2978                 6.3499
 IR Inten    --     41.1100                26.5206                 9.4800

                    112                    113                    114
                      A                      A                      A
 Frequencies --   3149.8784              3161.2870              3167.9854
 Red. masses --      1.0978                 1.0893                 1.0938
 Frc consts  --      6.4175                 6.4139                 6.4678
 IR Inten    --     28.5068                27.3891                21.6048

                    115                    116                    117
                      A                      A                      A
 Frequencies --   3168.9917              3193.6644              3244.9032
 Red. masses --      1.0884                 1.0945                 1.0961
 Frc consts  --      6.4399                 6.5770                 6.7999
 IR Inten    --     21.4883                28.1601                 7.8555

                    118                    119                    120
                      A                      A                      A
 Frequencies --   3329.2843              3567.2896              3678.6202
 Red. masses --      1.0950                 1.0473                 1.1004
 Frc consts  --      7.1512                 7.8522                 8.7731
 IR Inten    --      0.4171                27.4800                37.1727

 - Thermochemistry -
 -------------------
 Temperature   298.150 Kelvin.  Pressure   1.00000 Atm.
 Atom     1 has atomic number  6 and mass  12.00000

 Molecular mass:   270.18445 amu.
 Principal axes and moments of inertia in atomic units:
                           1         2         3
     Eigenvalues --  3043.671767037.732727665.30577
           X            0.99995  -0.00615  -0.00728
           Y            0.00608   0.99995  -0.00828
           Z            0.00733   0.00824   0.99994
 This molecule is an asymmetric top.
 Rotational symmetry number  1.
 Warning -- assumption of classical behavior for rotation
           may cause significant error
 Rotational temperatures (Kelvin)      0.02846     0.01231     0.01130
 Rotational constants (GHZ):           0.59295     0.25644     0.23544
 Zero-point vibrational energy     965676.0 (Joules/Mol)
                                  230.80211 (Kcal/Mol)
 Warning -- explicit consideration of  29 degrees of freedom as
           vibrations may cause significant error
 Vibrational temperatures:     47.66    81.24    87.71   110.90   151.17
          (Kelvin)            203.05   225.74   246.77   308.22   342.68
                              401.12   401.47   422.44   457.47   459.48
                              484.27   514.47   517.21   560.54   588.95
                              595.28   623.44   690.93   730.64   776.15
                              798.84   816.51   835.52   872.70   916.75
                              976.99  1008.73  1043.83  1050.96  1113.13
                             1118.52  1180.34  1193.12  1198.34  1211.17
                             1247.37  1253.90  1266.36  1328.65  1354.04
                             1364.34  1376.24  1389.26  1414.16  1448.02
                             1473.06  1485.20  1530.82  1549.21  1577.01
                             1610.50  1614.12  1652.83  1660.79  1678.83
                             1683.16  1704.63  1755.05  1768.03  1805.93
                             1858.81  1882.45  1903.58  1906.62  1910.66
                             1931.21  1937.23  1945.51  1974.55  1978.36
                             1998.99  2010.27  2027.96  2032.48  2040.69
                             2047.03  2064.46  2082.63  2086.58  2095.19
                             2171.16  2174.95  2185.58  2193.42  2199.06
                             2206.93  2218.47  2222.42  2237.10  2291.86
                             2329.04  2378.15  2418.97  4330.26  4339.85
                             4359.66  4378.75  4381.76  4388.52  4395.57
                             4412.31  4413.16  4442.26  4463.41  4481.46
                             4526.09  4531.97  4548.39  4558.02  4559.47
                             4594.97  4668.69  4790.10  5132.53  5292.71

 Zero-point correction=                           0.367807 (Hartree/Particle)
 Thermal correction to Energy=                    0.385384
 Thermal correction to Enthalpy=                  0.386329
 Thermal correction to Gibbs Free Energy=         0.322994
 Sum of electronic and zero-point Energies=           -841.686360
 Sum of electronic and thermal Energies=              -841.668782
 Sum of electronic and thermal Enthalpies=            -841.667838
 Sum of electronic and thermal Free Energies=         -841.731173

                     E (Thermal)             CV                S
                      KCal/Mol        Cal/Mol-Kelvin    Cal/Mol-Kelvin
 Total                  241.832             71.455            133.299
 Electronic               0.000              0.000              0.000
 Translational            0.889              2.981             42.681
 Rotational               0.889              2.981             33.462
 Vibrational            240.055             65.493             57.157
 Vibration     1          0.594              1.983              5.633
 Vibration     2          0.596              1.975              4.577
 Vibration     3          0.597              1.973              4.426
 Vibration     4          0.599              1.964              3.964
 Vibration     5          0.605              1.945              3.358
 Vibration     6          0.615              1.912              2.789
 Vibration     7          0.621              1.895              2.587
 Vibration     8          0.626              1.878              2.419
 Vibration     9          0.644              1.819              2.007
 Vibration    10          0.656              1.782              1.816
 Vibration    11          0.679              1.713              1.541
 Vibration    12          0.679              1.712              1.540
 Vibration    13          0.688              1.686              1.453
 Vibration    14          0.704              1.639              1.321
 Vibration    15          0.705              1.637              1.313
 Vibration    16          0.717              1.602              1.228
 Vibration    17          0.733              1.560              1.133
 Vibration    18          0.734              1.556              1.124
 Vibration    19          0.758              1.492              1.002
 Vibration    20          0.774              1.450              0.929
 Vibration    21          0.777              1.440              0.913
 Vibration    22          0.794              1.398              0.848
 Vibration    23          0.837              1.294              0.709
 Vibration    24          0.863              1.233              0.639
 Vibration    25          0.895              1.163              0.566
 Vibration    26          0.911              1.128              0.533
 Vibration    27          0.923              1.102              0.509
 Vibration    28          0.937              1.073              0.484
 Vibration    29          0.965              1.018              0.439

 Optimization completed.
    -- Stationary point found.
 Normal termination of Gaussian 16 at Sun Dec 13 13:43:00 2020.

 ----------------------------------------------------------------------
 # B3LYP/6-311++G(d,p) empiricaldispersion=gd3bj scf=xqc pop=npa geom=c
 heck
 ----------------------------------------------------------------------

 ----------------------------------------
 CID_114720947_JID_10639_Energie_neutraal
 ----------------------------------------
 Structure from the checkpoint file:  "JID_10639.chk"
 Charge =  0 Multiplicity = 1

 SCF Done:  E(RB3LYP) =  -842.277892146     A.U. after   16 cycles
 Normal termination of Gaussian 16 at Sun Dec 13 13:54:15 2020.

 ----------------------------------------------------------------------
 # B3LYP/6-311++G(d,p) empiricaldispersion=gd3bj scf=xqc pop=npa geom=c
 heck
 ----------------------------------------------------------------------

 --------------------------------------
 CID_114720947_JID_10639_Energie_kation
 --------------------------------------
 Structure from the checkpoint file:  "JID_10639.chk"
 Charge =  1 Multiplicity = 2

 SCF Done:  E(UB3LYP) =  -841.992244352     A.U. after   24 cycles
 Normal termination of Gaussian 16 at Sun Dec 13 14:17:11 2020.
 Gaussian 16:  ES64L-G16RevA.03 25-Dec-2016

 ----------------------------------------------------------------------
 # B3LYP/6-311++G(d,p) empiricaldispersion=gd3bj scf=xqc pop=npa geom=c
 heck
 ----------------------------------------------------------------------

 -------------------------------------
 CID_114720947_JID_10639_Energie_anion
 -------------------------------------
 Structure from the checkpoint file:  "JID_10639.chk"
 Charge = -1 Multiplicity = 2

                         Standard orientation:
 ---------------------------------------------------------------------
 Center     Atomic      Atomic             Coordinates (Angstroms)
 Number     Number       Type             X           Y           Z
 ---------------------------------------------------------------------
      1          6           0        4.035340    0.499863    0.224086
      2          6           0        3.468954   -0.681783   -0.578025
      3          6           0        3.022647   -1.854582    0.320599
      4          6           0        1.593915   -1.748933    0.887544
      5          6           0        0.602613   -1.527673   -0.265276
      6          6           0        0.904616   -0.313408   -1.165696
      7          6           0        2.376912   -0.339735   -1.625859
      8          7           0        0.485703    0.972175   -0.566275
      9          6           0        1.241768    2.092467   -0.344267
     10          7           0        0.556764    3.068155    0.219997
     11          6           0       -0.715314    2.571267    0.358557
     12          6           0       -0.803715    1.281882   -0.129407
     13          6           0       -1.972955    0.396586   -0.252521
     14          6           0       -2.643730   -0.088532    0.897265
     15          6           0       -3.764002   -0.910460    0.692574
     16          6           0       -4.153498   -1.215608   -0.604745
     17          7           0       -3.535385   -0.766256   -1.707104
     18          6           0       -2.478830    0.026827   -1.502318
     19          7           0       -2.168098    0.181388    2.161438
     20          6           0        1.417021   -0.741868    2.034801
     21          1           0        3.323126    0.932904    0.927465
     22          1           0        4.381033    1.298982   -0.443469
     23          1           0        4.902124    0.163257    0.804522
     24          1           0        4.316446   -1.051143   -1.172082
     25          1           0        3.066602   -2.775785   -0.277499
     26          1           0        3.744244   -1.983482    1.137495
     27          1           0        1.357526   -2.735907    1.309604
     28          1           0       -0.418998   -1.470845    0.113939
     29          1           0        0.636675   -2.404876   -0.925727
     30          1           0        0.291634   -0.421096   -2.067012
     31          1           0        2.628603    0.582158   -2.162514
     32          1           0        2.406704   -1.135817   -2.380279
     33          1           0        2.280971    2.150350   -0.617231
     34          1           0       -1.520525    3.172776    0.761349
     35          1           0       -4.310068   -1.314865    1.540650
     36          1           0       -5.016908   -1.858075   -0.769676
     37          1           0       -1.990483    0.413874   -2.395873
     38          1           0       -2.816592    0.090866    2.930548
     39          1           0       -1.517741    0.952780    2.238673
     40          1           0        0.413321   -0.838007    2.463147
     41          1           0        2.148416   -0.929697    2.829661
     42          1           0        1.530554    0.295555    1.714038
 ---------------------------------------------------------------------

 SCF Done:  E(UB3LYP) =  -842.272263702     A.U. after   33 cycles
 SCF Done:  E(UB3LYP) =  -842.272263702     a.u. after    1 cycles

 The electronic state is 2-A.
 Alpha  occ. eigenvalues --  -14.27947 -14.23705 -14.21031 -14.20423 -10.14271
 Alpha  occ. eigenvalues --  -10.13246 -10.12908 -10.11541 -10.11530 -10.11402
 Alpha  occ. eigenvalues --  -10.09767 -10.09361 -10.08717 -10.08616 -10.08483
 Alpha  occ. eigenvalues --  -10.08060 -10.07495 -10.07117 -10.07083 -10.06007
 Alpha  occ. eigenvalues --   -0.92704  -0.85751  -0.83189  -0.80183  -0.74416
 Alpha  occ. eigenvalues --   -0.70873  -0.68519  -0.68147  -0.66847  -0.63764
 Alpha  occ. eigenvalues --   -0.59785  -0.59205  -0.55614  -0.54598  -0.53852
 Alpha  occ. eigenvalues --   -0.51242  -0.48945  -0.47797  -0.45762  -0.44540
 Alpha  occ. eigenvalues --   -0.43912  -0.41458  -0.40612  -0.37841  -0.37142
 Alpha  occ. eigenvalues --   -0.36451  -0.35898  -0.35080  -0.34991  -0.34490
 Alpha  occ. eigenvalues --   -0.33626  -0.33089  -0.32593  -0.31797  -0.31688
 Alpha  occ. eigenvalues --   -0.31457  -0.30844  -0.27837  -0.27330  -0.27140
 Alpha  occ. eigenvalues --   -0.26727  -0.25908  -0.25461  -0.24828  -0.22789
 Alpha  occ. eigenvalues --   -0.21736  -0.20756  -0.19212  -0.18295  -0.17287
 Alpha  occ. eigenvalues --   -0.16963  -0.14894  -0.13001   0.03564
 Alpha virt. eigenvalues --    0.05105   0.05950   0.06922   0.07048   0.07524
 Alpha virt. eigenvalues --    0.07689   0.08100   0.08903   0.09294   0.09682
 Alpha virt. eigenvalues --    0.10027   0.10516   0.10621   0.11090   0.11404

  Beta  occ. eigenvalues --  -14.27937 -14.23655 -14.21039 -14.20426 -10.14262
  Beta  occ. eigenvalues --  -10.13242 -10.12896 -10.11527 -10.11515 -10.11366
  Beta  occ. eigenvalues --  -10.09739 -10.09349 -10.08706 -10.08593 -10.08463
  Beta  occ. eigenvalues --  -10.08054 -10.07482 -10.07098 -10.07070 -10.05994
  Beta  occ. eigenvalues --   -0.92685  -0.85714  -0.83144  -0.80167  -0.74385
  Beta  occ. eigenvalues --   -0.70812  -0.68488  -0.68096  -0.66816  -0.63724
  Beta  occ. eigenvalues --   -0.59752  -0.59169  -0.55560  -0.54558  -0.53793
  Beta  occ. eigenvalues --   -0.51211  -0.48910  -0.47762  -0.45727  -0.44483
  Beta  occ. eigenvalues --   -0.43862  -0.41394  -0.40574  -0.37793  -0.37091
  Beta  occ. eigenvalues --   -0.36422  -0.35861  -0.35039  -0.34956  -0.34459
  Beta  occ. eigenvalues --   -0.33594  -0.33047  -0.32565  -0.31774  -0.31649
  Beta  occ. eigenvalues --   -0.31417  -0.30812  -0.27803  -0.27303  -0.27112
  Beta  occ. eigenvalues --   -0.26698  -0.25859  -0.25419  -0.24798  -0.22756
  Beta  occ. eigenvalues --   -0.21704  -0.20721  -0.19162  -0.18250  -0.17234
  Beta  occ. eigenvalues --   -0.16907  -0.14819  -0.12927
  Beta virt. eigenvalues --    0.05720   0.06258   0.06448   0.07114   0.07338
  Beta virt. eigenvalues --    0.07869   0.07996   0.08532   0.09127   0.09502
  Beta virt. eigenvalues --    0.09851   0.10273   0.10638   0.10989   0.11311

 Mulliken charges and spin densities:
               1          2
     1  C   -0.019696  -0.639052
     2  C    0.101904   0.341521
     3  C    0.310612  -1.033579
     4  C    0.281295   0.014940
     5  C   -0.946465   0.325659
     6  C    0.897996  -0.235457
     7  C   -0.411587  -0.592036
     8  N   -0.029332   0.067846
     9  C   -0.186922   0.000191
    10  N   -0.012597   0.015552
    11  C    0.306987  -0.644879
    12  C    0.393862  -0.405214
    13  C    1.771918  -1.194116
    14  C   -0.768385   0.372895
    15  C   -1.094073   0.862038
    16  C    0.173073  -0.471651
    17  N   -0.060169   0.009584
    18  C   -0.431553  -0.036337
    19  N   -0.319357  -0.003243
    20  C   -0.414002  -0.372789
    21  H    0.110929   0.044695
    22  H    0.002465   0.130829
    23  H   -0.010212   0.147828
    24  H   -0.362584   0.577864
    25  H   -0.123037   0.270724
    26  H    0.023703   0.137298
    27  H   -0.082915   0.300846
    28  H    0.190113   0.024102
    29  H   -0.125069   0.319977
    30  H    0.274165  -0.032498
    31  H   -0.136944   0.308531
    32  H   -0.268766   0.452277
    33  H    0.235037  -0.059288
    34  H    0.053450   0.099119
    35  H   -0.562214   0.728644
    36  H    0.139168   0.019212
    37  H    0.028690   0.151577
    38  H   -0.337713   0.638942
    39  H    0.193794   0.084775
    40  H    0.052571   0.111197
    41  H   -0.008979   0.153079
    42  H    0.170839   0.008393
 Sum of Mulliken charges =  -1.00000   1.00000

 Dipole moment (field-independent basis, Debye):
    X=              0.4441    Y=              1.5952    Z=             -0.8731  Tot=              1.8720
 Quadrupole moment (field-independent basis, Debye-Ang):
   XX=           -197.2680   YY=           -170.3912   ZZ=           -172.6470
   XY=              2.3436   XZ=             11.1194   YZ=             -3.2980

 Summary of Natural Population Analysis:

                                       Natural Population
                Natural  -----------------------------------------------
    Atom  No    Charge         Core      Valence    Rydberg      Total
 -----------------------------------------------------------------------
      C    1   -0.28702      0.99964     2.28112    0.00626     3.28702
      C    2   -0.11436      0.99959     2.10307    0.01170     3.11436
      C    3   -0.18564      0.99959     2.17573    0.01032     3.18564
      C    4   -0.11209      0.99959     2.10187    0.01063     3.11209
      C    5   -0.19161      0.99958     2.18273    0.00931     3.19161
      C    6   -0.00196      0.99956     1.98932    0.01308     3.00196
      C    7   -0.19329      0.99959     2.18351    0.01019     3.19329
      N    8   -0.20392      0.99961     2.69338    0.01093     3.70392
      C    9    0.10275      0.99962     1.88190    0.01572     2.89725
      N   10   -0.25746      0.99973     2.74744    0.01029     3.75746
      C   11   -0.03011      0.99951     2.01781    0.01279     3.03011
      C   12    0.04990      0.99949     1.93768    0.01293     2.95010
      C   13   -0.08327      0.99945     2.07406    0.00977     3.08327
      C   14    0.11218      0.99946     1.87577    0.01259     2.88782
      C   15   -0.14550      0.99951     2.13639    0.00960     3.14550
      C   16    0.03656      0.99959     1.94906    0.01480     2.96344
      N   17   -0.25423      0.99971     2.74310    0.01142     3.75423
      C   18    0.04637      0.99954     1.94127    0.01282     2.95363
      N   19   -0.38684      0.99970     2.87751    0.00963     3.88684
      C   20   -0.28861      0.99964     2.28297    0.00601     3.28861
      H   21    0.09991      0.00000     0.39886    0.00123     0.40009
      H   22    0.09577      0.00000     0.40342    0.00081     0.40423
      H   23    0.09978      0.00000     0.39943    0.00078     0.40022
      H   24    0.09894      0.00000     0.39887    0.00218     0.40106
      H   25    0.10088      0.00000     0.39769    0.00142     0.39912
      H   26    0.09840      0.00000     0.40062    0.00098     0.40160
      H   27    0.09780      0.00000     0.40076    0.00144     0.40220
      H   28    0.10940      0.00000     0.38846    0.00214     0.39060
      H   29    0.10372      0.00000     0.39502    0.00126     0.39628
      H   30    0.10240      0.00000     0.39583    0.00178     0.39760
      H   31    0.10248      0.00000     0.39630    0.00122     0.39752
      H   32    0.10949      0.00000     0.38904    0.00147     0.39051
      H   33    0.09825      0.00000     0.39970    0.00204     0.40175
      H   34    0.09798      0.00000     0.40091    0.00111     0.40202
      H   35    0.10568      0.00000     0.39298    0.00134     0.39432
      H   36    0.08792      0.00000     0.41091    0.00116     0.41208
      H   37    0.08960      0.00000     0.40873    0.00167     0.41040
      H   38    0.19427      0.00000     0.29953    0.00620     0.30573
      H   39    0.19702      0.00000     0.30060    0.00238     0.30298
      H   40    0.10556      0.00000     0.39297    0.00147     0.39444
      H   41    0.09636      0.00000     0.40283    0.00081     0.40364
      H   42    0.09652      0.00000     0.40214    0.00133     0.40348
 =======================================================================
   * Total *   -0.00000     19.99173    52.75130    0.25697    73.00000

 Normal termination of Gaussian 16 at Sun Dec 13 14:47:27 2020.
