 Gaussian 16, Revision A.03,

 -----------------------------------------------------------
 # opt freq B3LYP/6-31G(d) empiricaldispersion=gd3bj scf=xqc
 -----------------------------------------------------------

 ------------------------------
 CID_62402507_JID_5584_neutraal
 ------------------------------
 Symbolic Z-matrix:
 Charge =  0 Multiplicity = 1

 SCF Done:  E(RB3LYP) =  -1333.52428321     A.U. after   15 cycles
 SCF Done:  E(RB3LYP) =  -1333.52891957     A.U. after   13 cycles
 SCF Done:  E(RB3LYP) =  -1333.52967213     A.U. after   12 cycles
 SCF Done:  E(RB3LYP) =  -1333.52992402     A.U. after   12 cycles
 SCF Done:  E(RB3LYP) =  -1333.53008742     A.U. after   11 cycles
 SCF Done:  E(RB3LYP) =  -1333.53022618     A.U. after   12 cycles
 SCF Done:  E(RB3LYP) =  -1333.53033845     A.U. after   11 cycles
 SCF Done:  E(RB3LYP) =  -1333.53037347     A.U. after   11 cycles
 SCF Done:  E(RB3LYP) =  -1333.53035373     A.U. after   10 cycles
 SCF Done:  E(RB3LYP) =  -1333.53042453     A.U. after   11 cycles
 SCF Done:  E(RB3LYP) =  -1333.53092275     A.U. after   11 cycles
 SCF Done:  E(RB3LYP) =  -1333.53092379     A.U. after    9 cycles
 SCF Done:  E(RB3LYP) =  -1333.53092314     A.U. after   10 cycles
 SCF Done:  E(RB3LYP) =  -1333.53092487     A.U. after    9 cycles
 SCF Done:  E(RB3LYP) =  -1333.53092483     A.U. after    7 cycles
 SCF Done:  E(RB3LYP) =  -1333.53092493     A.U. after    7 cycles
 Optimization completed.
    -- Stationary point found.
 Normal termination of Gaussian 16 at Thu Dec 10 16:34:50 2020.

 --------------------------------------------------------------------
 #N Geom=AllCheck Guess=TCheck SCRF=Check GenChk RB3LYP/6-31G(d) Freq
 --------------------------------------------------------------------

 Structure from the checkpoint file:  "JID_5584.chk"
 ------------------------------
 CID_62402507_JID_5584_neutraal
 ------------------------------
 Charge =  0 Multiplicity = 1

 SCF Done:  E(RB3LYP) =  -1333.53092493     A.U. after    1 cycles

  Exact polarizability: 247.343 -13.141 158.627  19.970  14.101 104.656
 Approx polarizability: 353.966 -20.336 296.130  46.525  41.011 166.037

                      1                      2                      3
                      A                      A                      A
 Frequencies --     25.2136                32.8891                49.1163
 Red. masses --      3.9115                 5.5944                 4.7278
 Frc consts  --      0.0015                 0.0036                 0.0067
 IR Inten    --      0.0617                 0.0240                 0.1753

                      4                      5                      6
                      A                      A                      A
 Frequencies --     78.4382                86.5004                96.3943
 Red. masses --      1.6657                 2.2873                 2.3196
 Frc consts  --      0.0060                 0.0101                 0.0127
 IR Inten    --      0.3913                 0.4765                 0.1564

                      7                      8                      9
                      A                      A                      A
 Frequencies --    107.8819               149.6513               185.1619
 Red. masses --      2.1085                 3.9917                 4.0164
 Frc consts  --      0.0145                 0.0527                 0.0811
 IR Inten    --      1.3367                 2.3696                 1.0382

                     10                     11                     12
                      A                      A                      A
 Frequencies --    231.7309               253.1047               263.4761
 Red. masses --      3.9715                 2.6589                 1.4596
 Frc consts  --      0.1257                 0.1004                 0.0597
 IR Inten    --      1.4496                 1.7244                 0.6720

                     13                     14                     15
                      A                      A                      A
 Frequencies --    289.5967               308.4214               338.4558
 Red. masses --      5.1938                 3.7138                 2.2421
 Frc consts  --      0.2566                 0.2081                 0.1513
 IR Inten    --      1.4914                 0.7688                 4.0658

                     16                     17                     18
                      A                      A                      A
 Frequencies --    372.1606               442.7589               472.4142
 Red. masses --      5.3690                 3.8373                 5.5501
 Frc consts  --      0.4381                 0.4432                 0.7298
 IR Inten    --      1.4315                 1.3885                 1.2990

                     19                     20                     21
                      A                      A                      A
 Frequencies --    521.9853               554.0091               581.9100
 Red. masses --      5.1374                 4.7571                 3.6608
 Frc consts  --      0.8247                 0.8602                 0.7304
 IR Inten    --      2.2250                 1.2223                 0.8218

                     22                     23                     24
                      A                      A                      A
 Frequencies --    612.1286               637.6760               657.7718
 Red. masses --      5.6560                 7.1244                 6.5940
 Frc consts  --      1.2487                 1.7069                 1.6809
 IR Inten    --      1.0688                 0.7086                 1.0162

                     25                     26                     27
                      A                      A                      A
 Frequencies --    685.6206               710.2711               722.0024
 Red. masses --      2.8857                 1.1677                 9.7204
 Frc consts  --      0.7992                 0.3471                 2.9855
 IR Inten    --     17.0241                62.2585                15.5627

                     28                     29                     30
                      A                      A                      A
 Frequencies --    750.2633               789.3589               830.8450
 Red. masses --      6.6659                 1.7342                 1.2868
 Frc consts  --      2.2107                 0.6366                 0.5233
 IR Inten    --      3.0660               131.8440                 4.6909

                     31                     32                     33
                      A                      A                      A
 Frequencies --    833.4514               841.5285               863.2780
 Red. masses --      1.3453                 3.4806                 2.9525
 Frc consts  --      0.5506                 1.4523                 1.2964
 IR Inten    --      6.8219                 9.0963                71.6264

                     34                     35                     36
                      A                      A                      A
 Frequencies --    895.2145               910.4730               940.4336
 Red. masses --      2.8304                 1.3233                 2.3886
 Frc consts  --      1.3365                 0.6463                 1.2446
 IR Inten    --     26.3178                 0.1653                 8.1598

                     37                     38                     39
                      A                      A                      A
 Frequencies --   1011.8116              1037.0226              1053.5668
 Red. masses --      1.8439                 2.2919                 2.0834
 Frc consts  --      1.1122                 1.4522                 1.3625
 IR Inten    --      8.0719                 3.9491                 8.7807

                     40                     41                     42
                      A                      A                      A
 Frequencies --   1075.5423              1086.8233              1118.4317
 Red. masses --      1.5022                 1.6129                 1.1434
 Frc consts  --      1.0238                 1.1225                 0.8427
 IR Inten    --      1.1572                12.9151                 3.8605

                     43                     44                     45
                      A                      A                      A
 Frequencies --   1130.5981              1163.6825              1187.2108
 Red. masses --      3.0781                 2.2886                 3.6174
 Frc consts  --      2.3182                 1.8259                 3.0040
 IR Inten    --     36.4566                14.4966                 6.9103

                     46                     47                     48
                      A                      A                      A
 Frequencies --   1193.8713              1261.3711              1274.9357
 Red. masses --      1.8682                 2.8799                 2.1148
 Frc consts  --      1.5688                 2.6997                 2.0253
 IR Inten    --     15.6197                 2.4470                32.1056

                     49                     50                     51
                      A                      A                      A
 Frequencies --   1296.2690              1340.4614              1346.1753
 Red. masses --      1.3040                 1.5131                 2.5737
 Frc consts  --      1.2910                 1.6018                 2.7480
 IR Inten    --      1.9583                11.9669                 3.8050

                     52                     53                     54
                      A                      A                      A
 Frequencies --   1380.7714              1396.1508              1410.1320
 Red. masses --      1.2872                 2.5871                 1.2896
 Frc consts  --      1.4458                 2.9712                 1.5108
 IR Inten    --     41.1960                 2.2832                 3.5193

                     55                     56                     57
                      A                      A                      A
 Frequencies --   1442.5784              1442.9071              1480.2708
 Red. masses --      1.2991                 1.3119                 5.7257
 Frc consts  --      1.5928                 1.6092                 7.3920
 IR Inten    --      3.4260                 6.2609                27.5385

                     58                     59                     60
                      A                      A                      A
 Frequencies --   1494.0049              1505.9000              1508.1869
 Red. masses --      1.1066                 1.0502                 1.1422
 Frc consts  --      1.4553                 1.4032                 1.5308
 IR Inten    --      1.5444                11.7153                 9.5797

                     61                     62                     63
                      A                      A                      A
 Frequencies --   1517.8706              1528.5124              1531.0377
 Red. masses --      1.1445                 1.0728                 3.8701
 Frc consts  --      1.5536                 1.4767                 5.3450
 IR Inten    --     13.1216                11.9881                27.6264

                     64                     65                     66
                      A                      A                      A
 Frequencies --   1532.2020              1554.6221              1593.6019
 Red. masses --      1.1856                 1.0893                 4.9429
 Frc consts  --      1.6400                 1.5511                 7.3960
 IR Inten    --     12.0970                 4.0948                17.0386

                     67                     68                     69
                      A                      A                      A
 Frequencies --   1611.5915              2972.1682              3045.6090
 Red. masses --      6.5713                 1.0713                 1.0565
 Frc consts  --     10.0557                 5.5758                 5.7738
 IR Inten    --     30.2020                48.3592                14.5792

                     70                     71                     72
                      A                      A                      A
 Frequencies --   3051.2157              3057.0792              3060.2826
 Red. masses --      1.0690                 1.0463                 1.0523
 Frc consts  --      5.8639                 5.7616                 5.8062
 IR Inten    --     32.1436                22.6622                45.7369

                     73                     74                     75
                      A                      A                      A
 Frequencies --   3101.2495              3112.0026              3112.4972
 Red. masses --      1.1042                 1.0991                 1.1010
 Frc consts  --      6.2571                 6.2716                 6.2840
 IR Inten    --     17.0059                42.7404                13.7077

                     76                     77                     78
                      A                      A                      A
 Frequencies --   3133.4705              3152.0786              3217.2089
 Red. masses --      1.1033                 1.0997                 1.0893
 Frc consts  --      6.3827                 6.4378                 6.6429
 IR Inten    --     25.9471                19.4294                 9.1765

                     79                     80                     81
                      A                      A                      A
 Frequencies --   3232.7642              3269.7823              3472.5649
 Red. masses --      1.0946                 1.0971                 1.0737
 Frc consts  --      6.7397                 6.9107                 7.6281
 IR Inten    --      6.6567                 0.5958                 1.0424

 - Thermochemistry -
 -------------------
 Temperature   298.150 Kelvin.  Pressure   1.00000 Atm.
 Atom     1 has atomic number  6 and mass  12.00000

 Molecular mass:   238.05984 amu.
 Principal axes and moments of inertia in atomic units:
                           1         2         3
     Eigenvalues --  1742.952867793.995698331.40950
           X            0.99991  -0.00781  -0.01136
           Y            0.00732   0.99909  -0.04190
           Z            0.01167   0.04182   0.99906
 This molecule is an asymmetric top.
 Rotational symmetry number  1.
 Warning -- assumption of classical behavior for rotation
           may cause significant error
 Rotational temperatures (Kelvin)      0.04969     0.01111     0.01040
 Rotational constants (GHZ):           1.03545     0.23156     0.21662
 Zero-point vibrational energy     613802.0 (Joules/Mol)
                                  146.70219 (Kcal/Mol)
 Warning -- explicit consideration of  22 degrees of freedom as
           vibrations may cause significant error
 Vibrational temperatures:     36.28    47.32    70.67   112.86   124.45
          (Kelvin)            138.69   155.22   215.31   266.41   333.41
                              364.16   379.08   416.67   443.75   486.96
                              535.46   637.03   679.70   751.02   797.10
                              837.24   880.72   917.47   946.39   986.46
                             1021.92  1038.80  1079.46  1135.71  1195.40
                             1199.15  1210.77  1242.06  1288.01  1309.97
                             1353.07  1455.77  1492.04  1515.85  1547.47
                             1563.70  1609.17  1626.68  1674.28  1708.13
                             1717.71  1814.83  1834.35  1865.04  1928.62
                             1936.85  1986.62  2008.75  2028.87  2075.55
                             2076.02  2129.78  2149.54  2166.65  2169.94
                             2183.88  2199.19  2202.82  2204.50  2236.75
                             2292.84  2318.72  4276.29  4381.95  4390.02
                             4398.46  4403.06  4462.01  4477.48  4478.19
                             4508.37  4535.14  4628.85  4651.23  4704.49
                             4996.25

 Zero-point correction=                           0.233785 (Hartree/Particle)
 Thermal correction to Energy=                    0.249281
 Thermal correction to Enthalpy=                  0.250225
 Thermal correction to Gibbs Free Energy=         0.188624
 Sum of electronic and zero-point Energies=          -1333.297140
 Sum of electronic and thermal Energies=             -1333.281644
 Sum of electronic and thermal Enthalpies=           -1333.280700
 Sum of electronic and thermal Free Energies=        -1333.342301

                     E (Thermal)             CV                S
                      KCal/Mol        Cal/Mol-Kelvin    Cal/Mol-Kelvin
 Total                  156.426             56.625            129.649
 Electronic               0.000              0.000              0.000
 Translational            0.889              2.981             42.303
 Rotational               0.889              2.981             33.092
 Vibrational            154.648             50.663             54.254
 Vibration     1          0.593              1.985              6.174
 Vibration     2          0.594              1.983              5.647
 Vibration     3          0.595              1.978              4.853
 Vibration     4          0.600              1.964              3.930
 Vibration     5          0.601              1.959              3.738
 Vibration     6          0.603              1.952              3.526
 Vibration     7          0.606              1.943              3.307
 Vibration     8          0.618              1.903              2.677
 Vibration     9          0.631              1.860              2.276
 Vibration    10          0.653              1.792              1.865
 Vibration    11          0.664              1.758              1.709
 Vibration    12          0.670              1.740              1.639
 Vibration    13          0.686              1.693              1.476
 Vibration    14          0.698              1.658              1.371
 Vibration    15          0.719              1.599              1.219
 Vibration    16          0.744              1.529              1.071
 Vibration    17          0.802              1.377              0.818
 Vibration    18          0.829              1.311              0.731
 Vibration    19          0.877              1.201              0.605
 Vibration    20          0.909              1.131              0.536
 Vibration    21          0.939              1.070              0.482
 Vibration    22          0.971              1.006              0.429

 Optimization completed.
    -- Stationary point found.
 Normal termination of Gaussian 16 at Thu Dec 10 16:43:50 2020.

 ----------------------------------------------------------------------
 # B3LYP/6-311++G(d,p) empiricaldispersion=gd3bj scf=xqc pop=npa geom=c
 heck
 ----------------------------------------------------------------------

 --------------------------------------
 CID_62402507_JID_5584_Energie_neutraal
 --------------------------------------
 Structure from the checkpoint file:  "JID_5584.chk"
 Charge =  0 Multiplicity = 1

 SCF Done:  E(RB3LYP) =  -1333.72829805     A.U. after   16 cycles
 Normal termination of Gaussian 16 at Thu Dec 10 16:48:53 2020.

 ----------------------------------------------------------------------
 # B3LYP/6-311++G(d,p) empiricaldispersion=gd3bj scf=xqc pop=npa geom=c
 heck
 ----------------------------------------------------------------------

 ------------------------------------
 CID_62402507_JID_5584_Energie_kation
 ------------------------------------
 Structure from the checkpoint file:  "JID_5584.chk"
 Charge =  1 Multiplicity = 2

 SCF Done:  E(UB3LYP) =  -1333.45397373     A.U. after   25 cycles
 Normal termination of Gaussian 16 at Thu Dec 10 17:00:14 2020.
 Gaussian 16:  ES64L-G16RevA.03 25-Dec-2016

 ----------------------------------------------------------------------
 # B3LYP/6-311++G(d,p) empiricaldispersion=gd3bj scf=xqc pop=npa geom=c
 heck
 ----------------------------------------------------------------------

 -----------------------------------
 CID_62402507_JID_5584_Energie_anion
 -----------------------------------
 Structure from the checkpoint file:  "JID_5584.chk"
 Charge = -1 Multiplicity = 2

                         Standard orientation:
 ---------------------------------------------------------------------
 Center     Atomic      Atomic             Coordinates (Angstroms)
 Number     Number       Type             X           Y           Z
 ---------------------------------------------------------------------
      1          6           0       -4.620748   -1.051283    1.955793
      2          6           0       -3.811714   -0.195334    0.987004
      3          7           0       -3.689230   -0.865967   -0.307689
      4          6           0       -2.913194   -0.114951   -1.299211
      5          6           0       -1.490957    0.207067   -0.915133
      6          6           0       -0.949771    1.361908   -0.404376
      7          7           0        0.385636    1.294932   -0.064614
      8          6           0        0.891928    0.110726   -0.286332
      9         16           0       -0.261730   -1.042450   -0.958442
     10          6           0        2.267417   -0.242173   -0.021573
     11          6           0        2.915802   -1.444080   -0.206344
     12          6           0        4.284889   -1.402330    0.176344
     13          6           0        4.661603   -0.171789    0.647284
     14         16           0        3.352949    0.963875    0.633529
     15          6           0       -1.664577    2.662235   -0.183809
     16          1           0       -5.606683   -1.278902    1.538460
     17          1           0       -4.753117   -0.536015    2.913111
     18          1           0       -4.110828   -2.001621    2.158735
     19          1           0       -4.327994    0.758468    0.813437
     20          1           0       -2.834495    0.055654    1.435580
     21          1           0       -3.251831   -1.776502   -0.166201
     22          1           0       -2.929858   -0.685696   -2.234650
     23          1           0       -3.443358    0.823272   -1.496368
     24          1           0        2.424737   -2.325965   -0.603431
     25          1           0        4.957733   -2.249254    0.104329
     26          1           0        5.636292    0.134255    1.002714
     27          1           0       -1.681082    2.912556    0.883115
     28          1           0       -1.142199    3.475093   -0.699856
     29          1           0       -2.695737    2.629120   -0.542122
 ---------------------------------------------------------------------

 SCF Done:  E(UB3LYP) =  -1333.74085958     A.U. after   24 cycles

 The electronic state is 2-A.
 Alpha  occ. eigenvalues --  -88.71933 -88.71792 -14.19291 -14.14233 -10.09237
 Alpha  occ. eigenvalues --  -10.08945 -10.07367 -10.07023 -10.06466 -10.05281
 Alpha  occ. eigenvalues --  -10.04661 -10.04596 -10.04117 -10.03367 -10.01881
 Alpha  occ. eigenvalues --   -7.80632  -7.80430  -5.76921  -5.76729  -5.76587
 Alpha  occ. eigenvalues --   -5.76366  -5.76219  -5.76038  -0.81086  -0.79926
 Alpha  occ. eigenvalues --   -0.72964  -0.66893  -0.64529  -0.63780  -0.59173
 Alpha  occ. eigenvalues --   -0.58683  -0.56584  -0.52694  -0.50832  -0.45394
 Alpha  occ. eigenvalues --   -0.42563  -0.39914  -0.39096  -0.37569  -0.36260
 Alpha  occ. eigenvalues --   -0.35363  -0.34825  -0.31654  -0.30812  -0.29849
 Alpha  occ. eigenvalues --   -0.28986  -0.28215  -0.26550  -0.26186  -0.25883
 Alpha  occ. eigenvalues --   -0.25681  -0.25349  -0.24454  -0.22770  -0.22378
 Alpha  occ. eigenvalues --   -0.20683  -0.19774  -0.14425  -0.12958  -0.12628
 Alpha  occ. eigenvalues --   -0.11613  -0.11061  -0.06891   0.04290
 Alpha virt. eigenvalues --    0.06989   0.08484   0.08938   0.09119   0.10093
 Alpha virt. eigenvalues --    0.10717   0.10922   0.11560   0.11902   0.12406
 Alpha virt. eigenvalues --    0.13098   0.13317   0.14321   0.14542   0.14932

  Beta  occ. eigenvalues --  -88.71889 -88.71735 -14.19262 -14.13986 -10.09236
  Beta  occ. eigenvalues --  -10.08961 -10.07367 -10.06703 -10.06542 -10.05276
  Beta  occ. eigenvalues --  -10.04566 -10.04347 -10.03791 -10.03474 -10.01642
  Beta  occ. eigenvalues --   -7.80592  -7.80379  -5.76906  -5.76704  -5.76572
  Beta  occ. eigenvalues --   -5.76341  -5.76061  -5.75849  -0.80790  -0.79727
  Beta  occ. eigenvalues --   -0.72657  -0.66705  -0.64333  -0.63549  -0.58811
  Beta  occ. eigenvalues --   -0.58354  -0.56422  -0.52499  -0.50736  -0.44855
  Beta  occ. eigenvalues --   -0.42298  -0.39761  -0.38860  -0.37417  -0.36156
  Beta  occ. eigenvalues --   -0.35248  -0.34751  -0.31555  -0.30695  -0.29662
  Beta  occ. eigenvalues --   -0.28941  -0.28146  -0.26296  -0.26069  -0.25746
  Beta  occ. eigenvalues --   -0.25321  -0.24753  -0.24230  -0.22608  -0.21531
  Beta  occ. eigenvalues --   -0.20483  -0.19517  -0.13634  -0.12225  -0.11414
  Beta  occ. eigenvalues --   -0.11343  -0.10140  -0.05426
  Beta virt. eigenvalues --    0.06935   0.08403   0.08870   0.09052   0.09764
  Beta virt. eigenvalues --    0.10091   0.10677   0.10943   0.11509   0.11889
  Beta virt. eigenvalues --    0.12367   0.13073   0.13455   0.14477   0.14921

 Mulliken charges and spin densities:
               1          2
     1  C   -0.598071  -0.008677
     2  C   -0.335989  -0.007721
     3  N    0.002608  -0.004626
     4  C   -0.193106  -0.074827
     5  C    1.078519   0.187967
     6  C   -0.801632  -0.067192
     7  N    0.150390   0.123454
     8  C   -0.604474   0.123188
     9  S   -0.727363   0.125719
    10  C   -0.612643   0.000271
    11  C    1.614179   0.268573
    12  C   -0.959076  -0.056120
    13  C    0.159872   0.222915
    14  S   -0.572559   0.095551
    15  C   -0.547828   0.014135
    16  H    0.144036   0.003131
    17  H    0.113573   0.004263
    18  H    0.127334  -0.000726
    19  H    0.140729   0.008632
    20  H    0.199597  -0.002853
    21  H    0.190671   0.000407
    22  H    0.125401   0.067233
    23  H    0.112817   0.008509
    24  H    0.124123  -0.016246
    25  H    0.092072   0.004926
    26  H    0.185308  -0.016471
    27  H    0.160842  -0.002727
    28  H    0.145522   0.002912
    29  H    0.085150  -0.003601
 Sum of Mulliken charges =  -1.00000   1.00000

 Dipole moment (field-independent basis, Debye):
    X=             -5.0984    Y=             -0.3161    Z=              0.8343  Tot=              5.1759
 Quadrupole moment (field-independent basis, Debye-Ang):
   XX=           -154.3835   YY=           -118.1770   ZZ=           -118.3828
   XY=             -4.3111   XZ=             -4.0523   YZ=             -1.1166

 Summary of Natural Population Analysis:

                                       Natural Population
                Natural  -----------------------------------------------
    Atom  No    Charge         Core      Valence    Rydberg      Total
 -----------------------------------------------------------------------
      C    1   -0.28708      0.99967     2.28314    0.00427     3.28708
      C    2   -0.09058      0.99965     2.08209    0.00884     3.09058
      N    3   -0.34023      0.99975     2.82678    0.01370     3.84023
      C    4   -0.10280      0.99958     2.08934    0.01389     3.10280
      C    5   -0.09275      0.99942     2.08057    0.01276     3.09275
      C    6    0.04405      0.99943     1.94378    0.01274     2.95595
      N    7   -0.22693      0.99963     2.71370    0.01361     3.72693
      C    8    0.08571      0.99951     1.89794    0.01685     2.91429
      S    9    0.16779      4.99943     2.81218    0.02061     7.83221
      C   10   -0.11754      0.99944     2.10155    0.01655     3.11754
      C   11   -0.07485      0.99941     2.06490    0.01054     3.07485
      C   12   -0.17748      0.99945     2.15819    0.01985     3.17748
      C   13   -0.10366      0.99946     2.09139    0.01280     3.10366
      S   14    0.21716      4.99945     2.75628    0.02711     7.78284
      C   15   -0.28995      0.99963     2.28549    0.00483     3.28995
      H   16    0.09632      0.00000     0.40253    0.00115     0.40368
      H   17    0.09534      0.00000     0.40386    0.00080     0.40466
      H   18    0.09416      0.00000     0.40486    0.00098     0.40584
      H   19    0.08472      0.00000     0.41403    0.00125     0.41528
      H   20    0.08864      0.00000     0.40964    0.00172     0.41136
      H   21    0.16950      0.00000     0.32825    0.00226     0.33050
      H   22    0.09658      0.00000     0.40190    0.00152     0.40342
      H   23    0.09384      0.00000     0.40471    0.00144     0.40616
      H   24    0.09783      0.00000     0.40063    0.00154     0.40217
      H   25    0.09377      0.00000     0.40408    0.00215     0.40623
      H   26    0.08647      0.00000     0.41006    0.00347     0.41353
      H   27    0.09982      0.00000     0.39904    0.00114     0.40018
      H   28    0.10126      0.00000     0.39745    0.00129     0.39874
      H   29    0.09291      0.00000     0.40614    0.00095     0.40709
 =======================================================================
   * Total *    0.00200     22.99290    39.77451    0.23060    62.99800

 Normal termination of Gaussian 16 at Thu Dec 10 17:11:02 2020.
