 Gaussian 16, Revision A.03,

 -----------------------------------------------------------
 # opt freq B3LYP/6-31G(d) empiricaldispersion=gd3bj scf=xqc
 -----------------------------------------------------------

 --------------------------------
 CID_104538857_JID_10411_neutraal
 --------------------------------
 Symbolic Z-matrix:
 Charge =  0 Multiplicity = 1

 SCF Done:  E(RB3LYP) =  -953.383519217     A.U. after   14 cycles
 SCF Done:  E(RB3LYP) =  -953.387883815     A.U. after   13 cycles
 SCF Done:  E(RB3LYP) =  -953.386795956     A.U. after   14 cycles
 SCF Done:  E(RB3LYP) =  -953.388521065     A.U. after   13 cycles
 SCF Done:  E(RB3LYP) =  -953.389843270     A.U. after   13 cycles
 SCF Done:  E(RB3LYP) =  -953.390256209     A.U. after   13 cycles
 SCF Done:  E(RB3LYP) =  -953.390486661     A.U. after   12 cycles
 SCF Done:  E(RB3LYP) =  -953.390697016     A.U. after   12 cycles
 SCF Done:  E(RB3LYP) =  -953.390708894     A.U. after   11 cycles
 SCF Done:  E(RB3LYP) =  -953.390782360     A.U. after   10 cycles
 SCF Done:  E(RB3LYP) =  -953.391353949     A.U. after    7 cycles
 SCF Done:  E(RB3LYP) =  -953.391354096     A.U. after    7 cycles
 SCF Done:  E(RB3LYP) =  -953.391354162     A.U. after    7 cycles
 SCF Done:  E(RB3LYP) =  -953.391354202     A.U. after    7 cycles
 SCF Done:  E(RB3LYP) =  -953.391354218     A.U. after    7 cycles
 Optimization completed.
    -- Stationary point found.
 Normal termination of Gaussian 16 at Sat Dec 12 16:15:19 2020.

 --------------------------------------------------------------------
 #N Geom=AllCheck Guess=TCheck SCRF=Check GenChk RB3LYP/6-31G(d) Freq
 --------------------------------------------------------------------

 Structure from the checkpoint file:  "JID_10411.chk"
 --------------------------------
 CID_104538857_JID_10411_neutraal
 --------------------------------
 Charge =  0 Multiplicity = 1

 SCF Done:  E(RB3LYP) =  -953.391354218     A.U. after    1 cycles

  Exact polarizability: 189.564   9.392 173.287  16.002  -2.997 130.337
 Approx polarizability: 251.361  13.590 263.999  37.112  -7.195 206.562

                      1                      2                      3
                      A                      A                      A
 Frequencies --     12.7618                17.9785                28.8183
 Red. masses --      4.8026                 5.8675                 6.9963
 Frc consts  --      0.0005                 0.0011                 0.0034
 IR Inten    --      0.2041                 0.2894                 1.6755

                      4                      5                      6
                      A                      A                      A
 Frequencies --     32.7107                34.4816                58.3522
 Red. masses --      5.3713                 4.8790                 4.2692
 Frc consts  --      0.0034                 0.0034                 0.0086
 IR Inten    --      0.8166                 0.3419                 1.1492

                      7                      8                      9
                      A                      A                      A
 Frequencies --     65.4418                85.6832                94.6196
 Red. masses --      4.8949                 4.8340                 3.8574
 Frc consts  --      0.0124                 0.0209                 0.0203
 IR Inten    --      5.2457                 2.5135                 1.1817

                     10                     11                     12
                      A                      A                      A
 Frequencies --    111.8997               125.3061               159.5926
 Red. masses --      2.4986                 1.5460                 1.8504
 Frc consts  --      0.0184                 0.0143                 0.0278
 IR Inten    --      5.5805                 3.9216                 4.9670

                     13                     14                     15
                      A                      A                      A
 Frequencies --    160.4105               206.9414               212.0616
 Red. masses --      1.7486                 3.6163                 2.8637
 Frc consts  --      0.0265                 0.0912                 0.0759
 IR Inten    --      1.9938                 1.1208                 3.2223

                     16                     17                     18
                      A                      A                      A
 Frequencies --    240.8100               255.1993               277.2502
 Red. masses --      2.9413                 2.3062                 2.5232
 Frc consts  --      0.1005                 0.0885                 0.1143
 IR Inten    --      9.5617                 1.7902                 4.1433

                     19                     20                     21
                      A                      A                      A
 Frequencies --    295.1252               320.5901               351.0508
 Red. masses --      2.3419                 2.2070                 2.6063
 Frc consts  --      0.1202                 0.1336                 0.1892
 IR Inten    --      0.4505                 8.2165                 0.8626

                     22                     23                     24
                      A                      A                      A
 Frequencies --    385.7031               403.0538               416.5981
 Red. masses --      3.1075                 3.0552                 2.5416
 Frc consts  --      0.2724                 0.2924                 0.2599
 IR Inten    --      6.0964                 9.4939                 2.8490

                     25                     26                     27
                      A                      A                      A
 Frequencies --    449.6306               460.7619               504.4805
 Red. masses --      2.9364                 2.8717                 3.7537
 Frc consts  --      0.3498                 0.3592                 0.5629
 IR Inten    --      6.7000                 2.7498                 1.3407

                     28                     29                     30
                      A                      A                      A
 Frequencies --    514.8070               528.5089               581.9342
 Red. masses --      2.5143                 1.9409                 3.7362
 Frc consts  --      0.3926                 0.3194                 0.7455
 IR Inten    --     25.8896                13.5786                 2.4245

                     31                     32                     33
                      A                      A                      A
 Frequencies --    611.7625               631.1261               643.9658
 Red. masses --      2.6885                 3.4725                 3.1281
 Frc consts  --      0.5928                 0.8149                 0.7643
 IR Inten    --      2.4854                15.7986                 4.5922

                     34                     35                     36
                      A                      A                      A
 Frequencies --    684.7720               686.8887               719.9455
 Red. masses --      2.1088                 2.1208                 2.9260
 Frc consts  --      0.5826                 0.5896                 0.8936
 IR Inten    --     32.3923                63.6600                 2.8797

                     37                     38                     39
                      A                      A                      A
 Frequencies --    733.0415               766.3018               780.3059
 Red. masses --      2.4338                 1.7904                 2.4859
 Frc consts  --      0.7705                 0.6195                 0.8918
 IR Inten    --     18.5300                21.9465                 4.2989

                     40                     41                     42
                      A                      A                      A
 Frequencies --    795.6413               829.1951               840.1817
 Red. masses --      2.4536                 2.5237                 2.0442
 Frc consts  --      0.9152                 1.0224                 0.8502
 IR Inten    --     17.3743                 5.7264                16.9958

                     43                     44                     45
                      A                      A                      A
 Frequencies --    861.6888               890.6676               945.9548
 Red. masses --      2.5688                 2.7477                 2.0592
 Frc consts  --      1.1238                 1.2843                 1.0856
 IR Inten    --      5.8425                 4.5988                 5.2682

                     46                     47                     48
                      A                      A                      A
 Frequencies --    968.5740               978.7934              1016.3243
 Red. masses --      2.0934                 2.7893                 2.0482
 Frc consts  --      1.1571                 1.5744                 1.2465
 IR Inten    --      1.3916                 4.2899                 4.7562

                     49                     50                     51
                      A                      A                      A
 Frequencies --   1029.3791              1042.5267              1062.9277
 Red. masses --      2.2545                 2.0863                 2.1936
 Frc consts  --      1.4075                 1.3360                 1.4602
 IR Inten    --     11.0213                17.1618                 7.9102

                     52                     53                     54
                      A                      A                      A
 Frequencies --   1067.4830              1078.4010              1089.2572
 Red. masses --      3.1134                 2.7313                 2.0779
 Frc consts  --      2.0903                 1.8714                 1.4526
 IR Inten    --      4.0381                16.7409                15.5503

                     55                     56                     57
                      A                      A                      A
 Frequencies --   1094.2768              1117.5368              1137.6891
 Red. masses --      1.5835                 3.1011                 1.2347
 Frc consts  --      1.1172                 2.2819                 0.9416
 IR Inten    --      6.7973                47.8181                 2.0403

                     58                     59                     60
                      A                      A                      A
 Frequencies --   1151.1025              1162.7836              1168.5211
 Red. masses --      2.5142                 1.3477                 1.9539
 Frc consts  --      1.9628                 1.0736                 1.5719
 IR Inten    --     10.4004                53.0103               152.2333

                     61                     62                     63
                      A                      A                      A
 Frequencies --   1176.6744              1185.1297              1198.1996
 Red. masses --      1.5057                 1.3554                 1.6931
 Frc consts  --      1.2283                 1.1216                 1.4322
 IR Inten    --     32.8234                 2.0769                36.0925

                     64                     65                     66
                      A                      A                      A
 Frequencies --   1221.8392              1224.9941              1259.9231
 Red. masses --      1.2478                 1.3193                 1.4259
 Frc consts  --      1.0976                 1.1665                 1.3336
 IR Inten    --      3.0005                76.3409                 4.1269

                     67                     68                     69
                      A                      A                      A
 Frequencies --   1286.8592              1298.2122              1302.4974
 Red. masses --      4.3169                 3.7090                 1.7661
 Frc consts  --      4.2120                 3.6829                 1.7653
 IR Inten    --     12.6171                55.0025                 1.0647

                     70                     71                     72
                      A                      A                      A
 Frequencies --   1325.9399              1338.3190              1354.2814
 Red. masses --      1.4005                 1.3352                 1.7956
 Frc consts  --      1.4507                 1.4090                 1.9403
 IR Inten    --      2.2316                15.9595                13.7533

                     73                     74                     75
                      A                      A                      A
 Frequencies --   1360.3882              1376.9655              1396.1629
 Red. masses --      1.5607                 1.5317                 1.5818
 Frc consts  --      1.7017                 1.7110                 1.8166
 IR Inten    --     15.9586                 5.4525                 3.0169

                     76                     77                     78
                      A                      A                      A
 Frequencies --   1398.0953              1403.1300              1406.7753
 Red. masses --      1.5588                 1.4285                 1.7629
 Frc consts  --      1.7952                 1.6570                 2.0556
 IR Inten    --     11.7271                15.2250                23.1692

                     79                     80                     81
                      A                      A                      A
 Frequencies --   1422.1843              1439.9890              1448.1424
 Red. masses --      1.6185                 1.9145                 1.3580
 Frc consts  --      1.9288                 2.3390                 1.6779
 IR Inten    --     15.3079                56.1858                34.8353

                     82                     83                     84
                      A                      A                      A
 Frequencies --   1461.3646              1485.7755              1495.4491
 Red. masses --      1.6423                 2.4654                 1.0913
 Frc consts  --      2.0664                 3.2066                 1.4379
 IR Inten    --     43.4392                19.8945                11.6286

                     85                     86                     87
                      A                      A                      A
 Frequencies --   1497.4177              1501.2673              1507.2536
 Red. masses --      1.2156                 1.1366                 1.1210
 Frc consts  --      1.6059                 1.5094                 1.5005
 IR Inten    --     17.1453                12.3819                20.8430

                     88                     89                     90
                      A                      A                      A
 Frequencies --   1513.0987              1520.0801              1525.5558
 Red. masses --      1.0883                 1.0826                 1.1920
 Frc consts  --      1.4680                 1.4738                 1.6345
 IR Inten    --      5.9272                11.8267                13.8013

                     91                     92                     93
                      A                      A                      A
 Frequencies --   1527.5310              1529.3816              1532.7891
 Red. masses --      1.1687                 1.1041                 1.0509
 Frc consts  --      1.6067                 1.5216                 1.4548
 IR Inten    --      7.3018                 6.1073                 4.8573

                     94                     95                     96
                      A                      A                      A
 Frequencies --   1537.6396              1562.1693              1596.6672
 Red. masses --      1.0505                 1.2044                 5.9763
 Frc consts  --      1.4634                 1.7317                 8.9766
 IR Inten    --      4.5109                50.7079                 7.7580

                     97                     98                     99
                      A                      A                      A
 Frequencies --   1747.1046              1838.1632              3037.2759
 Red. masses --      9.0084                 9.1950                 1.0408
 Frc consts  --     16.2007                18.3051                 5.6569
 IR Inten    --    252.5303               221.9744                41.7559

                    100                    101                    102
                      A                      A                      A
 Frequencies --   3045.1529              3049.5004              3051.7650
 Red. masses --      1.0686                 1.0398                 1.0692
 Frc consts  --      5.8380                 5.6970                 5.8670
 IR Inten    --     19.8751                28.9730                18.4601

                    103                    104                    105
                      A                      A                      A
 Frequencies --   3052.8182              3058.1256              3064.5646
 Red. masses --      1.0683                 1.0611                 1.0685
 Frc consts  --      5.8661                 5.8466                 5.9122
 IR Inten    --     13.1607                29.8614                31.3590

                    106                    107                    108
                      A                      A                      A
 Frequencies --   3066.3252              3093.8868              3095.1602
 Red. masses --      1.0616                 1.1015                 1.0669
 Frc consts  --      5.8808                 6.2121                 6.0219
 IR Inten    --     19.2010                46.1045                26.5466

                    109                    110                    111
                      A                      A                      A
 Frequencies --   3096.0122              3097.5757              3115.0926
 Red. masses --      1.1008                 1.1016                 1.0937
 Frc consts  --      6.2168                 6.2275                 6.2530
 IR Inten    --     13.0966                24.2404                22.6603

                    112                    113                    114
                      A                      A                      A
 Frequencies --   3117.8905              3118.5063              3122.3133
 Red. masses --      1.0971                 1.0982                 1.0960
 Frc consts  --      6.2838                 6.2928                 6.2951
 IR Inten    --     24.6790                16.6453                 4.1196

                    115                    116                    117
                      A                      A                      A
 Frequencies --   3134.6660              3150.2725              3174.9325
 Red. masses --      1.0974                 1.0998                 1.1002
 Frc consts  --      6.3532                 6.4306                 6.5345
 IR Inten    --     25.8228                19.5365                 1.3199

                    118                    119                    120
                      A                      A                      A
 Frequencies --   3196.0477              3292.8333              3683.2304
 Red. masses --      1.0964                 1.0988                 1.0639
 Frc consts  --      6.5987                 7.0198                 8.5037
 IR Inten    --      1.4860                 0.2181                42.6259

 - Thermochemistry -
 -------------------
 Temperature   298.150 Kelvin.  Pressure   1.00000 Atm.
 Atom     1 has atomic number  6 and mass  12.00000

 Molecular mass:   282.16919 amu.
 Principal axes and moments of inertia in atomic units:
                           1         2         3
     Eigenvalues --  2978.03608********************
           X            0.99996  -0.00836  -0.00375
           Y            0.00835   0.99996  -0.00356
           Z            0.00378   0.00352   0.99999
 This molecule is an asymmetric top.
 Rotational symmetry number  1.
 Warning -- assumption of classical behavior for rotation
           may cause significant error
 Rotational temperatures (Kelvin)      0.02908     0.00735     0.00635
 Rotational constants (GHZ):           0.60602     0.15307     0.13239
 Zero-point vibrational energy     945629.7 (Joules/Mol)
                                  226.01092 (Kcal/Mol)
 Warning -- explicit consideration of  31 degrees of freedom as
           vibrations may cause significant error
 Vibrational temperatures:     18.36    25.87    41.46    47.06    49.61
          (Kelvin)             83.96    94.16   123.28   136.14   161.00
                              180.29   229.62   230.79   297.74   305.11
                              346.47   367.17   398.90   424.62   461.26
                              505.08   554.94   579.90   599.39   646.92
                              662.93   725.83   740.69   760.41   837.27
                              880.19   908.05   926.52   985.23   988.28
                             1035.84  1054.68  1102.54  1122.69  1144.75
                             1193.03  1208.83  1239.78  1281.47  1361.02
                             1393.56  1408.27  1462.26  1481.05  1499.96
                             1529.32  1535.87  1551.58  1567.20  1574.42
                             1607.89  1636.88  1656.18  1672.99  1681.24
                             1692.97  1705.14  1723.94  1757.95  1762.49
                             1812.75  1851.50  1867.84  1874.00  1907.73
                             1925.54  1948.51  1957.30  1981.15  2008.77
                             2011.55  2018.79  2024.04  2046.21  2071.82
                             2083.55  2102.58  2137.70  2151.62  2154.45
                             2159.99  2168.60  2177.01  2187.06  2194.93
                             2197.78  2200.44  2205.34  2212.32  2247.61
                             2297.25  2513.69  2644.71  4369.96  4381.30
                             4387.55  4390.81  4392.32  4399.96  4409.22
                             4411.76  4451.41  4453.25  4454.47  4456.72
                             4481.92  4485.95  4486.83  4492.31  4510.09
                             4532.54  4568.02  4598.40  4737.65  5299.35

 Zero-point correction=                           0.360171 (Hartree/Particle)
 Thermal correction to Energy=                    0.381321
 Thermal correction to Enthalpy=                  0.382265
 Thermal correction to Gibbs Free Energy=         0.305407
 Sum of electronic and zero-point Energies=           -953.031183
 Sum of electronic and thermal Energies=              -953.010033
 Sum of electronic and thermal Enthalpies=            -953.009089
 Sum of electronic and thermal Free Energies=         -953.085948

                     E (Thermal)             CV                S
                      KCal/Mol        Cal/Mol-Kelvin    Cal/Mol-Kelvin
 Total                  239.283             76.563            161.763
 Electronic               0.000              0.000              0.000
 Translational            0.889              2.981             42.810
 Rotational               0.889              2.981             34.525
 Vibrational            237.505             70.602             84.428
 Vibration     1          0.593              1.987              7.527
 Vibration     2          0.593              1.986              6.846
 Vibration     3          0.593              1.984              5.909
 Vibration     4          0.594              1.983              5.658
 Vibration     5          0.594              1.983              5.553
 Vibration     6          0.596              1.974              4.512
 Vibration     7          0.597              1.971              4.286
 Vibration     8          0.601              1.959              3.756
 Vibration     9          0.603              1.953              3.562
 Vibration    10          0.607              1.940              3.236
 Vibration    11          0.610              1.928              3.017
 Vibration    12          0.621              1.892              2.555
 Vibration    13          0.622              1.891              2.545
 Vibration    14          0.641              1.830              2.070
 Vibration    15          0.643              1.822              2.026
 Vibration    16          0.658              1.778              1.797
 Vibration    17          0.666              1.754              1.694
 Vibration    18          0.678              1.716              1.551
 Vibration    19          0.689              1.683              1.444
 Vibration    20          0.706              1.634              1.307
 Vibration    21          0.728              1.573              1.161
 Vibration    22          0.754              1.501              1.017
 Vibration    23          0.768              1.464              0.951
 Vibration    24          0.780              1.434              0.904
 Vibration    25          0.809              1.362              0.797
 Vibration    26          0.819              1.337              0.764
 Vibration    27          0.860              1.240              0.647
 Vibration    28          0.870              1.217              0.622
 Vibration    29          0.883              1.187              0.591
 Vibration    30          0.939              1.070              0.482
 Vibration    31          0.971              1.007              0.430

                           ! Non-Optimized Parameters !
 Normal termination of Gaussian 16 at Sat Dec 12 16:38:29 2020.

 ----------------------------------------------------------------------
 # B3LYP/6-311++G(d,p) empiricaldispersion=gd3bj scf=xqc pop=npa geom=c
 heck
 ----------------------------------------------------------------------

 ----------------------------------------
 CID_104538857_JID_10411_Energie_neutraal
 ----------------------------------------
 Structure from the checkpoint file:  "JID_10411.chk"
 Charge =  0 Multiplicity = 1

 SCF Done:  E(RB3LYP) =  -953.667720597     A.U. after   15 cycles
 Normal termination of Gaussian 16 at Sat Dec 12 16:49:51 2020.

 ----------------------------------------------------------------------
 # B3LYP/6-311++G(d,p) empiricaldispersion=gd3bj scf=xqc pop=npa geom=c
 heck
 ----------------------------------------------------------------------

 --------------------------------------
 CID_104538857_JID_10411_Energie_kation
 --------------------------------------
 Structure from the checkpoint file:  "JID_10411.chk"
 Charge =  1 Multiplicity = 2

 SCF Done:  E(UB3LYP) =  -953.360770102     A.U. after   32 cycles
 Normal termination of Gaussian 16 at Sat Dec 12 17:23:21 2020.
 Gaussian 16:  ES64L-G16RevA.03 25-Dec-2016

 ----------------------------------------------------------------------
 # B3LYP/6-311++G(d,p) empiricaldispersion=gd3bj scf=xqc pop=npa geom=c
 heck
 ----------------------------------------------------------------------

 -------------------------------------
 CID_104538857_JID_10411_Energie_anion
 -------------------------------------
 Structure from the checkpoint file:  "JID_10411.chk"
 Charge = -1 Multiplicity = 2

                         Standard orientation:
 ---------------------------------------------------------------------
 Center     Atomic      Atomic             Coordinates (Angstroms)
 Number     Number       Type             X           Y           Z
 ---------------------------------------------------------------------
      1          6           0       -3.558085    2.824036   -0.783729
      2          7           0       -3.330541    1.831380    0.257329
      3          6           0       -2.319764    2.169413    1.251624
      4          6           0       -3.808806    0.566684    0.061809
      5          8           0       -4.566975    0.281530   -0.866401
      6          6           0       -3.392822   -0.516271    1.060781
      7          6           0       -3.420379   -1.902323    0.408244
      8          6           0       -2.470221   -2.002169   -0.793780
      9          7           0       -1.133299   -1.514225   -0.469085
     10          6           0       -0.169378   -2.097077    0.289188
     11          6           0        0.791344   -1.118714    0.457307
     12          7           0        0.357037    0.001907   -0.197197
     13          7           0       -0.806247   -0.235894   -0.749941
     14          6           0        2.120223   -1.168037    1.144037
     15          6           0        3.273518   -1.647310    0.236605
     16          6           0        3.446535   -0.852795   -1.066669
     17          6           0        3.586871    0.661555   -0.890184
     18          6           0        4.790695    1.073918   -0.078493
     19          8           0        5.709951    0.360592    0.265183
     20          8           0        4.754767    2.396061    0.231044
     21          1           0       -2.638689    2.995542   -1.359459
     22          1           0       -3.876780    3.772044   -0.335825
     23          1           0       -4.333678    2.450543   -1.449922
     24          1           0       -2.534080    1.691325    2.209630
     25          1           0       -1.311849    1.886250    0.921985
     26          1           0       -2.345833    3.250701    1.413469
     27          1           0       -2.400054   -0.326074    1.473545
     28          1           0       -4.094618   -0.496649    1.905091
     29          1           0       -3.154575   -2.656847    1.158431
     30          1           0       -4.429367   -2.122159    0.049128
     31          1           0       -2.385195   -3.033123   -1.149295
     32          1           0       -2.833863   -1.373941   -1.606840
     33          1           0       -0.239892   -3.118543    0.630351
     34          1           0        2.340703   -0.166377    1.529467
     35          1           0        2.060496   -1.830194    2.015739
     36          1           0        4.204517   -1.605914    0.810164
     37          1           0        3.103372   -2.700441   -0.022490
     38          1           0        4.329207   -1.238527   -1.588957
     39          1           0        2.584015   -1.027280   -1.719506
     40          1           0        3.686294    1.146489   -1.870953
     41          1           0        2.684853    1.095585   -0.447256
     42          1           0        5.576032    2.574476    0.726723
 ---------------------------------------------------------------------

 SCF Done:  E(UB3LYP) =  -953.660071965     A.U. after   33 cycles
 SCF Done:  E(UB3LYP) =  -953.660071965     a.u. after    1 cycles

 The electronic state is 2-A.
 Alpha  occ. eigenvalues --  -19.08766 -19.03433 -18.99583 -14.31321 -14.27742
 Alpha  occ. eigenvalues --  -14.25706 -14.24208 -10.22441 -10.18139 -10.12898
 Alpha  occ. eigenvalues --  -10.12161 -10.11605 -10.11304 -10.11199 -10.09630
 Alpha  occ. eigenvalues --  -10.09134 -10.08937 -10.08917 -10.08468 -10.08063
 Alpha  occ. eigenvalues --   -1.02820  -1.00844  -0.94844  -0.93857  -0.84898
 Alpha  occ. eigenvalues --   -0.83031  -0.74084  -0.71677  -0.70976  -0.66472
 Alpha  occ. eigenvalues --   -0.65154  -0.63315  -0.60763  -0.59986  -0.54884
 Alpha  occ. eigenvalues --   -0.53855  -0.51381  -0.49768  -0.47589  -0.45306
 Alpha  occ. eigenvalues --   -0.43430  -0.41984  -0.41535  -0.40949  -0.40312
 Alpha  occ. eigenvalues --   -0.40133  -0.38887  -0.38795  -0.37702  -0.36465
 Alpha  occ. eigenvalues --   -0.35989  -0.35006  -0.34552  -0.33311  -0.32322
 Alpha  occ. eigenvalues --   -0.31905  -0.31697  -0.31208  -0.30757  -0.30191
 Alpha  occ. eigenvalues --   -0.29861  -0.29222  -0.27310  -0.26864  -0.26331
 Alpha  occ. eigenvalues --   -0.26143  -0.25342  -0.25039  -0.24400  -0.23525
 Alpha  occ. eigenvalues --   -0.20210  -0.20098  -0.18738  -0.17001  -0.16633
 Alpha  occ. eigenvalues --   -0.15710   0.03593
 Alpha virt. eigenvalues --    0.04998   0.05725   0.06504   0.06939   0.07142
 Alpha virt. eigenvalues --    0.07573   0.08252   0.08464   0.08995   0.09186
 Alpha virt. eigenvalues --    0.09550   0.09926   0.10400   0.10851   0.11062

  Beta  occ. eigenvalues --  -19.08733 -19.03423 -18.99578 -14.31323 -14.27729
  Beta  occ. eigenvalues --  -14.25705 -14.24201 -10.22438 -10.18136 -10.12884
  Beta  occ. eigenvalues --  -10.12126 -10.11588 -10.11296 -10.11202 -10.09620
  Beta  occ. eigenvalues --  -10.09119 -10.08924 -10.08895 -10.08464 -10.08055
  Beta  occ. eigenvalues --   -1.02777  -1.00832  -0.94835  -0.93821  -0.84892
  Beta  occ. eigenvalues --   -0.83019  -0.74065  -0.71649  -0.70950  -0.66444
  Beta  occ. eigenvalues --   -0.65130  -0.63289  -0.60737  -0.59955  -0.54845
  Beta  occ. eigenvalues --   -0.53819  -0.51338  -0.49724  -0.47555  -0.45280
  Beta  occ. eigenvalues --   -0.43394  -0.41960  -0.41491  -0.40913  -0.40293
  Beta  occ. eigenvalues --   -0.40107  -0.38870  -0.38779  -0.37661  -0.36439
  Beta  occ. eigenvalues --   -0.35956  -0.34982  -0.34524  -0.33288  -0.32306
  Beta  occ. eigenvalues --   -0.31889  -0.31680  -0.31187  -0.30734  -0.30174
  Beta  occ. eigenvalues --   -0.29838  -0.29198  -0.27278  -0.26830  -0.26312
  Beta  occ. eigenvalues --   -0.26126  -0.25324  -0.25018  -0.24373  -0.23505
  Beta  occ. eigenvalues --   -0.20184  -0.20073  -0.18720  -0.16983  -0.16602
  Beta  occ. eigenvalues --   -0.15701
  Beta virt. eigenvalues --    0.05592   0.06018   0.06458   0.06869   0.07140
  Beta virt. eigenvalues --    0.07519   0.07889   0.08501   0.08728   0.09106
  Beta virt. eigenvalues --    0.09435   0.09750   0.10147   0.10533   0.10880

 Mulliken charges and spin densities:
               1          2
     1  C   -0.072553  -0.196168
     2  N    0.025688   0.066071
     3  C   -0.125376  -0.361647
     4  C   -0.262043  -0.225575
     5  O   -0.318148   0.001751
     6  C   -0.331954   0.534570
     7  C    0.913991  -1.394932
     8  C   -0.011322  -0.194444
     9  N    0.162653   0.017996
    10  C   -0.426164  -0.249074
    11  C   -0.121672   0.122229
    12  N   -0.511624   0.176892
    13  N    0.401205  -0.103099
    14  C    1.064715  -1.155417
    15  C   -0.094188  -0.354176
    16  C   -0.131854  -0.011677
    17  C    0.053737  -0.409384
    18  C   -0.118999  -0.131130
    19  O   -0.282008   0.014339
    20  O   -0.147388   0.031997
    21  H    0.110925   0.037002
    22  H    0.036808   0.105982
    23  H    0.140293   0.021314
    24  H   -0.219479   0.383793
    25  H    0.218216   0.008965
    26  H   -0.063926   0.191515
    27  H    0.294699  -0.170061
    28  H   -0.275704   0.514259
    29  H   -0.427407   0.613998
    30  H    0.143347   0.046972
    31  H   -0.252369   0.458031
    32  H    0.199964   0.009011
    33  H   -1.082428   1.277362
    34  H   -0.008163   0.179129
    35  H   -0.182321   0.393476
    36  H    0.206752  -0.020077
    37  H   -0.011673   0.146285
    38  H    0.118207   0.080827
    39  H    0.167458  -0.000994
    40  H    0.070536   0.097624
    41  H    0.304676   0.011563
    42  H   -0.155106   0.434903
 Sum of Mulliken charges =  -1.00000   1.00000

 Dipole moment (field-independent basis, Debye):
    X=             -0.0702    Y=              3.5953    Z=             -2.8764  Tot=              4.6048
 Quadrupole moment (field-independent basis, Debye-Ang):
   XX=           -226.4525   YY=           -179.6273   ZZ=           -153.8817
   XY=            -14.8934   XZ=             -2.3386   YZ=              6.0537

 Summary of Natural Population Analysis:

                                       Natural Population
                Natural  -----------------------------------------------
    Atom  No    Charge         Core      Valence    Rydberg      Total
 -----------------------------------------------------------------------
      C    1   -0.17835      0.99964     2.17247    0.00625     3.17835
      N    2   -0.25197      0.99964     2.74251    0.00982     3.75197
      C    3   -0.18070      0.99963     2.17350    0.00757     3.18070
      C    4    0.35123      0.99964     1.62546    0.02366     2.64877
      O    5   -0.33751      0.99988     3.33277    0.00486     4.33751
      C    6   -0.23676      0.99959     2.22855    0.00863     3.23676
      C    7   -0.19144      0.99962     2.18239    0.00942     3.19144
      C    8   -0.08852      0.99959     2.07759    0.01133     3.08852
      N    9   -0.10132      0.99966     2.58744    0.01422     3.60132
      C   10   -0.01974      0.99947     2.00862    0.01165     3.01974
      C   11    0.04407      0.99956     1.94076    0.01560     2.95593
      N   12   -0.15242      0.99972     2.63906    0.01364     3.65242
      N   13   -0.04986      0.99978     2.53478    0.01530     3.54986
      C   14   -0.20712      0.99959     2.19868    0.00884     3.20712
      C   15   -0.18672      0.99962     2.17938    0.00771     3.18672
      C   16   -0.19161      0.99963     2.18413    0.00785     3.19161
      C   17   -0.24976      0.99957     2.24216    0.00803     3.24976
      C   18    0.40701      0.99972     1.56765    0.02562     2.59299
      O   19   -0.31079      0.99987     3.30480    0.00612     4.31079
      O   20   -0.34483      0.99988     3.33867    0.00628     4.34483
      H   21    0.09436      0.00000     0.40454    0.00110     0.40564
      H   22    0.08980      0.00000     0.40916    0.00104     0.41020
      H   23    0.11487      0.00000     0.38408    0.00106     0.38513
      H   24    0.10066      0.00000     0.39830    0.00104     0.39934
      H   25    0.10634      0.00000     0.39240    0.00127     0.39366
      H   26    0.09596      0.00000     0.40319    0.00084     0.40404
      H   27    0.10772      0.00000     0.39025    0.00203     0.39228
      H   28    0.11494      0.00000     0.38386    0.00120     0.38506
      H   29    0.10374      0.00000     0.39386    0.00240     0.39626
      H   30    0.11017      0.00000     0.38874    0.00109     0.38983
      H   31    0.10498      0.00000     0.39383    0.00118     0.39502
      H   32    0.11617      0.00000     0.38220    0.00164     0.38383
      H   33    0.11626      0.00000     0.37967    0.00407     0.38374
      H   34    0.10518      0.00000     0.39329    0.00153     0.39482
      H   35    0.10828      0.00000     0.39066    0.00106     0.39172
      H   36    0.10522      0.00000     0.39369    0.00109     0.39478
      H   37    0.09743      0.00000     0.40149    0.00108     0.40257
      H   38    0.10115      0.00000     0.39785    0.00100     0.39885
      H   39    0.10268      0.00000     0.39627    0.00105     0.39732
      H   40    0.11515      0.00000     0.38394    0.00092     0.38485
      H   41    0.12607      0.00000     0.37181    0.00211     0.37393
      H   42    0.24000      0.00000     0.25317    0.00684     0.26000
 =======================================================================
   * Total *   -0.00000     19.99329    55.74766    0.25905    76.00000

 Normal termination of Gaussian 16 at Sat Dec 12 17:57:11 2020.
