 Gaussian 16, Revision A.03,

 -----------------------------------------------------------
 # opt freq B3LYP/6-31G(d) empiricaldispersion=gd3bj scf=xqc
 -----------------------------------------------------------

 ------------------------------
 CID_62277926_JID_5863_neutraal
 ------------------------------
 Symbolic Z-matrix:
 Charge =  0 Multiplicity = 1

 SCF Done:  E(RB3LYP) =  -641.663690875     A.U. after   13 cycles
 SCF Done:  E(RB3LYP) =  -641.666804071     A.U. after   13 cycles
 SCF Done:  E(RB3LYP) =  -641.663463071     A.U. after   14 cycles
 SCF Done:  E(RB3LYP) =  -641.667115024     A.U. after   13 cycles
 SCF Done:  E(RB3LYP) =  -641.667911094     A.U. after   12 cycles
 SCF Done:  E(RB3LYP) =  -641.669596603     A.U. after   13 cycles
 SCF Done:  E(RB3LYP) =  -641.669834483     A.U. after   13 cycles
 SCF Done:  E(RB3LYP) =  -641.670617779     A.U. after   12 cycles
 SCF Done:  E(RB3LYP) =  -641.671146383     A.U. after   13 cycles
 SCF Done:  E(RB3LYP) =  -641.672110146     A.U. after   13 cycles
 SCF Done:  E(RB3LYP) =  -641.679091215     A.U. after   12 cycles
 SCF Done:  E(RB3LYP) =  -641.679098956     A.U. after    9 cycles
 SCF Done:  E(RB3LYP) =  -641.679102193     A.U. after    9 cycles
 SCF Done:  E(RB3LYP) =  -641.679102923     A.U. after    8 cycles
 SCF Done:  E(RB3LYP) =  -641.679103101     A.U. after    7 cycles
 Optimization completed.
    -- Stationary point found.
 Normal termination of Gaussian 16 at Thu Dec 10 18:08:09 2020.

 --------------------------------------------------------------------
 #N Geom=AllCheck Guess=TCheck SCRF=Check GenChk RB3LYP/6-31G(d) Freq
 --------------------------------------------------------------------

 Structure from the checkpoint file:  "JID_5863.chk"
 ------------------------------
 CID_62277926_JID_5863_neutraal
 ------------------------------
 Charge =  0 Multiplicity = 1

 SCF Done:  E(RB3LYP) =  -641.679103101     A.U. after    1 cycles

  Exact polarizability: 160.986   2.763 139.904  -0.866  -0.661 134.110
 Approx polarizability: 211.261   9.512 199.056  -0.442   3.936 193.882

                      1                      2                      3
                      A                      A                      A
 Frequencies --     30.4853                65.5354                80.2789
 Red. masses --      3.8907                 3.4112                 2.8145
 Frc consts  --      0.0021                 0.0086                 0.0107
 IR Inten    --      0.6800                 1.1947                 0.1881

                      4                      5                      6
                      A                      A                      A
 Frequencies --     80.6614                91.6137               103.2227
 Red. masses --      4.7053                 2.4797                 2.7335
 Frc consts  --      0.0180                 0.0123                 0.0172
 IR Inten    --      3.7917                 0.0319                 0.5505

                      7                      8                      9
                      A                      A                      A
 Frequencies --    108.2352               156.4739               179.2105
 Red. masses --      2.2309                 2.2573                 1.9128
 Frc consts  --      0.0154                 0.0326                 0.0362
 IR Inten    --      0.1003                 0.7029                 0.3164

                     10                     11                     12
                      A                      A                      A
 Frequencies --    199.0296               225.6248               229.3054
 Red. masses --      2.1724                 1.2091                 1.4563
 Frc consts  --      0.0507                 0.0363                 0.0451
 IR Inten    --      1.2991                 0.0576                 1.1789

                     13                     14                     15
                      A                      A                      A
 Frequencies --    233.3530               239.6184               242.6062
 Red. masses --      1.3467                 1.4284                 1.1668
 Frc consts  --      0.0432                 0.0483                 0.0405
 IR Inten    --      0.0899                 0.2083                 0.1350

                     16                     17                     18
                      A                      A                      A
 Frequencies --    259.3428               275.8786               296.1732
 Red. masses --      1.8289                 1.5039                 2.0577
 Frc consts  --      0.0725                 0.0674                 0.1063
 IR Inten    --      0.9597                 1.5420                 2.1842

                     19                     20                     21
                      A                      A                      A
 Frequencies --    301.6343               321.6058               341.5845
 Red. masses --      1.7432                 2.6070                 2.1657
 Frc consts  --      0.0934                 0.1589                 0.1489
 IR Inten    --      0.9480                 1.1219                 2.2243

                     22                     23                     24
                      A                      A                      A
 Frequencies --    349.8596               370.6355               407.0035
 Red. masses --      1.8620                 2.4051                 2.5011
 Frc consts  --      0.1343                 0.1947                 0.2441
 IR Inten    --      0.7141                 1.7763                 2.7306

                     25                     26                     27
                      A                      A                      A
 Frequencies --    425.9379               449.2531               477.5184
 Red. masses --      2.2951                 2.4312                 2.7790
 Frc consts  --      0.2453                 0.2891                 0.3734
 IR Inten    --      0.0439                 0.0815                 3.1069

                     28                     29                     30
                      A                      A                      A
 Frequencies --    499.6553               528.5760               586.6443
 Red. masses --      2.4535                 2.8311                 2.6352
 Frc consts  --      0.3609                 0.4660                 0.5343
 IR Inten    --      0.8804                 0.9588                 1.7536

                     31                     32                     33
                      A                      A                      A
 Frequencies --    632.3592               728.0953               778.4496
 Red. masses --      4.0323                 3.3680                 1.2579
 Frc consts  --      0.9500                 1.0520                 0.4491
 IR Inten    --      4.6845                 6.5196                 9.9636

                     34                     35                     36
                      A                      A                      A
 Frequencies --    794.4512               802.4956               847.8790
 Red. masses --      1.8968                 1.3362                 2.7459
 Frc consts  --      0.7054                 0.5070                 1.1631
 IR Inten    --      4.0693                 7.5508                 4.7036

                     37                     38                     39
                      A                      A                      A
 Frequencies --    884.3700               922.8496               939.4646
 Red. masses --      1.8996                 2.0058                 1.6404
 Frc consts  --      0.8753                 1.0065                 0.8530
 IR Inten    --      6.4414                 1.9364                 0.5886

                     40                     41                     42
                      A                      A                      A
 Frequencies --    945.3402               968.5891               974.7977
 Red. masses --      1.4406                 1.5709                 1.4838
 Frc consts  --      0.7585                 0.8683                 0.8307
 IR Inten    --      4.5826                11.6894                 7.3689

                     43                     44                     45
                      A                      A                      A
 Frequencies --    999.4750              1009.5009              1024.1872
 Red. masses --      1.4576                 1.6314                 1.8631
 Frc consts  --      0.8579                 0.9796                 1.1515
 IR Inten    --      3.3885                 4.4123                 7.2065

                     46                     47                     48
                      A                      A                      A
 Frequencies --   1028.2575              1062.4752              1063.6078
 Red. masses --      1.8429                 2.5184                 1.8683
 Frc consts  --      1.1481                 1.6750                 1.2453
 IR Inten    --      2.6535                 0.8182                 7.5498

                     49                     50                     51
                      A                      A                      A
 Frequencies --   1076.4455              1103.0741              1120.5955
 Red. masses --      2.4904                 1.9255                 1.7873
 Frc consts  --      1.7002                 1.3804                 1.3223
 IR Inten    --     36.5290                 0.7959                38.1812

                     52                     53                     54
                      A                      A                      A
 Frequencies --   1145.0982              1157.6170              1166.8942
 Red. masses --      2.1652                 1.9406                 1.4611
 Frc consts  --      1.6727                 1.5322                 1.1722
 IR Inten    --     12.5355                 2.8100                 9.2125

                     55                     56                     57
                      A                      A                      A
 Frequencies --   1195.4996              1202.3736              1214.7493
 Red. masses --      2.0889                 2.2725                 1.9178
 Frc consts  --      1.7590                 1.9357                 1.6674
 IR Inten    --      5.8383                 3.9670                 3.5678

                     58                     59                     60
                      A                      A                      A
 Frequencies --   1227.0162              1242.4502              1266.1104
 Red. masses --      2.6243                 2.5580                 2.1612
 Frc consts  --      2.3279                 2.3265                 2.0412
 IR Inten    --      5.7962                10.5384                31.2671

                     61                     62                     63
                      A                      A                      A
 Frequencies --   1316.6088              1330.9420              1337.2395
 Red. masses --      1.2045                 1.2207                 1.3615
 Frc consts  --      1.2302                 1.2740                 1.4345
 IR Inten    --      3.4445                 4.2106                 6.1390

                     64                     65                     66
                      A                      A                      A
 Frequencies --   1363.5158              1368.1145              1375.1684
 Red. masses --      1.3965                 1.3405                 1.3470
 Frc consts  --      1.5298                 1.4783                 1.5008
 IR Inten    --      0.8098                 3.6794                 6.1765

                     67                     68                     69
                      A                      A                      A
 Frequencies --   1394.7336              1398.5216              1418.4694
 Red. masses --      1.3563                 1.4354                 1.3272
 Frc consts  --      1.5545                 1.6541                 1.5734
 IR Inten    --      3.1748                 3.0989                 4.1986

                     70                     71                     72
                      A                      A                      A
 Frequencies --   1422.7613              1426.1460              1432.1360
 Red. masses --      1.2734                 1.3359                 1.2234
 Frc consts  --      1.5187                 1.6009                 1.4783
 IR Inten    --     12.3398                 2.3817                 4.0739

                     73                     74                     75
                      A                      A                      A
 Frequencies --   1438.6858              1445.8467              1447.4195
 Red. masses --      1.2511                 1.2351                 1.2380
 Frc consts  --      1.5257                 1.5213                 1.5281
 IR Inten    --     13.4938                 4.3478                 6.2149

                     76                     77                     78
                      A                      A                      A
 Frequencies --   1448.8383              1493.6557              1514.2487
 Red. masses --      1.2530                 1.1529                 1.0605
 Frc consts  --      1.5497                 1.5154                 1.4327
 IR Inten    --      7.8605                 0.8388                 2.3310

                     79                     80                     81
                      A                      A                      A
 Frequencies --   1518.3810              1519.5090              1520.5206
 Red. masses --      1.0523                 1.0509                 1.0784
 Frc consts  --      1.4293                 1.4296                 1.4690
 IR Inten    --      4.7401                 7.8834                10.6913

                     82                     83                     84
                      A                      A                      A
 Frequencies --   1521.9533              1525.9101              1528.8526
 Red. masses --      1.0536                 1.0595                 1.0553
 Frc consts  --      1.4378                 1.4534                 1.4533
 IR Inten    --      1.5658                 0.9535                 1.1863

                     85                     86                     87
                      A                      A                      A
 Frequencies --   1530.6661              1533.9026              1535.5625
 Red. masses --      1.0704                 1.0439                 1.0419
 Frc consts  --      1.4777                 1.4472                 1.4475
 IR Inten    --      8.7033                12.5101                 0.7112

                     88                     89                     90
                      A                      A                      A
 Frequencies --   1538.2658              1540.0282              1544.5319
 Red. masses --      1.0479                 1.0487                 1.0495
 Frc consts  --      1.4609                 1.4654                 1.4751
 IR Inten    --      1.7107                 4.4694                 2.1353

                     91                     92                     93
                      A                      A                      A
 Frequencies --   1545.8072              1551.9472              1817.0795
 Red. masses --      1.0676                 1.0530                10.4075
 Frc consts  --      1.5031                 1.4942                20.2462
 IR Inten    --      1.7948                 3.9275               156.3312

                     94                     95                     96
                      A                      A                      A
 Frequencies --   2923.0247              2956.8034              2977.8680
 Red. masses --      1.0838                 1.0611                 1.0722
 Frc consts  --      5.4558                 5.4656                 5.6021
 IR Inten    --     86.8255                70.5388                55.3986

                     97                     98                     99
                      A                      A                      A
 Frequencies --   3022.4339              3034.8662              3039.5267
 Red. masses --      1.0813                 1.0789                 1.0400
 Frc consts  --      5.8197                 5.8548                 5.6608
 IR Inten    --      2.0220                19.3216                17.7870

                    100                    101                    102
                      A                      A                      A
 Frequencies --   3046.0404              3050.1864              3051.5661
 Red. masses --      1.0449                 1.0443                 1.0366
 Frc consts  --      5.7120                 5.7246                 5.6870
 IR Inten    --     69.8557                 5.9029                18.0232

                    103                    104                    105
                      A                      A                      A
 Frequencies --   3055.9629              3056.9424              3066.1800
 Red. masses --      1.0392                 1.0565                 1.0637
 Frc consts  --      5.7181                 5.8169                 5.8921
 IR Inten    --     25.8086                23.3712                13.1883

                    106                    107                    108
                      A                      A                      A
 Frequencies --   3088.0656              3094.0072              3099.8795
 Red. masses --      1.0720                 1.0992                 1.0985
 Frc consts  --      6.0230                 6.1997                 6.2194
 IR Inten    --     31.3667                 4.8043                 6.7192

                    109                    110                    111
                      A                      A                      A
 Frequencies --   3101.0499              3107.0778              3109.3399
 Red. masses --      1.0968                 1.0986                 1.0927
 Frc consts  --      6.2142                 6.2490                 6.2242
 IR Inten    --      3.3341                46.5006                11.1807

                    112                    113                    114
                      A                      A                      A
 Frequencies --   3115.3370              3117.5666              3119.7247
 Red. masses --      1.1020                 1.1011                 1.1015
 Frc consts  --      6.3017                 6.3056                 6.3166
 IR Inten    --     24.2815                37.0935               101.9614

                    115                    116                    117
                      A                      A                      A
 Frequencies --   3121.9375              3124.9308              3127.8812
 Red. masses --      1.0999                 1.1001                 1.1011
 Frc consts  --      6.3162                 6.3295                 6.3470
 IR Inten    --     19.6364                48.4766                39.1369

                    118                    119                    120
                      A                      A                      A
 Frequencies --   3133.7657              3135.1764              3143.2165
 Red. masses --      1.1004                 1.1021                 1.0987
 Frc consts  --      6.3668                 6.3823                 6.3953
 IR Inten    --      8.6463                48.0826                25.8658

 - Thermochemistry -
 -------------------
 Temperature   298.150 Kelvin.  Pressure   1.00000 Atm.
 Atom     1 has atomic number  6 and mass  12.00000

 Molecular mass:   213.20926 amu.
 Principal axes and moments of inertia in atomic units:
                           1         2         3
     Eigenvalues --  2315.516704904.644655186.92511
           X            0.99975  -0.01789  -0.01315
           Y            0.01678   0.99664  -0.08021
           Z            0.01455   0.07997   0.99669
 This molecule is an asymmetric top.
 Rotational symmetry number  1.
 Warning -- assumption of classical behavior for rotation
           may cause significant error
 Rotational temperatures (Kelvin)      0.03741     0.01766     0.01670
 Rotational constants (GHZ):           0.77941     0.36797     0.34794
 Zero-point vibrational energy    1018904.0 (Joules/Mol)
                                  243.52391 (Kcal/Mol)
 Warning -- explicit consideration of  30 degrees of freedom as
           vibrations may cause significant error
 Vibrational temperatures:     43.86    94.29   115.50   116.05   131.81
          (Kelvin)            148.51   155.73   225.13   257.84   286.36
                              324.62   329.92   335.74   344.76   349.06
                              373.14   396.93   426.13   433.98   462.72
                              491.46   503.37   533.26   585.59   612.83
                              646.37   687.04   718.89   760.50   844.05
                              909.82  1047.57  1120.02  1143.04  1154.61
                             1219.91  1272.41  1327.77  1351.68  1360.13
                             1393.58  1402.52  1438.02  1452.45  1473.58
                             1479.43  1528.66  1530.29  1548.77  1587.08
                             1612.29  1647.54  1665.55  1678.90  1720.06
                             1729.95  1747.75  1765.40  1787.61  1821.65
                             1894.31  1914.93  1923.99  1961.80  1968.41
                             1978.56  2006.71  2012.16  2040.86  2047.04
                             2051.91  2060.52  2069.95  2080.25  2082.51
                             2084.56  2149.04  2178.67  2184.61  2186.23
                             2187.69  2189.75  2195.44  2199.68  2202.29
                             2206.94  2209.33  2213.22  2215.76  2222.24
                             2224.07  2232.91  2614.37  4205.58  4254.18
                             4284.49  4348.61  4366.50  4373.20  4382.57
                             4388.54  4390.52  4396.85  4398.26  4411.55
                             4443.04  4451.59  4460.04  4461.72  4470.39
                             4473.65  4482.28  4485.48  4488.59  4491.77
                             4496.08  4500.32  4508.79  4510.82  4522.39

 Zero-point correction=                           0.388080 (Hartree/Particle)
 Thermal correction to Energy=                    0.407042
 Thermal correction to Enthalpy=                  0.407986
 Thermal correction to Gibbs Free Energy=         0.342187
 Sum of electronic and zero-point Energies=           -641.291023
 Sum of electronic and thermal Energies=              -641.272061
 Sum of electronic and thermal Enthalpies=            -641.271117
 Sum of electronic and thermal Free Energies=         -641.336916

                     E (Thermal)             CV                S
                      KCal/Mol        Cal/Mol-Kelvin    Cal/Mol-Kelvin
 Total                  255.423             71.008            138.486
 Electronic               0.000              0.000              0.000
 Translational            0.889              2.981             41.975
 Rotational               0.889              2.981             32.443
 Vibrational            253.645             65.046             64.068
 Vibration     1          0.594              1.984              5.798
 Vibration     2          0.597              1.971              4.283
 Vibration     3          0.600              1.963              3.884
 Vibration     4          0.600              1.962              3.875
 Vibration     5          0.602              1.955              3.625
 Vibration     6          0.605              1.947              3.393
 Vibration     7          0.606              1.943              3.300
 Vibration     8          0.620              1.895              2.592
 Vibration     9          0.629              1.868              2.337
 Vibration    10          0.637              1.841              2.142
 Vibration    11          0.650              1.802              1.913
 Vibration    12          0.652              1.796              1.884
 Vibration    13          0.654              1.790              1.853
 Vibration    14          0.657              1.780              1.806
 Vibration    15          0.659              1.775              1.784
 Vibration    16          0.668              1.747              1.666
 Vibration    17          0.678              1.718              1.559
 Vibration    18          0.690              1.681              1.438
 Vibration    19          0.694              1.671              1.408
 Vibration    20          0.707              1.632              1.302
 Vibration    21          0.721              1.592              1.205
 Vibration    22          0.727              1.576              1.167
 Vibration    23          0.743              1.533              1.077
 Vibration    24          0.772              1.455              0.937
 Vibration    25          0.788              1.414              0.872
 Vibration    26          0.808              1.363              0.798
 Vibration    27          0.834              1.300              0.717
 Vibration    28          0.855              1.251              0.659
 Vibration    29          0.884              1.187              0.590
 Vibration    30          0.944              1.060              0.473

                           ! Non-Optimized Parameters !
 Normal termination of Gaussian 16 at Thu Dec 10 18:26:42 2020.

 ----------------------------------------------------------------------
 # B3LYP/6-311++G(d,p) empiricaldispersion=gd3bj scf=xqc pop=npa geom=c
 heck
 ----------------------------------------------------------------------

 --------------------------------------
 CID_62277926_JID_5863_Energie_neutraal
 --------------------------------------
 Structure from the checkpoint file:  "JID_5863.chk"
 Charge =  0 Multiplicity = 1

 SCF Done:  E(RB3LYP) =  -641.861363086     A.U. after   14 cycles
 Normal termination of Gaussian 16 at Thu Dec 10 18:36:02 2020.

 ----------------------------------------------------------------------
 # B3LYP/6-311++G(d,p) empiricaldispersion=gd3bj scf=xqc pop=npa geom=c
 heck
 ----------------------------------------------------------------------

 ------------------------------------
 CID_62277926_JID_5863_Energie_kation
 ------------------------------------
 Structure from the checkpoint file:  "JID_5863.chk"
 Charge =  1 Multiplicity = 2

 SCF Done:  E(UB3LYP) =  -641.574095649     A.U. after   22 cycles
 Normal termination of Gaussian 16 at Thu Dec 10 18:56:38 2020.
 Gaussian 16:  ES64L-G16RevA.03 25-Dec-2016

 ----------------------------------------------------------------------
 # B3LYP/6-311++G(d,p) empiricaldispersion=gd3bj scf=xqc pop=npa geom=c
 heck
 ----------------------------------------------------------------------

 -----------------------------------
 CID_62277926_JID_5863_Energie_anion
 -----------------------------------
 Structure from the checkpoint file:  "JID_5863.chk"
 Charge = -1 Multiplicity = 2

                         Standard orientation:
 ---------------------------------------------------------------------
 Center     Atomic      Atomic             Coordinates (Angstroms)
 Number     Number       Type             X           Y           Z
 ---------------------------------------------------------------------
      1          6           0        2.433943   -2.248298    0.813060
      2          6           0        1.234743   -1.451391    0.290917
      3          6           0        1.538401    0.025419   -0.063464
      4          6           0        2.676417    0.181379   -1.091684
      5          6           0        2.444848   -0.519488   -2.433549
      6          6           0        0.240320    0.692763   -0.622104
      7          7           0       -0.800136    0.974783    0.369634
      8          6           0       -0.705486    2.336892    0.880246
      9          6           0       -2.178067    0.637330   -0.056152
     10          6           0       -2.550359    1.203507   -1.439323
     11          6           0       -2.427286   -0.881987    0.084165
     12          6           0       -2.341888   -1.297652    1.557949
     13          6           0       -3.773523   -1.318808   -0.508952
     14          6           0        1.939881    0.707398    1.237067
     15          8           0        2.935331    1.381793    1.398788
     16          1           0        3.211452   -2.359108    0.050281
     17          1           0        2.123728   -3.253193    1.118976
     18          1           0        2.894672   -1.764450    1.682498
     19          1           0        0.823736   -1.946412   -0.597377
     20          1           0        0.435028   -1.461768    1.038788
     21          1           0        2.837624    1.252661   -1.258004
     22          1           0        3.607262   -0.181796   -0.644147
     23          1           0        1.549151   -0.149079   -2.944446
     24          1           0        3.295266   -0.347545   -3.102070
     25          1           0        2.335442   -1.603319   -2.315596
     26          1           0        0.527179    1.611833   -1.160133
     27          1           0       -0.160041    0.009253   -1.374524
     28          1           0       -0.938447    3.108456    0.122942
     29          1           0       -1.392031    2.464072    1.723471
     30          1           0        0.306914    2.537823    1.241385
     31          1           0       -2.830865    1.127342    0.679152
     32          1           0       -2.079508    0.641913   -2.253959
     33          1           0       -3.631670    1.171386   -1.599486
     34          1           0       -2.236075    2.248988   -1.526792
     35          1           0       -1.633499   -1.402442   -0.470341
     36          1           0       -3.209431   -0.916094    2.112471
     37          1           0       -2.334556   -2.388373    1.663627
     38          1           0       -1.441314   -0.892333    2.025622
     39          1           0       -3.821954   -1.167692   -1.591528
     40          1           0       -3.946803   -2.383160   -0.314304
     41          1           0       -4.602470   -0.762261   -0.052384
     42          1           0        1.237838    0.525096    2.079075
 ---------------------------------------------------------------------

 SCF Done:  E(UB3LYP) =  -641.846734645     A.U. after   33 cycles
 SCF Done:  E(UB3LYP) =  -641.848508060     a.u. after   10 cycles

 The electronic state is 2-A.
 Alpha  occ. eigenvalues --  -19.02053 -14.20814 -10.15143 -10.10099 -10.10002
 Alpha  occ. eigenvalues --  -10.09152 -10.09131 -10.07829 -10.07436 -10.07417
 Alpha  occ. eigenvalues --  -10.07115 -10.06552 -10.05820 -10.05730 -10.05550
 Alpha  occ. eigenvalues --   -0.94977  -0.83032  -0.73575  -0.70536  -0.66053
 Alpha  occ. eigenvalues --   -0.63765  -0.62786  -0.59185  -0.58417  -0.55283
 Alpha  occ. eigenvalues --   -0.53587  -0.51723  -0.50094  -0.46030  -0.42503
 Alpha  occ. eigenvalues --   -0.39812  -0.38187  -0.37976  -0.37642  -0.36342
 Alpha  occ. eigenvalues --   -0.34512  -0.34310  -0.33543  -0.32808  -0.32285
 Alpha  occ. eigenvalues --   -0.31773  -0.31332  -0.30299  -0.29011  -0.28804
 Alpha  occ. eigenvalues --   -0.28563  -0.27924  -0.27757  -0.27222  -0.26493
 Alpha  occ. eigenvalues --   -0.25724  -0.25461  -0.24968  -0.23862  -0.23423
 Alpha  occ. eigenvalues --   -0.22605  -0.22170  -0.21484  -0.15662  -0.11939
 Alpha  occ. eigenvalues --    0.04310
 Alpha virt. eigenvalues --    0.05703   0.06478   0.06901   0.07301   0.08245
 Alpha virt. eigenvalues --    0.08518   0.09071   0.09463   0.09684   0.10767
 Alpha virt. eigenvalues --    0.10997   0.11207   0.11374   0.11678   0.12535

  Beta  occ. eigenvalues --  -19.01970 -14.20814 -10.15052 -10.10077 -10.09991
  Beta  occ. eigenvalues --  -10.09136 -10.09128 -10.07820 -10.07428 -10.07410
  Beta  occ. eigenvalues --  -10.07109 -10.06523 -10.05787 -10.05715 -10.05509
  Beta  occ. eigenvalues --   -0.94814  -0.83019  -0.73543  -0.70512  -0.66029
  Beta  occ. eigenvalues --   -0.63723  -0.62744  -0.59123  -0.58357  -0.55217
  Beta  occ. eigenvalues --   -0.53551  -0.51571  -0.50039  -0.45980  -0.42437
  Beta  occ. eigenvalues --   -0.39764  -0.38149  -0.37935  -0.37603  -0.36267
  Beta  occ. eigenvalues --   -0.34444  -0.34262  -0.33508  -0.32757  -0.32249
  Beta  occ. eigenvalues --   -0.31749  -0.31291  -0.30211  -0.28920  -0.28754
  Beta  occ. eigenvalues --   -0.28479  -0.27887  -0.27684  -0.27109  -0.26420
  Beta  occ. eigenvalues --   -0.25675  -0.25427  -0.24917  -0.23826  -0.23392
  Beta  occ. eigenvalues --   -0.22570  -0.22141  -0.21455  -0.15601  -0.11920
  Beta virt. eigenvalues --    0.06126   0.06653   0.07115   0.07533   0.07802
  Beta virt. eigenvalues --    0.08632   0.08950   0.09348   0.09756   0.09962
  Beta virt. eigenvalues --    0.11099   0.11247   0.11366   0.11775   0.11935

 Mulliken charges and spin densities:
               1          2
     1  C   -0.017061  -0.610703
     2  C   -0.727513   0.315470
     3  C    1.667433  -0.511167
     4  C   -0.444043   0.184347
     5  C    0.341169  -1.013437
     6  C   -2.002844   0.621580
     7  N    0.458092  -0.055752
     8  C    0.637664  -0.874355
     9  C   -0.653944   0.274834
    10  C    1.227224  -1.882535
    11  C   -1.172769   1.651330
    12  C    0.052379  -0.599453
    13  C    0.743243  -1.349838
    14  C   -0.435513   0.168054
    15  O   -0.180760   0.030928
    16  H    0.101560   0.038655
    17  H   -0.055999   0.206442
    18  H    0.126467   0.047588
    19  H   -0.046506   0.226179
    20  H    0.443859  -0.332157
    21  H    0.167356   0.018683
    22  H    0.136363   0.042568
    23  H   -0.419790   0.572541
    24  H   -0.239637   0.387168
    25  H   -0.046112   0.190677
    26  H   -0.013726   0.198009
    27  H    1.043861  -0.859032
    28  H   -0.125883   0.254245
    29  H   -0.210438   0.347237
    30  H    0.355652  -0.176921
    31  H    0.015000   0.151497
    32  H   -0.382733   0.551289
    33  H   -0.470285   0.643321
    34  H   -0.116693   0.236067
    35  H   -0.282117   0.398205
    36  H   -0.015385   0.146024
    37  H   -0.032139   0.175118
    38  H    0.042039   0.123686
    39  H   -0.145816   0.301312
    40  H   -0.240019   0.389760
    41  H   -0.128467   0.275819
    42  H    0.046828   0.096717
 Sum of Mulliken charges =  -1.00000   1.00000

 Dipole moment (field-independent basis, Debye):
    X=              3.4089    Y=             -0.6625    Z=              3.6207  Tot=              5.0169
 Quadrupole moment (field-independent basis, Debye-Ang):
   XX=           -176.2967   YY=           -142.7527   ZZ=           -148.0357
   XY=             -3.2149   XZ=             -6.0638   YZ=             -2.2958

 Summary of Natural Population Analysis:

                                       Natural Population
                Natural  -----------------------------------------------
    Atom  No    Charge         Core      Valence    Rydberg      Total
 -----------------------------------------------------------------------
      C    1   -0.28780      0.99966     2.28302    0.00513     3.28780
      C    2   -0.19308      0.99960     2.18395    0.00953     3.19308
      C    3   -0.08749      0.99952     2.07558    0.01239     3.08749
      C    4   -0.19305      0.99961     2.18144    0.01200     3.19305
      C    5   -0.28796      0.99966     2.28318    0.00512     3.28796
      C    6   -0.08056      0.99956     2.06800    0.01299     3.08056
      N    7   -0.29419      0.99971     2.78152    0.01296     3.79419
      C    8   -0.17397      0.99963     2.16668    0.00767     3.17397
      C    9    0.00434      0.99956     1.98247    0.01363     2.99566
      C   10   -0.29936      0.99964     2.29366    0.00606     3.29936
      C   11   -0.11927      0.99958     2.10960    0.01009     3.11927
      C   12   -0.28419      0.99964     2.27859    0.00595     3.28419
      C   13   -0.28460      0.99965     2.27908    0.00587     3.28460
      C   14    0.24012      0.99965     1.73842    0.02181     2.75988
      O   15   -0.27477      0.99988     3.26874    0.00615     4.27477
      H   16    0.09790      0.00000     0.40128    0.00081     0.40210
      H   17    0.09969      0.00000     0.39968    0.00063     0.40031
      H   18    0.09736      0.00000     0.40189    0.00075     0.40264
      H   19    0.10040      0.00000     0.39812    0.00147     0.39960
      H   20    0.10453      0.00000     0.39308    0.00239     0.39547
      H   21    0.10291      0.00000     0.39604    0.00105     0.39709
      H   22    0.10204      0.00000     0.39691    0.00105     0.39796
      H   23    0.09983      0.00000     0.39889    0.00129     0.40017
      H   24    0.09932      0.00000     0.39993    0.00076     0.40068
      H   25    0.09583      0.00000     0.40315    0.00102     0.40417
      H   26    0.09129      0.00000     0.40712    0.00158     0.40871
      H   27    0.10408      0.00000     0.39350    0.00242     0.39592
      H   28    0.08347      0.00000     0.41542    0.00111     0.41653
      H   29    0.09591      0.00000     0.40320    0.00089     0.40409
      H   30    0.09692      0.00000     0.40215    0.00093     0.40308
      H   31    0.09316      0.00000     0.40482    0.00202     0.40684
      H   32    0.09966      0.00000     0.39886    0.00148     0.40034
      H   33    0.10548      0.00000     0.39327    0.00125     0.39452
      H   34    0.10179      0.00000     0.39709    0.00112     0.39821
      H   35    0.09435      0.00000     0.40293    0.00272     0.40565
      H   36    0.09506      0.00000     0.40405    0.00089     0.40494
      H   37    0.09704      0.00000     0.40218    0.00078     0.40296
      H   38    0.10383      0.00000     0.39469    0.00148     0.39617
      H   39    0.10287      0.00000     0.39598    0.00115     0.39713
      H   40    0.09946      0.00000     0.39959    0.00095     0.40054
      H   41    0.09627      0.00000     0.40261    0.00112     0.40373
      H   42    0.05539      0.00000     0.44240    0.00221     0.44461
 =======================================================================
   * Total *    0.00000     14.99455    44.82277    0.18268    60.00000

 Normal termination of Gaussian 16 at Fri Dec 11 00:02:52 2020.
