 Gaussian 16, Revision A.03,

 -----------------------------------------------------------
 # opt freq B3LYP/6-31G(d) empiricaldispersion=gd3bj scf=xqc
 -----------------------------------------------------------

 -------------------------------
 CID_91960744_JID_10144_neutraal
 -------------------------------
 Symbolic Z-matrix:
 Charge =  0 Multiplicity = 1

 SCF Done:  E(RB3LYP) =  -859.310448380     A.U. after   14 cycles
 SCF Done:  E(RB3LYP) =  -859.321191828     A.U. after   12 cycles
 SCF Done:  E(RB3LYP) =  -859.322949185     A.U. after   12 cycles
 SCF Done:  E(RB3LYP) =  -859.324324781     A.U. after   12 cycles
 SCF Done:  E(RB3LYP) =  -859.324868275     A.U. after   11 cycles
 SCF Done:  E(RB3LYP) =  -859.325312577     A.U. after   12 cycles
 SCF Done:  E(RB3LYP) =  -859.325579595     A.U. after   11 cycles
 SCF Done:  E(RB3LYP) =  -859.326175080     A.U. after   12 cycles
 SCF Done:  E(RB3LYP) =  -859.326703870     A.U. after   11 cycles
 SCF Done:  E(RB3LYP) =  -859.326806169     A.U. after   10 cycles
 SCF Done:  E(RB3LYP) =  -859.328590004     A.U. after    7 cycles
 SCF Done:  E(RB3LYP) =  -859.328590034     A.U. after    6 cycles
 SCF Done:  E(RB3LYP) =  -859.328590054     A.U. after    6 cycles
 SCF Done:  E(RB3LYP) =  -859.328590066     A.U. after    6 cycles
 SCF Done:  E(RB3LYP) =  -859.328590070     A.U. after    6 cycles
 Optimization completed.
    -- Stationary point found.
 Normal termination of Gaussian 16 at Mon Dec 14 14:10:16 2020.

 --------------------------------------------------------------------
 #N Geom=AllCheck Guess=TCheck SCRF=Check GenChk RB3LYP/6-31G(d) Freq
 --------------------------------------------------------------------

 Structure from the checkpoint file:  "JID_10144.chk"
 -------------------------------
 CID_91960744_JID_10144_neutraal
 -------------------------------
 Charge =  0 Multiplicity = 1

 SCF Done:  E(RB3LYP) =  -859.328590070     A.U. after    1 cycles

  Exact polarizability: 235.956  16.381 240.096 -18.640   4.155 125.225
 Approx polarizability: 330.774  18.838 345.109 -48.553   8.926 196.319

                      1                      2                      3
                      A                      A                      A
 Frequencies --     33.0212                36.1847                54.6230
 Red. masses --      3.4735                 3.5123                 2.1121
 Frc consts  --      0.0022                 0.0027                 0.0037
 IR Inten    --      0.1895                 0.3950                 0.3180

                      4                      5                      6
                      A                      A                      A
 Frequencies --     71.6585                98.1756               105.8971
 Red. masses --      2.0812                 2.1012                 1.8482
 Frc consts  --      0.0063                 0.0119                 0.0122
 IR Inten    --      2.4833                 0.4660                 1.9912

                      7                      8                      9
                      A                      A                      A
 Frequencies --    121.5501               132.9931               148.2599
 Red. masses --      1.5733                 1.6457                 1.9271
 Frc consts  --      0.0137                 0.0171                 0.0250
 IR Inten    --      0.2727                 0.2787                 0.5833

                     10                     11                     12
                      A                      A                      A
 Frequencies --    166.5739               173.6593               186.4606
 Red. masses --      2.5996                 2.4163                 2.6829
 Frc consts  --      0.0425                 0.0429                 0.0550
 IR Inten    --      3.6412                 1.1196                 5.2442

                     13                     14                     15
                      A                      A                      A
 Frequencies --    209.3286               243.4697               245.6024
 Red. masses --      2.2931                 2.5269                 1.4282
 Frc consts  --      0.0592                 0.0883                 0.0508
 IR Inten    --      2.2164                 4.3688                 1.5325

                     16                     17                     18
                      A                      A                      A
 Frequencies --    270.9557               298.7330               311.5190
 Red. masses --      6.3644                 2.2008                 3.0389
 Frc consts  --      0.2753                 0.1157                 0.1738
 IR Inten    --      3.5560                 0.1090                 0.3359

                     19                     20                     21
                      A                      A                      A
 Frequencies --    347.4780               354.4584               361.7614
 Red. masses --      2.8786                 4.0591                 2.9741
 Frc consts  --      0.2048                 0.3005                 0.2293
 IR Inten    --      0.5121                10.1213                 0.3679

                     22                     23                     24
                      A                      A                      A
 Frequencies --    386.9121               410.1213               442.8985
 Red. masses --      2.6503                 2.4152                 3.0824
 Frc consts  --      0.2338                 0.2394                 0.3562
 IR Inten    --      3.8709                 6.4781                 3.0432

                     25                     26                     27
                      A                      A                      A
 Frequencies --    461.5981               467.7647               484.6505
 Red. masses --      1.5316                 1.9449                 2.9514
 Frc consts  --      0.1923                 0.2507                 0.4084
 IR Inten    --     43.0748                31.6671                 0.2303

                     28                     29                     30
                      A                      A                      A
 Frequencies --    507.9986               550.4118               577.7566
 Red. masses --      3.7073                 3.4795                 5.5888
 Frc consts  --      0.5637                 0.6211                 1.0991
 IR Inten    --      2.9056                 4.9038                 2.4162

                     31                     32                     33
                      A                      A                      A
 Frequencies --    607.8345               635.2055               682.2290
 Red. masses --      2.2433                 3.2438                 4.6270
 Frc consts  --      0.4883                 0.7711                 1.2689
 IR Inten    --      8.5593                 4.9357                 8.6199

                     34                     35                     36
                      A                      A                      A
 Frequencies --    687.7806               727.7808               735.2891
 Red. masses --      8.3451                 6.1688                 7.8596
 Frc consts  --      2.3258                 1.9251                 2.5036
 IR Inten    --      4.8645                 5.1422                 4.0456

                     37                     38                     39
                      A                      A                      A
 Frequencies --    772.1513               788.7250               807.2961
 Red. masses --      1.5157                 2.5486                 5.3709
 Frc consts  --      0.5325                 0.9341                 2.0623
 IR Inten    --     46.1649                 1.6479                 2.1321

                     40                     41                     42
                      A                      A                      A
 Frequencies --    821.2511               829.8004               876.0845
 Red. masses --      1.5776                 4.2969                 3.7272
 Frc consts  --      0.6269                 1.7432                 1.6855
 IR Inten    --      0.4501                 4.6130                 0.4454

                     43                     44                     45
                      A                      A                      A
 Frequencies --    906.3537               935.3290               980.2650
 Red. masses --      2.1711                 2.9679                 1.4442
 Frc consts  --      1.0508                 1.5298                 0.8177
 IR Inten    --      0.5725                19.0103                 0.7610

                     46                     47                     48
                      A                      A                      A
 Frequencies --    983.1449               992.3665              1000.4281
 Red. masses --      1.3811                 2.1879                 2.1721
 Frc consts  --      0.7865                 1.2695                 1.2809
 IR Inten    --     12.9682                45.7618                 0.6856

                     49                     50                     51
                      A                      A                      A
 Frequencies --   1014.1675              1020.1364              1034.6061
 Red. masses --      2.1611                 1.7570                 2.4403
 Frc consts  --      1.3096                 1.0773                 1.5390
 IR Inten    --     12.3759                 3.9159                 1.4107

                     52                     53                     54
                      A                      A                      A
 Frequencies --   1062.6511              1078.1618              1091.8690
 Red. masses --      2.5762                 1.4437                 1.4047
 Frc consts  --      1.7140                 0.9888                 0.9867
 IR Inten    --     37.4719                 2.1561                 7.5053

                     55                     56                     57
                      A                      A                      A
 Frequencies --   1110.5598              1124.8142              1139.7809
 Red. masses --      2.6142                 2.3643                 1.2362
 Frc consts  --      1.8996                 1.7624                 0.9462
 IR Inten    --     26.0715                34.1469                 5.1378

                     58                     59                     60
                      A                      A                      A
 Frequencies --   1149.8790              1182.1720              1196.6817
 Red. masses --      2.1241                 1.4302                 1.4741
 Frc consts  --      1.6548                 1.1776                 1.2438
 IR Inten    --      8.9405                99.2020                18.2929

                     61                     62                     63
                      A                      A                      A
 Frequencies --   1197.8871              1208.2907              1217.3945
 Red. masses --      1.5154                 2.4073                 2.6928
 Frc consts  --      1.2811                 2.0707                 2.3514
 IR Inten    --      7.3814                11.8322                36.7460

                     64                     65                     66
                      A                      A                      A
 Frequencies --   1250.6831              1269.4591              1286.6106
 Red. masses --      2.3080                 1.7981                 2.6368
 Frc consts  --      2.1271                 1.7072                 2.5717
 IR Inten    --     35.8520                44.5324                66.6735

                     67                     68                     69
                      A                      A                      A
 Frequencies --   1301.5944              1309.9413              1328.1956
 Red. masses --      1.2681                 1.7864                 2.2180
 Frc consts  --      1.2658                 1.8061                 2.3054
 IR Inten    --     12.2163                 3.7435                 0.8318

                     70                     71                     72
                      A                      A                      A
 Frequencies --   1349.9979              1355.3565              1360.8920
 Red. masses --      2.2599                 1.2909                 3.4580
 Frc consts  --      2.4266                 1.3972                 3.7733
 IR Inten    --     12.7577                 0.9794                44.7584

                     73                     74                     75
                      A                      A                      A
 Frequencies --   1389.7326              1394.1579              1401.6335
 Red. masses --      1.2621                 2.7085                 1.4618
 Frc consts  --      1.4362                 3.1018                 1.6920
 IR Inten    --      5.8338                20.5846                 2.5214

                     76                     77                     78
                      A                      A                      A
 Frequencies --   1413.9698              1424.8065              1427.2526
 Red. masses --      1.5317                 1.5383                 3.1663
 Frc consts  --      1.8043                 1.8399                 3.8002
 IR Inten    --     28.7285                43.9830                14.9254

                     79                     80                     81
                      A                      A                      A
 Frequencies --   1439.0800              1445.0797              1447.9189
 Red. masses --      1.3074                 2.1773                 1.4479
 Frc consts  --      1.5953                 2.6789                 1.7885
 IR Inten    --     20.7886               162.5072               115.6308

                     82                     83                     84
                      A                      A                      A
 Frequencies --   1457.9152              1473.3153              1488.6504
 Red. masses --      1.1599                 1.7242                 1.6386
 Frc consts  --      1.4525                 2.2051                 2.1394
 IR Inten    --     12.8864                40.3652                93.1534

                     85                     86                     87
                      A                      A                      A
 Frequencies --   1504.3330              1507.6457              1509.2756
 Red. masses --      1.1351                 1.0432                 1.1864
 Frc consts  --      1.5134                 1.3971                 1.5923
 IR Inten    --     26.8931                 6.2980                63.8667

                     88                     89                     90
                      A                      A                      A
 Frequencies --   1511.8472              1516.6211              1519.2900
 Red. masses --      1.0813                 1.2300                 1.1298
 Frc consts  --      1.4561                 1.6669                 1.5365
 IR Inten    --     50.4926               115.4940                 9.3896

                     91                     92                     93
                      A                      A                      A
 Frequencies --   1524.5135              1527.6052              1530.4950
 Red. masses --      1.1370                 1.0577                 1.0627
 Frc consts  --      1.5569                 1.4542                 1.4667
 IR Inten    --      0.7146                20.3545                 4.1097

                     94                     95                     96
                      A                      A                      A
 Frequencies --   1531.0251              1536.4152              1538.2236
 Red. masses --      1.0564                 1.1696                 1.4765
 Frc consts  --      1.4589                 1.6267                 2.0583
 IR Inten    --      2.4124                 5.5171                52.9650

                     97                     98                     99
                      A                      A                      A
 Frequencies --   1584.4498              1602.1282              1629.8021
 Red. masses --      2.3963                 4.8269                 6.6021
 Frc consts  --      3.5445                 7.2998                10.3324
 IR Inten    --    407.7132               452.2213               130.4006

                    100                    101                    102
                      A                      A                      A
 Frequencies --   1662.9691              2989.6623              2991.0821
 Red. masses --      6.1378                 1.0824                 1.0568
 Frc consts  --     10.0008                 5.7003                 5.5708
 IR Inten    --    330.6178                22.1265                43.3443

                    103                    104                    105
                      A                      A                      A
 Frequencies --   2998.2137              3028.8412              3029.3465
 Red. masses --      1.0597                 1.0406                 1.0615
 Frc consts  --      5.6125                 5.6245                 5.7394
 IR Inten    --    157.2090                73.8312                39.8525

                    106                    107                    108
                      A                      A                      A
 Frequencies --   3031.6577              3037.0725              3041.1627
 Red. masses --      1.0700                 1.0435                 1.0744
 Frc consts  --      5.7944                 5.6710                 5.8546
 IR Inten    --     19.4999                21.1661                60.0071

                    109                    110                    111
                      A                      A                      A
 Frequencies --   3042.4502              3071.8452              3073.7928
 Red. masses --      1.0548                 1.1012                 1.1029
 Frc consts  --      5.7526                 6.1225                 6.1393
 IR Inten    --     55.0619                25.4276                55.9065

                    112                    113                    114
                      A                      A                      A
 Frequencies --   3087.8380              3089.1851              3092.7861
 Red. masses --      1.1020                 1.0850                 1.0815
 Frc consts  --      6.1907                 6.1006                 6.0952
 IR Inten    --     41.0278                 6.8994               105.4026

                    115                    116                    117
                      A                      A                      A
 Frequencies --   3104.6318              3107.3953              3137.2010
 Red. masses --      1.1018                 1.1024                 1.0968
 Frc consts  --      6.2570                 6.2717                 6.3599
 IR Inten    --     64.0986                36.4946                12.0573

                    118                    119                    120
                      A                      A                      A
 Frequencies --   3168.1266              3186.4105              3188.3045
 Red. masses --      1.0916                 1.0960                 1.0956
 Frc consts  --      6.4553                 6.5564                 6.5616
 IR Inten    --      8.1015                 4.2863                 6.5089

                    121                    122                    123
                      A                      A                      A
 Frequencies --   3199.3782              3266.1506              3660.4376
 Red. masses --      1.0888                 1.0948                 1.0797
 Frc consts  --      6.5664                 6.8810                 8.5233
 IR Inten    --      6.1118                 9.6850                55.6253

 - Thermochemistry -
 -------------------
 Temperature   298.150 Kelvin.  Pressure   1.00000 Atm.
 Atom     1 has atomic number  6 and mass  12.00000

 Molecular mass:   273.19535 amu.
 Principal axes and moments of inertia in atomic units:
                           1         2         3
     Eigenvalues --  4664.763516420.88722**********
           X            0.99994   0.00985   0.00375
           Y           -0.00986   0.99995   0.00051
           Z           -0.00374  -0.00055   0.99999
 This molecule is an asymmetric top.
 Rotational symmetry number  1.
 Warning -- assumption of classical behavior for rotation
           may cause significant error
 Rotational temperatures (Kelvin)      0.01857     0.01349     0.00861
 Rotational constants (GHZ):           0.38689     0.28107     0.17947
 Zero-point vibrational energy     988334.9 (Joules/Mol)
                                  236.21772 (Kcal/Mol)
 Warning -- explicit consideration of  31 degrees of freedom as
           vibrations may cause significant error
 Vibrational temperatures:     47.51    52.06    78.59   103.10   141.25
          (Kelvin)            152.36   174.88   191.35   213.31   239.66
                              249.86   268.28   301.18   350.30   353.37
                              389.84   429.81   448.21   499.94   509.99
                              520.49   556.68   590.07   637.23   664.14
                              673.01   697.30   730.90   791.92   831.26
                              874.54   913.92   981.58   989.56  1047.11
                             1057.92  1110.95  1134.80  1161.52  1181.60
                             1193.90  1260.49  1304.04  1345.73  1410.38
                             1414.53  1427.79  1439.39  1459.16  1467.75
                             1488.57  1528.92  1551.23  1570.96  1597.85
                             1618.36  1639.89  1654.42  1700.88  1721.76
                             1723.49  1738.46  1751.56  1799.45  1826.47
                             1851.15  1872.70  1884.71  1910.98  1942.35
                             1950.06  1958.02  1999.52  2005.88  2016.64
                             2034.39  2049.98  2053.50  2070.52  2079.15
                             2083.23  2097.61  2119.77  2141.84  2164.40
                             2169.17  2171.51  2175.21  2182.08  2185.92
                             2193.43  2197.88  2202.04  2202.80  2210.56
                             2213.16  2279.67  2305.11  2344.92  2392.64
                             4301.46  4303.50  4313.76  4357.83  4358.55
                             4361.88  4369.67  4375.55  4377.41  4419.70
                             4422.50  4442.71  4444.65  4449.83  4466.87
                             4470.85  4513.73  4558.23  4584.53  4587.26
                             4603.19  4699.26  5266.55

 Zero-point correction=                           0.376437 (Hartree/Particle)
 Thermal correction to Energy=                    0.396029
 Thermal correction to Enthalpy=                  0.396973
 Thermal correction to Gibbs Free Energy=         0.328267
 Sum of electronic and zero-point Energies=           -858.952153
 Sum of electronic and thermal Energies=              -858.932561
 Sum of electronic and thermal Enthalpies=            -858.931617
 Sum of electronic and thermal Free Energies=         -859.000323

                     E (Thermal)             CV                S
                      KCal/Mol        Cal/Mol-Kelvin    Cal/Mol-Kelvin
 Total                  248.512             74.924            144.604
 Electronic               0.000              0.000              0.000
 Translational            0.889              2.981             42.714
 Rotational               0.889              2.981             34.065
 Vibrational            246.734             68.963             67.826
 Vibration     1          0.594              1.983              5.639
 Vibration     2          0.594              1.982              5.458
 Vibration     3          0.596              1.976              4.643
 Vibration     4          0.598              1.968              4.107
 Vibration     5          0.604              1.950              3.490
 Vibration     6          0.605              1.945              3.343
 Vibration     7          0.609              1.931              3.076
 Vibration     8          0.613              1.920              2.902
 Vibration     9          0.618              1.905              2.694
 Vibration    10          0.624              1.884              2.474
 Vibration    11          0.627              1.875              2.396
 Vibration    12          0.632              1.858              2.263
 Vibration    13          0.642              1.827              2.050
 Vibration    14          0.659              1.774              1.777
 Vibration    15          0.660              1.770              1.762
 Vibration    16          0.675              1.727              1.590
 Vibration    17          0.692              1.676              1.424
 Vibration    18          0.700              1.652              1.354
 Vibration    19          0.725              1.580              1.178
 Vibration    20          0.730              1.566              1.146
 Vibration    21          0.736              1.551              1.115
 Vibration    22          0.755              1.498              1.012
 Vibration    23          0.774              1.448              0.926
 Vibration    24          0.803              1.377              0.818
 Vibration    25          0.819              1.335              0.761
 Vibration    26          0.825              1.322              0.744
 Vibration    27          0.841              1.284              0.698
 Vibration    28          0.863              1.232              0.638
 Vibration    29          0.906              1.139              0.543
 Vibration    30          0.934              1.079              0.490
 Vibration    31          0.967              1.015              0.436

                           ! Non-Optimized Parameters !
 Normal termination of Gaussian 16 at Mon Dec 14 14:33:23 2020.

 ----------------------------------------------------------------------
 # B3LYP/6-311++G(d,p) empiricaldispersion=gd3bj scf=xqc pop=npa geom=c
 heck
 ----------------------------------------------------------------------

 ---------------------------------------
 CID_91960744_JID_10144_Energie_neutraal
 ---------------------------------------
 Structure from the checkpoint file:  "JID_10144.chk"
 Charge =  0 Multiplicity = 1

 SCF Done:  E(RB3LYP) =  -859.552940998     A.U. after   14 cycles
 Normal termination of Gaussian 16 at Mon Dec 14 14:42:28 2020.

 ----------------------------------------------------------------------
 # B3LYP/6-311++G(d,p) empiricaldispersion=gd3bj scf=xqc pop=npa geom=c
 heck
 ----------------------------------------------------------------------

 -------------------------------------
 CID_91960744_JID_10144_Energie_kation
 -------------------------------------
 Structure from the checkpoint file:  "JID_10144.chk"
 Charge =  1 Multiplicity = 2

 SCF Done:  E(UB3LYP) =  -859.317884017     A.U. after   22 cycles
 Normal termination of Gaussian 16 at Mon Dec 14 15:01:54 2020.
 Gaussian 16:  ES64L-G16RevA.03 25-Dec-2016

 ----------------------------------------------------------------------
 # B3LYP/6-311++G(d,p) empiricaldispersion=gd3bj scf=xqc pop=npa geom=c
 heck
 ----------------------------------------------------------------------

 ------------------------------------
 CID_91960744_JID_10144_Energie_anion
 ------------------------------------
 Structure from the checkpoint file:  "JID_10144.chk"
 Charge = -1 Multiplicity = 2

                         Standard orientation:
 ---------------------------------------------------------------------
 Center     Atomic      Atomic             Coordinates (Angstroms)
 Number     Number       Type             X           Y           Z
 ---------------------------------------------------------------------
      1          6           0       -4.572519    0.564830   -1.641151
      2          6           0       -3.744417    0.854231   -0.387917
      3          6           0       -2.566659    1.794051   -0.690315
      4          6           0       -1.683096    2.022678    0.545380
      5          7           0       -1.213905    0.750977    1.098604
      6          6           0       -2.327226   -0.126861    1.467173
      7          6           0       -3.227072   -0.437275    0.266105
      8          6           0       -0.047699    0.177538    0.625786
      9          7           0       -0.029495   -1.157699    0.513938
     10          6           0        1.086252   -1.781264    0.074102
     11          7           0        2.221996   -1.188209   -0.328014
     12          6           0        2.186836    0.138719   -0.181015
     13          6           0        1.113765    0.927160    0.299833
     14          6           0        1.592234    2.288101    0.337415
     15          6           0        2.883411    2.292181   -0.123648
     16          7           0        3.233043    0.982071   -0.450384
     17          6           0        3.850856    3.414650   -0.291142
     18          7           0        1.044713   -3.160238    0.039416
     19          6           0        2.092267   -3.885683   -0.655051
     20          6           0       -0.222731   -3.850720    0.187618
     21          1           0       -4.960127    1.489046   -2.086179
     22          1           0       -3.962735    0.058197   -2.399707
     23          1           0       -5.425966   -0.084041   -1.411536
     24          1           0       -4.392781    1.362235    0.344823
     25          1           0       -1.945542    1.357723   -1.485218
     26          1           0       -2.935548    2.759105   -1.062830
     27          1           0       -2.255340    2.540720    1.326792
     28          1           0       -0.834459    2.650754    0.287746
     29          1           0       -2.904819    0.398318    2.240635
     30          1           0       -1.918036   -1.038024    1.900270
     31          1           0       -4.070887   -1.064354    0.583514
     32          1           0       -2.643493   -1.016794   -0.460183
     33          1           0        1.075808    3.167380    0.693532
     34          1           0        4.134336    0.668120   -0.776749
     35          1           0        3.393038    4.353286    0.032327
     36          1           0        4.761861    3.263982    0.303903
     37          1           0        4.161005    3.536502   -1.337890
     38          1           0        2.160050   -4.896846   -0.240043
     39          1           0        1.895696   -3.967382   -1.736761
     40          1           0        3.041690   -3.370442   -0.519300
     41          1           0       -0.837463   -3.337009    0.924307
     42          1           0       -0.786344   -3.897940   -0.758971
     43          1           0       -0.029615   -4.874866    0.523553
 ---------------------------------------------------------------------

 SCF Done:  E(UB3LYP) =  -859.540177254     A.U. after   33 cycles
 SCF Done:  E(UB3LYP) =  -859.540177254     a.u. after    1 cycles

 The electronic state is 2-A.
 Alpha  occ. eigenvalues --  -14.25569 -14.23923 -14.23898 -14.19598 -14.19379
 Alpha  occ. eigenvalues --  -10.16750 -10.15547 -10.13718 -10.11337 -10.11173
 Alpha  occ. eigenvalues --  -10.10558 -10.10550 -10.10453 -10.08684 -10.08035
 Alpha  occ. eigenvalues --  -10.07798 -10.07424 -10.07345 -10.07182 -10.06723
 Alpha  occ. eigenvalues --   -0.91301  -0.88261  -0.86834  -0.81695  -0.77464
 Alpha  occ. eigenvalues --   -0.72341  -0.69421  -0.67470  -0.66959  -0.63742
 Alpha  occ. eigenvalues --   -0.62715  -0.61240  -0.57223  -0.55814  -0.54650
 Alpha  occ. eigenvalues --   -0.51753  -0.50090  -0.49086  -0.47525  -0.44979
 Alpha  occ. eigenvalues --   -0.43007  -0.40317  -0.38817  -0.38205  -0.37186
 Alpha  occ. eigenvalues --   -0.36841  -0.35747  -0.35542  -0.35120  -0.34888
 Alpha  occ. eigenvalues --   -0.34199  -0.33726  -0.32146  -0.31876  -0.31094
 Alpha  occ. eigenvalues --   -0.30989  -0.30697  -0.30335  -0.29275  -0.29030
 Alpha  occ. eigenvalues --   -0.28722  -0.28174  -0.27719  -0.26452  -0.25839
 Alpha  occ. eigenvalues --   -0.23741  -0.22829  -0.22618  -0.20851  -0.17304
 Alpha  occ. eigenvalues --   -0.15504  -0.15317  -0.13509  -0.09100   0.03919
 Alpha virt. eigenvalues --    0.05294   0.05769   0.06863   0.07129   0.07442
 Alpha virt. eigenvalues --    0.07811   0.08510   0.08654   0.09154   0.09322
 Alpha virt. eigenvalues --    0.09731   0.09917   0.10546   0.10890   0.11123

  Beta  occ. eigenvalues --  -14.25544 -14.23923 -14.23901 -14.19583 -14.19379
  Beta  occ. eigenvalues --  -10.16746 -10.15534 -10.13717 -10.11330 -10.11163
  Beta  occ. eigenvalues --  -10.10545 -10.10543 -10.10442 -10.08674 -10.07984
  Beta  occ. eigenvalues --  -10.07786 -10.07413 -10.07326 -10.07181 -10.06713
  Beta  occ. eigenvalues --   -0.91286  -0.88241  -0.86826  -0.81685  -0.77449
  Beta  occ. eigenvalues --   -0.72321  -0.69395  -0.67431  -0.66940  -0.63715
  Beta  occ. eigenvalues --   -0.62689  -0.61212  -0.57193  -0.55770  -0.54619
  Beta  occ. eigenvalues --   -0.51722  -0.50063  -0.49047  -0.47495  -0.44951
  Beta  occ. eigenvalues --   -0.42982  -0.40295  -0.38797  -0.38189  -0.37156
  Beta  occ. eigenvalues --   -0.36807  -0.35723  -0.35521  -0.35102  -0.34851
  Beta  occ. eigenvalues --   -0.34180  -0.33703  -0.32111  -0.31849  -0.31076
  Beta  occ. eigenvalues --   -0.30970  -0.30676  -0.30300  -0.29246  -0.29002
  Beta  occ. eigenvalues --   -0.28695  -0.28153  -0.27689  -0.26429  -0.25808
  Beta  occ. eigenvalues --   -0.23708  -0.22803  -0.22588  -0.20830  -0.17268
  Beta  occ. eigenvalues --   -0.15490  -0.15302  -0.13508  -0.09066
  Beta virt. eigenvalues --    0.05592   0.06158   0.06460   0.07056   0.07558
  Beta virt. eigenvalues --    0.07946   0.07984   0.08704   0.09046   0.09530
  Beta virt. eigenvalues --    0.09656   0.09839   0.10206   0.10634   0.10973

 Mulliken charges and spin densities:
               1          2
     1  C    0.007121  -0.681231
     2  C    0.357010  -0.005032
     3  C   -0.051782  -0.430578
     4  C   -0.347519   0.029710
     5  N    0.324110   0.045269
     6  C   -0.106933  -0.244608
     7  C   -0.225673  -0.062826
     8  C    0.505986  -0.727297
     9  N   -0.360288   0.066886
    10  C    0.097925  -0.214273
    11  N   -0.193507   0.021319
    12  C   -1.992738   1.957424
    13  C    1.774557  -1.425971
    14  C    0.442684  -0.747786
    15  C   -1.824486   1.392522
    16  N   -0.337701   0.183670
    17  C    2.037523  -2.479192
    18  N    0.015639   0.047054
    19  C    0.073793  -0.328018
    20  C    0.024014  -0.351626
    21  H   -0.107039   0.240460
    22  H    0.018365   0.114912
    23  H   -0.072323   0.208219
    24  H   -0.060851   0.212821
    25  H    0.115284   0.050411
    26  H   -0.136607   0.318045
    27  H   -0.116074   0.273119
    28  H    0.002695   0.103040
    29  H    0.050464   0.114070
    30  H    0.119145   0.086107
    31  H   -0.097508   0.250123
    32  H    0.305637  -0.125436
    33  H   -0.162711   0.322808
    34  H   -0.275831   0.603999
    35  H   -0.364056   0.524668
    36  H   -0.335085   0.493117
    37  H   -0.368938   0.532894
    38  H    0.051563   0.072028
    39  H    0.054044   0.097557
    40  H    0.057525   0.123181
    41  H    0.139140   0.034954
    42  H   -0.003546   0.156319
    43  H   -0.033027   0.147169
 Sum of Mulliken charges =  -1.00000   1.00000

 Dipole moment (field-independent basis, Debye):
    X=             -3.4925    Y=             -4.7440    Z=              1.6089  Tot=              6.1067
 Quadrupole moment (field-independent basis, Debye-Ang):
   XX=           -220.4659   YY=           -186.3003   ZZ=           -153.8701
   XY=            -14.2996   XZ=              2.2037   YZ=              3.3856

 Summary of Natural Population Analysis:

                                       Natural Population
                Natural  -----------------------------------------------
    Atom  No    Charge         Core      Valence    Rydberg      Total
 -----------------------------------------------------------------------
      C    1   -0.28064      0.99965     2.27615    0.00485     3.28064
      C    2   -0.11308      0.99960     2.10371    0.00977     3.11308
      C    3   -0.19550      0.99961     2.18701    0.00888     3.19550
      C    4   -0.08127      0.99960     2.07139    0.01029     3.08127
      N    5   -0.24686      0.99966     2.73686    0.01034     3.74686
      C    6   -0.08427      0.99961     2.07353    0.01112     3.08427
      C    7   -0.19842      0.99961     2.18981    0.00900     3.19842
      C    8    0.23952      0.99949     1.74722    0.01377     2.76048
      N    9   -0.31070      0.99963     2.80262    0.00844     3.81070
      C   10    0.31095      0.99958     1.67223    0.01724     2.68905
      N   11   -0.29684      0.99963     2.78813    0.00907     3.79684
      C   12    0.20866      0.99950     1.77624    0.01559     2.79134
      C   13   -0.11026      0.99944     2.10258    0.00824     3.11026
      C   14   -0.14306      0.99948     2.13393    0.00966     3.14306
      C   15    0.08824      0.99954     1.90070    0.01153     2.91176
      N   16   -0.27796      0.99963     2.76859    0.00974     3.77796
      C   17   -0.30113      0.99963     2.29581    0.00569     3.30113
      N   18   -0.24984      0.99965     2.74049    0.00971     3.74984
      C   19   -0.17454      0.99965     2.16834    0.00655     3.17454
      C   20   -0.17301      0.99965     2.16684    0.00652     3.17301
      H   21    0.09888      0.00000     0.40011    0.00101     0.40112
      H   22    0.09669      0.00000     0.40228    0.00102     0.40331
      H   23    0.09853      0.00000     0.40045    0.00103     0.40147
      H   24    0.09039      0.00000     0.40742    0.00219     0.40961
      H   25    0.09771      0.00000     0.40100    0.00130     0.40229
      H   26    0.10121      0.00000     0.39760    0.00119     0.39879
      H   27    0.09160      0.00000     0.40711    0.00129     0.40840
      H   28    0.10573      0.00000     0.39268    0.00159     0.39427
      H   29    0.09046      0.00000     0.40843    0.00111     0.40954
      H   30    0.11159      0.00000     0.38731    0.00110     0.38841
      H   31    0.09834      0.00000     0.40063    0.00103     0.40166
      H   32    0.10296      0.00000     0.39553    0.00151     0.39704
      H   33    0.10548      0.00000     0.39354    0.00098     0.39452
      H   34    0.20360      0.00000     0.29284    0.00355     0.29640
      H   35    0.10948      0.00000     0.38929    0.00123     0.39052
      H   36    0.10553      0.00000     0.39295    0.00153     0.39447
      H   37    0.10769      0.00000     0.39012    0.00218     0.39231
      H   38    0.08896      0.00000     0.40986    0.00118     0.41104
      H   39    0.08534      0.00000     0.41283    0.00183     0.41466
      H   40    0.11356      0.00000     0.38492    0.00152     0.38644
      H   41    0.11092      0.00000     0.38777    0.00131     0.38908
      H   42    0.08585      0.00000     0.41239    0.00176     0.41415
      H   43    0.08948      0.00000     0.40938    0.00114     0.41052
 =======================================================================
   * Total *   -0.00000     19.99183    53.77862    0.22955    74.00000

 Normal termination of Gaussian 16 at Mon Dec 14 15:30:59 2020.
