 Gaussian 16, Revision A.03,

 -----------------------------------------------------------
 # opt freq B3LYP/6-31G(d) empiricaldispersion=gd3bj scf=xqc
 -----------------------------------------------------------

 -------------------------------
 CID_151463544_JID_1461_neutraal
 -------------------------------
 Symbolic Z-matrix:
 Charge =  0 Multiplicity = 1

 SCF Done:  E(RB3LYP) =  -514.017426573     A.U. after   15 cycles
 SCF Done:  E(RB3LYP) =  -514.019537340     A.U. after   13 cycles
 SCF Done:  E(RB3LYP) =  -514.021007029     A.U. after   13 cycles
 SCF Done:  E(RB3LYP) =  -514.021277773     A.U. after   13 cycles
 SCF Done:  E(RB3LYP) =  -514.021458807     A.U. after   12 cycles
 SCF Done:  E(RB3LYP) =  -514.021436473     A.U. after   12 cycles
 SCF Done:  E(RB3LYP) =  -514.021483726     A.U. after   11 cycles
 SCF Done:  E(RB3LYP) =  -514.021487695     A.U. after    9 cycles
 SCF Done:  E(RB3LYP) =  -514.021488292     A.U. after    8 cycles
 SCF Done:  E(RB3LYP) =  -514.021488566     A.U. after    7 cycles
 SCF Done:  E(RB3LYP) =  -514.021488821     A.U. after    8 cycles
 SCF Done:  E(RB3LYP) =  -514.021489048     A.U. after    8 cycles
 SCF Done:  E(RB3LYP) =  -514.021489323     A.U. after    8 cycles
 SCF Done:  E(RB3LYP) =  -514.021489611     A.U. after    8 cycles
 SCF Done:  E(RB3LYP) =  -514.021489705     A.U. after    8 cycles
 Optimization completed.
    -- Stationary point found.
 Normal termination of Gaussian 16 at Tue Dec  8 20:04:03 2020.

 --------------------------------------------------------------------
 #N Geom=AllCheck Guess=TCheck SCRF=Check GenChk RB3LYP/6-31G(d) Freq
 --------------------------------------------------------------------

 Structure from the checkpoint file:  "JID_1461.chk"
 -------------------------------
 CID_151463544_JID_1461_neutraal
 -------------------------------
 Charge =  0 Multiplicity = 1

 SCF Done:  E(RB3LYP) =  -514.021489705     A.U. after    1 cycles

  Exact polarizability: 104.219   5.654  84.614 -10.350  -7.594  89.277
 Approx polarizability: 141.718  17.108 127.433 -36.491 -21.473 161.833

                      1                      2                      3
                      A                      A                      A
 Frequencies --     52.6592                55.6688                71.8290
 Red. masses --      2.1056                 5.9539                 3.6364
 Frc consts  --      0.0034                 0.0109                 0.0111
 IR Inten    --      0.4527                 0.1806                 0.3080

                      4                      5                      6
                      A                      A                      A
 Frequencies --    159.8466               172.1207               203.5020
 Red. masses --      3.3458                 4.2359                 3.7578
 Frc consts  --      0.0504                 0.0739                 0.0917
 IR Inten    --      2.2839                 0.8852                 1.0538

                      7                      8                      9
                      A                      A                      A
 Frequencies --    243.5448               272.7858               316.0952
 Red. masses --      1.3021                 2.3646                 5.5520
 Frc consts  --      0.0455                 0.1037                 0.3268
 IR Inten    --      0.7260                 2.1522                 1.9635

                     10                     11                     12
                      A                      A                      A
 Frequencies --    329.0001               410.4017               478.2083
 Red. masses --      3.5768                 2.6882                 3.6354
 Frc consts  --      0.2281                 0.2668                 0.4898
 IR Inten    --      2.4190                 5.9688                 1.5403

                     13                     14                     15
                      A                      A                      A
 Frequencies --    508.1485               572.7111               605.4571
 Red. masses --      1.1338                 7.6393                 4.0295
 Frc consts  --      0.1725                 1.4763                 0.8703
 IR Inten    --    173.5049                15.5449                 4.9488

                     16                     17                     18
                      A                      A                      A
 Frequencies --    643.5902               701.5162               717.0902
 Red. masses --      2.6953                 3.2703                 2.1205
 Frc consts  --      0.6578                 0.9482                 0.6424
 IR Inten    --      2.2002                16.4276                 4.1508

                     19                     20                     21
                      A                      A                      A
 Frequencies --    782.3601               823.8268               866.3678
 Red. masses --      1.9534                 4.0295                 3.6957
 Frc consts  --      0.7044                 1.6113                 1.6344
 IR Inten    --      3.2928                 2.3043                 5.6736

                     22                     23                     24
                      A                      A                      A
 Frequencies --    888.8046               905.6930               954.7083
 Red. masses --      2.2567                 2.3698                 1.8955
 Frc consts  --      1.0504                 1.1453                 1.0179
 IR Inten    --      4.5739                 4.5495                 1.2597

                     25                     26                     27
                      A                      A                      A
 Frequencies --    980.3413              1006.9358              1015.4297
 Red. masses --      2.1313                 1.9774                 1.6747
 Frc consts  --      1.2068                 1.1812                 1.0174
 IR Inten    --      6.7516                 4.3225                 0.2458

                     28                     29                     30
                      A                      A                      A
 Frequencies --   1053.4069              1063.8166              1085.1473
 Red. masses --      2.0610                 1.9328                 2.1942
 Frc consts  --      1.3475                 1.2887                 1.5223
 IR Inten    --      3.7950                47.4714                 0.6281

                     31                     32                     33
                      A                      A                      A
 Frequencies --   1157.6159              1165.7939              1214.1025
 Red. masses --      2.0849                 1.9579                 1.5322
 Frc consts  --      1.6461                 1.5678                 1.3307
 IR Inten    --      8.7368                 3.9388                15.9109

                     34                     35                     36
                      A                      A                      A
 Frequencies --   1234.4278              1243.1233              1288.9974
 Red. masses --      1.4144                 1.3018                 1.3597
 Frc consts  --      1.2698                 1.1853                 1.3311
 IR Inten    --      9.0732                11.6624                28.7965

                     37                     38                     39
                      A                      A                      A
 Frequencies --   1299.0690              1308.0021              1331.3422
 Red. masses --      1.4684                 1.7891                 1.3129
 Frc consts  --      1.4601                 1.8034                 1.3711
 IR Inten    --     38.1769                52.1481                23.4487

                     40                     41                     42
                      A                      A                      A
 Frequencies --   1342.2541              1355.8843              1373.6012
 Red. masses --      1.3399                 1.4582                 1.3271
 Frc consts  --      1.4223                 1.5795                 1.4753
 IR Inten    --      6.9729                 4.3884                37.0817

                     43                     44                     45
                      A                      A                      A
 Frequencies --   1384.4393              1398.6702              1422.7035
 Red. masses --      1.6291                 1.3749                 1.4177
 Frc consts  --      1.8397                 1.5847                 1.6907
 IR Inten    --      7.8979                17.7577                 4.2303

                     46                     47                     48
                      A                      A                      A
 Frequencies --   1439.3930              1454.0779              1509.8400
 Red. masses --      1.2495                 1.4917                 1.0816
 Frc consts  --      1.5253                 1.8582                 1.4527
 IR Inten    --     20.9446                30.5591                 1.9930

                     49                     50                     51
                      A                      A                      A
 Frequencies --   1517.6929              1524.3501              1529.3999
 Red. masses --      1.0917                 1.0447                 1.0488
 Frc consts  --      1.4815                 1.4302                 1.4454
 IR Inten    --      2.9648                 6.7492                 0.7794

                     52                     53                     54
                      A                      A                      A
 Frequencies --   1542.0193              2258.2830              2990.5116
 Red. masses --      1.1019                13.7582                 1.0844
 Frc consts  --      1.5437                41.3398                 5.7138
 IR Inten    --      1.0599               480.7295                60.3140

                     55                     56                     57
                      A                      A                      A
 Frequencies --   3014.5546              3061.1119              3063.0206
 Red. masses --      1.0830                 1.0366                 1.0665
 Frc consts  --      5.7988                 5.7231                 5.8955
 IR Inten    --     31.8297                10.2599                35.0050

                     58                     59                     60
                      A                      A                      A
 Frequencies --   3074.5260              3076.8632              3084.5694
 Red. masses --      1.0609                 1.0858                 1.0628
 Frc consts  --      5.9088                 6.0565                 5.9576
 IR Inten    --     44.5909                26.9797                25.3712

                     61                     62                     63
                      A                      A                      A
 Frequencies --   3109.3231              3123.3682              3133.8633
 Red. masses --      1.1029                 1.1016                 1.1022
 Frc consts  --      6.2820                 6.3319                 6.3776
 IR Inten    --      5.2887                 8.9095                34.9829

                     64                     65                     66
                      A                      A                      A
 Frequencies --   3135.3874              3136.5751              3663.1648
 Red. masses --      1.1036                 1.1035                 1.0658
 Frc consts  --      6.3919                 6.3962                 8.4265
 IR Inten    --     25.1833                37.6828               140.3162

 - Thermochemistry -
 -------------------
 Temperature   298.150 Kelvin.  Pressure   1.00000 Atm.
 Atom     1 has atomic number  6 and mass  12.00000

 Molecular mass:   155.10586 amu.
 Principal axes and moments of inertia in atomic units:
                           1         2         3
     Eigenvalues --  1014.331032274.173342408.37596
           X            0.99944  -0.02840   0.01769
           Y            0.02838   0.99960   0.00162
           Z           -0.01772  -0.00112   0.99984
 This molecule is an asymmetric top.
 Rotational symmetry number  1.
 Warning -- assumption of classical behavior for rotation
           may cause significant error
 Rotational temperatures (Kelvin)      0.08539     0.03809     0.03596
 Rotational constants (GHZ):           1.77924     0.79358     0.74936
 Zero-point vibrational energy     543720.3 (Joules/Mol)
                                  129.95227 (Kcal/Mol)
 Warning -- explicit consideration of  15 degrees of freedom as
           vibrations may cause significant error
 Vibrational temperatures:     75.76    80.10   103.35   229.98   247.64
          (Kelvin)            292.79   350.41   392.48   454.79   473.36
                              590.48   688.04   731.11   824.00   871.12
                              925.98  1009.33  1031.73  1125.64  1185.30
                             1246.51  1278.79  1303.09  1373.61  1410.49
                             1448.76  1460.98  1515.62  1530.59  1561.28
                             1665.55  1677.32  1746.82  1776.07  1788.58
                             1854.58  1869.07  1881.92  1915.50  1931.20
                             1950.82  1976.31  1991.90  2012.37  2046.95
                             2070.97  2092.09  2172.32  2183.62  2193.20
                             2200.47  2218.62  3249.17  4302.68  4337.27
                             4404.26  4407.00  4423.56  4426.92  4438.01
                             4473.62  4493.83  4508.93  4511.12  4512.83
                             5270.48

 Zero-point correction=                           0.207092 (Hartree/Particle)
 Thermal correction to Energy=                    0.218113
 Thermal correction to Enthalpy=                  0.219057
 Thermal correction to Gibbs Free Energy=         0.169775
 Sum of electronic and zero-point Energies=           -513.814398
 Sum of electronic and thermal Energies=              -513.803377
 Sum of electronic and thermal Enthalpies=            -513.802432
 Sum of electronic and thermal Free Energies=         -513.851715

                     E (Thermal)             CV                S
                      KCal/Mol        Cal/Mol-Kelvin    Cal/Mol-Kelvin
 Total                  136.868             41.042            103.724
 Electronic               0.000              0.000              0.000
 Translational            0.889              2.981             41.026
 Rotational               0.889              2.981             30.097
 Vibrational            135.091             35.080             32.600
 Vibration     1          0.596              1.977              4.715
 Vibration     2          0.596              1.975              4.605
 Vibration     3          0.598              1.967              4.103
 Vibration     4          0.622              1.892              2.552
 Vibration     5          0.626              1.877              2.412
 Vibration     6          0.639              1.835              2.101
 Vibration     7          0.659              1.773              1.777
 Vibration     8          0.676              1.723              1.578
 Vibration     9          0.703              1.643              1.330
 Vibration    10          0.712              1.618              1.265
 Vibration    11          0.775              1.448              0.925
 Vibration    12          0.835              1.298              0.715
 Vibration    13          0.863              1.232              0.638
 Vibration    14          0.929              1.090              0.499
 Vibration    15          0.964              1.020              0.440

 Optimization completed.
    -- Stationary point found.
 Normal termination of Gaussian 16 at Tue Dec  8 20:08:59 2020.

 ----------------------------------------------------------------------
 # B3LYP/6-311++G(d,p) empiricaldispersion=gd3bj scf=xqc pop=npa geom=c
 heck
 ----------------------------------------------------------------------

 ---------------------------------------
 CID_151463544_JID_1461_Energie_neutraal
 ---------------------------------------
 Structure from the checkpoint file:  "JID_1461.chk"
 Charge =  0 Multiplicity = 1

 SCF Done:  E(RB3LYP) =  -514.173441535     A.U. after   15 cycles
 Normal termination of Gaussian 16 at Tue Dec  8 20:10:51 2020.

 ----------------------------------------------------------------------
 # B3LYP/6-311++G(d,p) empiricaldispersion=gd3bj scf=xqc pop=npa geom=c
 heck
 ----------------------------------------------------------------------

 -------------------------------------
 CID_151463544_JID_1461_Energie_kation
 -------------------------------------
 Structure from the checkpoint file:  "JID_1461.chk"
 Charge =  1 Multiplicity = 2

 SCF Done:  E(UB3LYP) =  -513.835966436     A.U. after   25 cycles
 Normal termination of Gaussian 16 at Tue Dec  8 20:15:26 2020.
 Gaussian 16:  ES64L-G16RevA.03 25-Dec-2016

 ----------------------------------------------------------------------
 # B3LYP/6-311++G(d,p) empiricaldispersion=gd3bj scf=xqc pop=npa geom=c
 heck
 ----------------------------------------------------------------------

 ------------------------------------
 CID_151463544_JID_1461_Energie_anion
 ------------------------------------
 Structure from the checkpoint file:  "JID_1461.chk"
 Charge = -1 Multiplicity = 2

                         Standard orientation:
 ---------------------------------------------------------------------
 Center     Atomic      Atomic             Coordinates (Angstroms)
 Number     Number       Type             X           Y           Z
 ---------------------------------------------------------------------
      1          6           0       -1.838160    1.826889   -0.228432
      2          6           0       -0.944943    0.754632   -0.851872
      3          6           0        0.493876    0.779273   -0.311277
      4          6           0        0.687043    0.531506    1.198467
      5          6           0        2.192698    0.169258    1.349058
      6          6           0        2.734904   -0.015402   -0.094154
      7          6           0        1.486845   -0.213006   -0.955062
      8          8           0        1.091870   -1.570259   -0.796623
      9          7           0       -1.556111   -0.612337   -0.756673
     10          7           0       -2.165373   -0.881496    0.283764
     11          7           0       -2.767181   -1.240547    1.185350
     12          1           0       -1.945445    1.680745    0.851463
     13          1           0       -2.835200    1.814985   -0.679910
     14          1           0       -1.398062    2.815950   -0.389743
     15          1           0       -0.897381    0.918436   -1.933550
     16          1           0        0.874027    1.784483   -0.549690
     17          1           0        0.068727   -0.310594    1.522638
     18          1           0        0.400491    1.398608    1.800967
     19          1           0        2.306291   -0.750738    1.927805
     20          1           0        2.742307    0.953031    1.879663
     21          1           0        3.411776   -0.868095   -0.192725
     22          1           0        3.271279    0.880631   -0.428300
     23          1           0        1.660917    0.020687   -2.018202
     24          1           0        0.152397   -1.634298   -1.044890
 ---------------------------------------------------------------------

 SCF Done:  E(UB3LYP) =  -514.164316961     A.U. after   31 cycles

 The electronic state is 2-A.
 Alpha  occ. eigenvalues --  -18.99329 -14.33679 -14.23945 -14.22855 -10.10232
 Alpha  occ. eigenvalues --  -10.10079 -10.06058 -10.05699 -10.05512 -10.05405
 Alpha  occ. eigenvalues --  -10.05246  -1.00550  -0.90097  -0.84765  -0.72379
 Alpha  occ. eigenvalues --   -0.67163  -0.59620  -0.59059  -0.54132  -0.46742
 Alpha  occ. eigenvalues --   -0.45571  -0.40743  -0.39932  -0.38763  -0.38543
 Alpha  occ. eigenvalues --   -0.35128  -0.34604  -0.32295  -0.31303  -0.30493
 Alpha  occ. eigenvalues --   -0.29401  -0.27203  -0.26953  -0.25207  -0.24455
 Alpha  occ. eigenvalues --   -0.23090  -0.22436  -0.20966  -0.20389  -0.17262
 Alpha  occ. eigenvalues --   -0.15506  -0.12765   0.04985
 Alpha virt. eigenvalues --    0.06993   0.08274   0.08922   0.09792   0.10518
 Alpha virt. eigenvalues --    0.10896   0.11324   0.12240   0.12904   0.13278
 Alpha virt. eigenvalues --    0.13470   0.14195   0.14967   0.15400   0.17484

  Beta  occ. eigenvalues --  -18.99309 -14.33423 -14.23620 -14.22904 -10.10154
  Beta  occ. eigenvalues --  -10.10063 -10.06040 -10.05690 -10.05480 -10.05398
  Beta  occ. eigenvalues --  -10.05235  -1.00059  -0.90047  -0.84525  -0.72326
  Beta  occ. eigenvalues --   -0.67055  -0.59580  -0.59009  -0.53940  -0.46634
  Beta  occ. eigenvalues --   -0.45534  -0.40651  -0.39560  -0.38626  -0.37967
  Beta  occ. eigenvalues --   -0.34838  -0.34504  -0.31799  -0.31085  -0.30229
  Beta  occ. eigenvalues --   -0.29241  -0.27172  -0.26902  -0.25164  -0.24404
  Beta  occ. eigenvalues --   -0.23068  -0.22394  -0.20921  -0.20213  -0.16802
  Beta  occ. eigenvalues --   -0.15414  -0.12674
  Beta virt. eigenvalues --    0.07641   0.08793   0.09019   0.09764   0.10238
  Beta virt. eigenvalues --    0.10904   0.11515   0.11854   0.12541   0.13132
  Beta virt. eigenvalues --    0.13570   0.13798   0.14532   0.15152   0.15418

 Mulliken charges and spin densities:
               1          2
     1  C    0.462698  -1.202761
     2  C   -0.250156   0.242854
     3  C   -0.241575   0.888203
     4  C    0.098439  -0.818413
     5  C   -0.136994  -0.130916
     6  C    0.143001  -0.605318
     7  C    1.002428  -1.462983
     8  O   -0.195838  -0.034628
     9  N    0.295263  -0.352521
    10  N   -0.134677   0.381568
    11  N   -0.471129   0.275251
    12  H    0.192974  -0.036228
    13  H   -0.251292   0.413768
    14  H   -0.322109   0.461071
    15  H   -0.887790   1.136002
    16  H   -0.419296   0.641547
    17  H    0.175095  -0.005492
    18  H   -0.001362   0.125169
    19  H    0.113352   0.007616
    20  H   -0.111783   0.249822
    21  H    0.177891  -0.008929
    22  H   -0.257966   0.387925
    23  H   -0.065255   0.252143
    24  H    0.086082   0.195251
 Sum of Mulliken charges =  -1.00000   1.00000

 Dipole moment (field-independent basis, Debye):
    X=              0.9483    Y=             -1.9819    Z=              3.4842  Tot=              4.1191
 Quadrupole moment (field-independent basis, Debye-Ang):
   XX=           -108.3791   YY=           -105.9044   ZZ=           -100.0518
   XY=             -5.7513   XZ=              1.4056   YZ=              7.0176

 Summary of Natural Population Analysis:

                                       Natural Population
                Natural  -----------------------------------------------
    Atom  No    Charge         Core      Valence    Rydberg      Total
 -----------------------------------------------------------------------
      C    1   -0.29264      0.99964     2.28679    0.00620     3.29264
      C    2   -0.00838      0.99953     1.99382    0.01504     3.00838
      C    3   -0.12588      0.99955     2.11281    0.01352     3.12588
      C    4   -0.19540      0.99962     2.18727    0.00851     3.19540
      C    5   -0.19106      0.99965     2.18357    0.00784     3.19106
      C    6   -0.19661      0.99962     2.18807    0.00892     3.19661
      C    7    0.06807      0.99952     1.91745    0.01495     2.93193
      O    8   -0.38775      0.99989     3.38152    0.00634     4.38775
      N    9   -0.22035      0.99970     2.70462    0.01603     3.72035
      N   10    0.13680      0.99969     2.34684    0.01667     3.36320
      N   11   -0.02197      0.99982     2.50976    0.01240     3.52197
      H   12    0.09871      0.00000     0.40034    0.00094     0.40129
      H   13    0.10321      0.00000     0.39576    0.00102     0.39679
      H   14    0.10668      0.00000     0.39213    0.00119     0.39332
      H   15    0.10420      0.00000     0.39132    0.00448     0.39580
      H   16    0.10599      0.00000     0.39108    0.00293     0.39401
      H   17    0.10146      0.00000     0.39717    0.00137     0.39854
      H   18    0.09884      0.00000     0.40027    0.00090     0.40116
      H   19    0.09667      0.00000     0.40241    0.00092     0.40333
      H   20    0.09522      0.00000     0.40376    0.00102     0.40478
      H   21    0.10158      0.00000     0.39744    0.00097     0.39842
      H   22    0.09867      0.00000     0.39995    0.00137     0.40133
      H   23    0.08197      0.00000     0.41642    0.00161     0.41803
      H   24    0.24195      0.00000     0.25458    0.00347     0.25805
 =======================================================================
   * Total *   -0.00000     10.99622    30.85517    0.14861    42.00000

 Normal termination of Gaussian 16 at Tue Dec  8 20:20:42 2020.
