 Gaussian 16, Revision A.03,

 -----------------------------------------------------------
 # opt freq B3LYP/6-31G(d) empiricaldispersion=gd3bj scf=xqc
 -----------------------------------------------------------

 -----------------------------
 CID_18765892_JID_218_neutraal
 -----------------------------
 Symbolic Z-matrix:
 Charge =  0 Multiplicity = 1

 SCF Done:  E(RB3LYP) =  -442.655591219     A.U. after   14 cycles
 SCF Done:  E(RB3LYP) =  -442.658329767     A.U. after   13 cycles
 SCF Done:  E(RB3LYP) =  -442.654007784     A.U. after   14 cycles
 SCF Done:  E(RB3LYP) =  -442.660061865     A.U. after   12 cycles
 SCF Done:  E(RB3LYP) =  -442.660245439     A.U. after   12 cycles
 SCF Done:  E(RB3LYP) =  -442.660319347     A.U. after   13 cycles
 SCF Done:  E(RB3LYP) =  -442.660345717     A.U. after   12 cycles
 SCF Done:  E(RB3LYP) =  -442.660341648     A.U. after   12 cycles
 SCF Done:  E(RB3LYP) =  -442.660405114     A.U. after   11 cycles
 SCF Done:  E(RB3LYP) =  -442.660698066     A.U. after   15 cycles
 SCF Done:  E(RB3LYP) =  -442.661978774     A.U. after   13 cycles
 SCF Done:  E(RB3LYP) =  -442.662204530     A.U. after   13 cycles
 SCF Done:  E(RB3LYP) =  -442.662212143     A.U. after   10 cycles
 SCF Done:  E(RB3LYP) =  -442.662213495     A.U. after   10 cycles
 SCF Done:  E(RB3LYP) =  -442.662213822     A.U. after    8 cycles
 SCF Done:  E(RB3LYP) =  -442.662213894     A.U. after    7 cycles
 Optimization completed.
    -- Stationary point found.
 Normal termination of Gaussian 16 at Tue Dec  8 10:25:28 2020.

 --------------------------------------------------------------------
 #N Geom=AllCheck Guess=TCheck SCRF=Check GenChk RB3LYP/6-31G(d) Freq
 --------------------------------------------------------------------

 Structure from the checkpoint file:  "JID_218.chk"
 -----------------------------
 CID_18765892_JID_218_neutraal
 -----------------------------
 Charge =  0 Multiplicity = 1

 SCF Done:  E(RB3LYP) =  -442.662213894     A.U. after    1 cycles

  Exact polarizability:  96.704   3.443  85.124   0.324   1.026  74.216
 Approx polarizability: 130.436  10.293 121.824   3.376   3.575 114.442

                      1                      2                      3
                      A                      A                      A
 Frequencies --     39.0883                79.8920               134.4221
 Red. masses --      4.5691                 2.3974                 2.2620
 Frc consts  --      0.0041                 0.0090                 0.0241
 IR Inten    --      3.0115                 1.5977                 2.2672

                      4                      5                      6
                      A                      A                      A
 Frequencies --    227.3132               317.4045               367.2248
 Red. masses --      3.3648                 2.1603                 2.8055
 Frc consts  --      0.1024                 0.1282                 0.2229
 IR Inten    --      5.8980                 1.9227                 0.2216

                      7                      8                      9
                      A                      A                      A
 Frequencies --    396.0082               452.6312               478.0269
 Red. masses --      2.7555                 2.1914                 4.0286
 Frc consts  --      0.2546                 0.2645                 0.5424
 IR Inten    --      1.2499                 1.7453                 4.7017

                     10                     11                     12
                      A                      A                      A
 Frequencies --    541.5812               666.9071               716.3170
 Red. masses --      2.2164                 3.7520                 4.3383
 Frc consts  --      0.3830                 0.9832                 1.3115
 IR Inten    --      0.9890                19.9094                 8.6022

                     13                     14                     15
                      A                      A                      A
 Frequencies --    753.4235               758.5649               804.1083
 Red. masses --      2.7267                 2.1253                 2.4027
 Frc consts  --      0.9120                 0.7205                 0.9153
 IR Inten    --      1.5754                 8.8002                 0.8833

                     16                     17                     18
                      A                      A                      A
 Frequencies --    825.7351               871.4239               911.5200
 Red. masses --      1.5793                 2.1404                 2.4413
 Frc consts  --      0.6345                 0.9576                 1.1951
 IR Inten    --      1.8351                 7.1208                 2.2290

                     19                     20                     21
                      A                      A                      A
 Frequencies --    925.7871               931.4934               962.4834
 Red. masses --      2.6561                 1.7169                 2.2492
 Frc consts  --      1.3413                 0.8777                 1.2276
 IR Inten    --      0.1620                 1.4478                20.0034

                     22                     23                     24
                      A                      A                      A
 Frequencies --    995.0324              1024.6445              1030.1219
 Red. masses --      2.1833                 2.5518                 2.0150
 Frc consts  --      1.2736                 1.5785                 1.2598
 IR Inten    --      3.5313                 4.7238                 4.2282

                     25                     26                     27
                      A                      A                      A
 Frequencies --   1072.3393              1080.9705              1091.5236
 Red. masses --      2.8190                 1.8818                 2.0423
 Frc consts  --      1.9099                 1.2956                 1.4336
 IR Inten    --     15.0956                 4.6597                18.2591

                     28                     29                     30
                      A                      A                      A
 Frequencies --   1133.9170              1148.0320              1199.3682
 Red. masses --      2.0363                 1.9424                 1.2607
 Frc consts  --      1.5426                 1.5083                 1.0685
 IR Inten    --      9.4451                 2.7997                 3.7120

                     31                     32                     33
                      A                      A                      A
 Frequencies --   1215.3723              1232.7608              1268.6534
 Red. masses --      1.2687                 1.3256                 1.4208
 Frc consts  --      1.1041                 1.1869                 1.3473
 IR Inten    --      3.8464                 0.2486                 2.3689

                     34                     35                     36
                      A                      A                      A
 Frequencies --   1282.8451              1318.1004              1322.6904
 Red. masses --      1.4120                 1.2918                 1.5464
 Frc consts  --      1.3691                 1.3223                 1.5940
 IR Inten    --      0.6674                 2.4120                 3.3940

                     37                     38                     39
                      A                      A                      A
 Frequencies --   1330.4843              1336.8763              1352.1914
 Red. masses --      1.3086                 1.4171                 1.3267
 Frc consts  --      1.3649                 1.4922                 1.4292
 IR Inten    --      0.8435                 5.8712                 3.9819

                     40                     41                     42
                      A                      A                      A
 Frequencies --   1372.2694              1379.9063              1388.9275
 Red. masses --      1.3394                 1.3822                 1.4003
 Frc consts  --      1.4860                 1.5507                 1.5916
 IR Inten    --      6.0385                 1.9280                 8.5881

                     43                     44                     45
                      A                      A                      A
 Frequencies --   1402.4281              1419.2714              1517.3502
 Red. masses --      1.4273                 1.2361                 1.0797
 Frc consts  --      1.6540                 1.4670                 1.4646
 IR Inten    --      0.9755                 6.9843                 0.0442

                     46                     47                     48
                      A                      A                      A
 Frequencies --   1524.2862              1533.3037              1539.5462
 Red. masses --      1.0857                 1.0855                 1.0826
 Frc consts  --      1.4862                 1.5036                 1.5118
 IR Inten    --      2.9206                 2.9848                 8.6597

                     49                     50                     51
                      A                      A                      A
 Frequencies --   1556.6153              1829.0386              2934.6407
 Red. masses --      1.0913                10.3893                 1.0857
 Frc consts  --      1.5579                20.4778                 5.5090
 IR Inten    --      1.1870               159.4686               110.0140

                     52                     53                     54
                      A                      A                      A
 Frequencies --   3024.6351              3046.8042              3057.8024
 Red. masses --      1.0828                 1.0626                 1.0658
 Frc consts  --      5.8365                 5.8120                 5.8714
 IR Inten    --     20.7474                32.8060                19.7605

                     55                     56                     57
                      A                      A                      A
 Frequencies --   3061.7940              3067.5376              3075.2101
 Red. masses --      1.0666                 1.0675                 1.0750
 Frc consts  --      5.8913                 5.9181                 5.9898
 IR Inten    --     37.7300                48.7964                 3.4198

                     58                     59                     60
                      A                      A                      A
 Frequencies --   3081.8721              3092.7136              3103.3801
 Red. masses --      1.0828                 1.0887                 1.1019
 Frc consts  --      6.0596                 6.1356                 6.2528
 IR Inten    --     60.1628                53.1998                 3.0411

                     61                     62                     63
                      A                      A                      A
 Frequencies --   3112.2577              3122.8185              3130.4289
 Red. masses --      1.1041                 1.1039                 1.0995
 Frc consts  --      6.3009                 6.3428                 6.3481
 IR Inten    --     15.3509                63.9306                24.2370

 - Thermochemistry -
 -------------------
 Temperature   298.150 Kelvin.  Pressure   1.00000 Atm.
 Atom     1 has atomic number  6 and mass  12.00000

 Molecular mass:   139.09971 amu.
 Principal axes and moments of inertia in atomic units:
                           1         2         3
     Eigenvalues --   707.739831658.284361956.10458
           X            0.99999   0.00267  -0.00250
           Y           -0.00265   0.99998   0.00576
           Z            0.00252  -0.00576   0.99998
 This molecule is an asymmetric top.
 Rotational symmetry number  1.
 Warning -- assumption of classical behavior for rotation
           may cause significant error
 Rotational temperatures (Kelvin)      0.12238     0.05223     0.04428
 Rotational constants (GHZ):           2.55001     1.08832     0.92262
 Zero-point vibrational energy     538152.8 (Joules/Mol)
                                  128.62160 (Kcal/Mol)
 Warning -- explicit consideration of  10 degrees of freedom as
           vibrations may cause significant error
 Vibrational temperatures:     56.24   114.95   193.40   327.05   456.67
          (Kelvin)            528.35   569.77   651.24   687.77   779.21
                              959.53  1030.62  1084.01  1091.41  1156.93
                             1188.05  1253.78  1311.47  1332.00  1340.21
                             1384.80  1431.63  1474.23  1482.12  1542.86
                             1555.28  1570.46  1631.45  1651.76  1725.62
                             1748.65  1773.67  1825.31  1845.73  1896.45
                             1903.06  1914.27  1923.47  1945.50  1974.39
                             1985.38  1998.36  2017.78  2042.02  2183.13
                             2193.11  2206.08  2215.06  2239.62  2631.58
                             4222.29  4351.78  4383.67  4399.50  4405.24
                             4413.50  4424.54  4434.13  4449.73  4465.07
                             4477.84  4493.04  4503.99

 Zero-point correction=                           0.204972 (Hartree/Particle)
 Thermal correction to Energy=                    0.213604
 Thermal correction to Enthalpy=                  0.214548
 Thermal correction to Gibbs Free Energy=         0.170580
 Sum of electronic and zero-point Energies=           -442.457242
 Sum of electronic and thermal Energies=              -442.448610
 Sum of electronic and thermal Enthalpies=            -442.447666
 Sum of electronic and thermal Free Energies=         -442.491634

                     E (Thermal)             CV                S
                      KCal/Mol        Cal/Mol-Kelvin    Cal/Mol-Kelvin
 Total                  134.039             33.794             92.539
 Electronic               0.000              0.000              0.000
 Translational            0.889              2.981             40.702
 Rotational               0.889              2.981             29.219
 Vibrational            132.261             27.833             22.618
 Vibration     1          0.594              1.981              5.305
 Vibration     2          0.600              1.963              3.894
 Vibration     3          0.613              1.919              2.882
 Vibration     4          0.651              1.799              1.900
 Vibration     5          0.704              1.640              1.323
 Vibration     6          0.740              1.540              1.091
 Vibration     7          0.763              1.479              0.977
 Vibration     8          0.811              1.355              0.788
 Vibration     9          0.835              1.299              0.715
 Vibration    10          0.897              1.158              0.562

                           ! Non-Optimized Parameters !
 Normal termination of Gaussian 16 at Tue Dec  8 10:30:04 2020.

 ----------------------------------------------------------------------
 # B3LYP/6-311++G(d,p) empiricaldispersion=gd3bj scf=xqc pop=npa geom=c
 heck
 ----------------------------------------------------------------------

 -------------------------------------
 CID_18765892_JID_218_Energie_neutraal
 -------------------------------------
 Structure from the checkpoint file:  "JID_218.chk"
 Charge =  0 Multiplicity = 1

 SCF Done:  E(RB3LYP) =  -442.785139144     A.U. after   13 cycles
 Normal termination of Gaussian 16 at Tue Dec  8 10:31:53 2020.

 ----------------------------------------------------------------------
 # B3LYP/6-311++G(d,p) empiricaldispersion=gd3bj scf=xqc pop=npa geom=c
 heck
 ----------------------------------------------------------------------

 -----------------------------------
 CID_18765892_JID_218_Energie_kation
 -----------------------------------
 Structure from the checkpoint file:  "JID_218.chk"
 Charge =  1 Multiplicity = 2

 SCF Done:  E(UB3LYP) =  -442.480062084     A.U. after   20 cycles
 Normal termination of Gaussian 16 at Tue Dec  8 10:38:06 2020.
 Gaussian 16:  ES64L-G16RevA.03 25-Dec-2016

 ----------------------------------------------------------------------
 # B3LYP/6-311++G(d,p) empiricaldispersion=gd3bj scf=xqc pop=npa geom=c
 heck
 ----------------------------------------------------------------------

 ----------------------------------
 CID_18765892_JID_218_Energie_anion
 ----------------------------------
 Structure from the checkpoint file:  "JID_218.chk"
 Charge = -1 Multiplicity = 2

                         Standard orientation:
 ---------------------------------------------------------------------
 Center     Atomic      Atomic             Coordinates (Angstroms)
 Number     Number       Type             X           Y           Z
 ---------------------------------------------------------------------
      1          6           0       -0.777204    1.713966   -0.284922
      2          6           0        0.703283    1.301700   -0.408313
      3          6           0        0.896553   -0.221059   -0.542743
      4          7           0       -0.073708   -1.042921    0.217871
      5          6           0       -1.264613   -1.435769   -0.565708
      6          6           0       -2.337177   -0.321579   -0.352302
      7          6           0       -1.612582    0.702069    0.549982
      8          6           0       -0.653690   -0.237641    1.309847
      9          6           0        2.282260   -0.666609   -0.081061
     10          8           0        3.173702    0.075920    0.265273
     11          1           0       -1.225399    1.817597   -1.280592
     12          1           0       -0.822048    2.708341    0.173307
     13          1           0        1.178465    1.809300   -1.253736
     14          1           0        1.255984    1.633189    0.475830
     15          1           0        0.823536   -0.524072   -1.597309
     16          1           0       -1.628160   -2.397951   -0.188021
     17          1           0       -0.991977   -1.579565   -1.614580
     18          1           0       -3.219060   -0.728343    0.154872
     19          1           0       -2.676651    0.123078   -1.292850
     20          1           0       -2.314710    1.227214    1.205192
     21          1           0        0.126536    0.265675    1.886231
     22          1           0       -1.200305   -0.900520    1.991165
     23          1           0        2.399150   -1.771325   -0.055465
 ---------------------------------------------------------------------

 SCF Done:  E(UB3LYP) =  -442.772296022     A.U. after   32 cycles

 The electronic state is 2-A.
 Alpha  occ. eigenvalues --  -18.99899 -14.19442 -10.12735 -10.08955 -10.07663
 Alpha  occ. eigenvalues --  -10.07629 -10.05811 -10.05221 -10.05124 -10.04790
 Alpha  occ. eigenvalues --   -0.92988  -0.82867  -0.67703  -0.67111  -0.60706
 Alpha  occ. eigenvalues --   -0.56370  -0.52184  -0.47523  -0.45111  -0.41471
 Alpha  occ. eigenvalues --   -0.38852  -0.37892  -0.36563  -0.33276  -0.31980
 Alpha  occ. eigenvalues --   -0.31509  -0.29660  -0.27896  -0.27003  -0.25893
 Alpha  occ. eigenvalues --   -0.24772  -0.23472  -0.22995  -0.21550  -0.20437
 Alpha  occ. eigenvalues --   -0.19802  -0.14327  -0.10964   0.04909
 Alpha virt. eigenvalues --    0.07394   0.08086   0.08344   0.09211   0.10471
 Alpha virt. eigenvalues --    0.10663   0.11152   0.11222   0.11641   0.13495
 Alpha virt. eigenvalues --    0.14110   0.14671   0.15079   0.16173   0.17021

  Beta  occ. eigenvalues --  -18.99743 -14.19429 -10.12587 -10.08964 -10.07635
  Beta  occ. eigenvalues --  -10.07600 -10.05799 -10.05207 -10.05097 -10.04761
  Beta  occ. eigenvalues --   -0.92689  -0.82829  -0.67638  -0.67058  -0.60634
  Beta  occ. eigenvalues --   -0.56225  -0.52111  -0.47323  -0.44991  -0.41356
  Beta  occ. eigenvalues --   -0.38747  -0.37810  -0.36452  -0.33193  -0.31860
  Beta  occ. eigenvalues --   -0.31436  -0.29385  -0.27823  -0.26905  -0.25560
  Beta  occ. eigenvalues --   -0.24497  -0.23413  -0.22911  -0.21494  -0.20389
  Beta  occ. eigenvalues --   -0.19751  -0.14208  -0.10929
  Beta virt. eigenvalues --    0.07614   0.08854   0.08987   0.09207   0.09732
  Beta virt. eigenvalues --    0.11099   0.11206   0.11423   0.11769   0.12003
  Beta virt. eigenvalues --    0.14035   0.14528   0.14997   0.15375   0.16128

 Mulliken charges and spin densities:
               1          2
     1  C    2.034187  -2.667289
     2  C   -0.698114   0.379960
     3  C   -0.147823  -0.330375
     4  N    0.190592   0.030244
     5  C   -0.445318   0.313851
     6  C    2.296806  -2.935640
     7  C   -2.934257   3.620415
     8  C    1.498498  -2.104416
     9  C    0.142544  -0.066293
    10  O   -0.270944   0.044164
    11  H   -0.382837   0.530305
    12  H   -0.163935   0.311157
    13  H    0.036091   0.115775
    14  H    0.055642   0.143549
    15  H   -0.222175   0.384532
    16  H   -0.201377   0.364254
    17  H   -0.172106   0.297042
    18  H   -0.123333   0.271041
    19  H   -0.457822   0.595180
    20  H   -1.023730   1.260192
    21  H    0.142267   0.014725
    22  H   -0.203031   0.398123
    23  H    0.050177   0.029504
 Sum of Mulliken charges =  -1.00000   1.00000

 Dipole moment (field-independent basis, Debye):
    X=              3.1591    Y=             -1.6044    Z=              0.1105  Tot=              3.5449
 Quadrupole moment (field-independent basis, Debye-Ang):
   XX=           -117.9598   YY=            -93.8036   ZZ=            -93.9801
   XY=              0.8857   XZ=             -0.8516   YZ=              2.1007

 Summary of Natural Population Analysis:

                                       Natural Population
                Natural  -----------------------------------------------
    Atom  No    Charge         Core      Valence    Rydberg      Total
 -----------------------------------------------------------------------
      C    1   -0.18784      0.99962     2.17876    0.00946     3.18784
      C    2   -0.20526      0.99961     2.19515    0.01050     3.20526
      C    3   -0.05490      0.99956     2.04215    0.01319     3.05490
      N    4   -0.27925      0.99973     2.76555    0.01398     3.77925
      C    5   -0.08548      0.99962     2.07421    0.01164     3.08548
      C    6   -0.20057      0.99963     2.19228    0.00867     3.20057
      C    7   -0.12076      0.99960     2.10956    0.01159     3.12076
      C    8   -0.08952      0.99960     2.07773    0.01218     3.08952
      C    9    0.24869      0.99971     1.73106    0.02054     2.75131
      O   10   -0.27187      0.99988     3.26567    0.00631     4.27187
      H   11    0.09775      0.00000     0.40025    0.00200     0.40225
      H   12    0.09977      0.00000     0.39904    0.00119     0.40023
      H   13    0.10619      0.00000     0.39294    0.00087     0.39381
      H   14    0.10310      0.00000     0.39544    0.00146     0.39690
      H   15    0.10618      0.00000     0.39183    0.00199     0.39382
      H   16    0.09267      0.00000     0.40577    0.00155     0.40733
      H   17    0.09564      0.00000     0.40259    0.00176     0.40436
      H   18    0.09963      0.00000     0.39809    0.00228     0.40037
      H   19    0.10153      0.00000     0.39614    0.00234     0.39847
      H   20    0.10338      0.00000     0.39422    0.00240     0.39662
      H   21    0.09954      0.00000     0.39932    0.00114     0.40046
      H   22    0.09766      0.00000     0.40105    0.00129     0.40234
      H   23    0.04372      0.00000     0.45355    0.00274     0.45628
 =======================================================================
   * Total *   -0.00000      9.99657    27.86235    0.14108    38.00000

 Normal termination of Gaussian 16 at Tue Dec  8 10:47:19 2020.
