 Gaussian 16, Revision A.03,

 -----------------------------------------------------------
 # opt freq B3LYP/6-31G(d) empiricaldispersion=gd3bj scf=xqc
 -----------------------------------------------------------

 -------------------------------
 CID_101926204_JID_2411_neutraal
 -------------------------------
 Symbolic Z-matrix:
 Charge =  0 Multiplicity = 1

 SCF Done:  E(RB3LYP) =  -572.025984740     A.U. after   17 cycles
 SCF Done:  E(RB3LYP) =  -572.014383402     A.U. after   15 cycles
 SCF Done:  E(RB3LYP) =  -572.036796405     A.U. after   13 cycles
 SCF Done:  E(RB3LYP) =  -572.033470971     A.U. after   14 cycles
 SCF Done:  E(RB3LYP) =  -572.037846050     A.U. after   13 cycles
 SCF Done:  E(RB3LYP) =  -572.036631879     A.U. after   13 cycles
 SCF Done:  E(RB3LYP) =  -572.038342298     A.U. after   12 cycles
 SCF Done:  E(RB3LYP) =  -572.038404544     A.U. after   11 cycles
 SCF Done:  E(RB3LYP) =  -572.038411093     A.U. after   11 cycles
 SCF Done:  E(RB3LYP) =  -572.038418003     A.U. after   10 cycles
 SCF Done:  E(RB3LYP) =  -572.038660003     A.U. after   10 cycles
 SCF Done:  E(RB3LYP) =  -572.038664183     A.U. after   10 cycles
 SCF Done:  E(RB3LYP) =  -572.038664604     A.U. after    9 cycles
 SCF Done:  E(RB3LYP) =  -572.038664798     A.U. after    8 cycles
 SCF Done:  E(RB3LYP) =  -572.038664879     A.U. after    8 cycles
 Optimization completed.
    -- Stationary point found.
 Normal termination of Gaussian 16 at Wed Dec  9 17:31:16 2020.

 --------------------------------------------------------------------
 #N Geom=AllCheck Guess=TCheck SCRF=Check GenChk RB3LYP/6-31G(d) Freq
 --------------------------------------------------------------------

 Structure from the checkpoint file:  "JID_2411.chk"
 -------------------------------
 CID_101926204_JID_2411_neutraal
 -------------------------------
 Charge =  0 Multiplicity = 1

 SCF Done:  E(RB3LYP) =  -572.038664879     A.U. after    1 cycles

  Exact polarizability: 112.349  -5.072  97.050   9.459   4.100  77.513
 Approx polarizability: 156.694  -5.471 150.655  23.582   9.138 129.301

                      1                      2                      3
                      A                      A                      A
 Frequencies --     44.6132                73.3856                86.6396
 Red. masses --      3.5724                 3.2996                 1.2010
 Frc consts  --      0.0042                 0.0105                 0.0053
 IR Inten    --     11.3197                 3.2436                 1.4772

                      4                      5                      6
                      A                      A                      A
 Frequencies --    114.0542               125.4164               195.2672
 Red. masses --      7.9577                 3.1170                 1.1606
 Frc consts  --      0.0610                 0.0289                 0.0261
 IR Inten    --      2.1025                 5.8982                 1.4937

                      7                      8                      9
                      A                      A                      A
 Frequencies --    204.8801               244.2450               277.3879
 Red. masses --      4.5186                 4.1398                 3.3257
 Frc consts  --      0.1118                 0.1455                 0.1508
 IR Inten    --     25.4293                 6.3584                 8.3505

                     10                     11                     12
                      A                      A                      A
 Frequencies --    291.6609               346.0153               427.4648
 Red. masses --      4.5694                 2.3342                 2.2461
 Frc consts  --      0.2290                 0.1647                 0.2418
 IR Inten    --      4.9719                 3.0617                 0.9933

                     13                     14                     15
                      A                      A                      A
 Frequencies --    461.9054               515.1877               602.3444
 Red. masses --      4.7400                 3.9936                 4.6936
 Frc consts  --      0.5958                 0.6245                 1.0033
 IR Inten    --      3.5173                 5.7852                 0.7021

                     16                     17                     18
                      A                      A                      A
 Frequencies --    622.1993               658.9634               670.5574
 Red. masses --      3.9526                 4.4545                 4.3615
 Frc consts  --      0.9016                 1.1397                 1.1555
 IR Inten    --     15.7151                32.5471                17.2765

                     19                     20                     21
                      A                      A                      A
 Frequencies --    720.8904               725.2028               815.9528
 Red. masses --      1.4509                 2.8147                 1.4908
 Frc consts  --      0.4442                 0.8722                 0.5848
 IR Inten    --     19.7681                16.3638                 0.4869

                     22                     23                     24
                      A                      A                      A
 Frequencies --    822.6634               837.1294               886.7049
 Red. masses --      4.0637                 2.4753                 2.9604
 Frc consts  --      1.6204                 1.0220                 1.3714
 IR Inten    --     14.0332                23.3816                23.1561

                     25                     26                     27
                      A                      A                      A
 Frequencies --    939.5765               946.0461              1031.9484
 Red. masses --      1.3140                 1.5378                 2.2480
 Frc consts  --      0.6835                 0.8109                 1.4105
 IR Inten    --     16.5535                11.8984                 0.5558

                     28                     29                     30
                      A                      A                      A
 Frequencies --   1044.2167              1068.2822              1103.0481
 Red. masses --      2.9697                 2.3002                 1.4645
 Frc consts  --      1.9079                 1.5467                 1.0499
 IR Inten    --      8.8001                 3.1686                 4.0933

                     31                     32                     33
                      A                      A                      A
 Frequencies --   1116.4599              1126.8982              1145.1134
 Red. masses --      1.4730                 1.2992                 2.2660
 Frc consts  --      1.0818                 0.9721                 1.7507
 IR Inten    --      7.6446                 9.1232                 4.1437

                     34                     35                     36
                      A                      A                      A
 Frequencies --   1162.4522              1181.2494              1211.7482
 Red. masses --      1.3232                 1.8591                 1.4575
 Frc consts  --      1.0535                 1.5284                 1.2609
 IR Inten    --      4.3464                71.4546                10.6924

                     37                     38                     39
                      A                      A                      A
 Frequencies --   1276.0043              1312.6591              1328.3771
 Red. masses --      1.5315                 1.3546                 2.0296
 Frc consts  --      1.4692                 1.3752                 2.1101
 IR Inten    --     20.5286                 4.5447                42.6415

                     40                     41                     42
                      A                      A                      A
 Frequencies --   1365.9092              1376.8440              1391.2465
 Red. masses --      1.6905                 3.2355                 2.6947
 Frc consts  --      1.8583                 3.6138                 3.0730
 IR Inten    --      6.2009                 0.0559                91.8287

                     43                     44                     45
                      A                      A                      A
 Frequencies --   1416.4956              1441.2093              1467.0479
 Red. masses --      3.1361                 1.3676                 1.9868
 Frc consts  --      3.7074                 1.6736                 2.5194
 IR Inten    --      0.4579                35.5596                10.8009

                     46                     47                     48
                      A                      A                      A
 Frequencies --   1469.2254              1507.4908              1510.1950
 Red. masses --      1.6430                 1.1315                 1.0438
 Frc consts  --      2.0896                 1.5149                 1.4026
 IR Inten    --      6.4483                11.6880                12.9307

                     49                     50                     51
                      A                      A                      A
 Frequencies --   1511.8729              1530.8734              1539.4099
 Red. masses --      1.0567                 1.0475                 1.1140
 Frc consts  --      1.4230                 1.4464                 1.5554
 IR Inten    --      1.7880                 7.2073                14.7197

                     52                     53                     54
                      A                      A                      A
 Frequencies --   1597.7694              1610.8826              1713.5364
 Red. masses --      3.5838                 4.0269                 9.7604
 Frc consts  --      5.3904                 6.1568                16.8851
 IR Inten    --     66.0824                29.9178               303.9859

                     55                     56                     57
                      A                      A                      A
 Frequencies --   3032.0074              3068.2997              3085.0248
 Red. masses --      1.0486                 1.0827                 1.0318
 Frc consts  --      5.6796                 6.0056                 5.7858
 IR Inten    --     47.4600                15.2745                21.1613

                     58                     59                     60
                      A                      A                      A
 Frequencies --   3091.7095              3116.4279              3142.6707
 Red. masses --      1.0647                 1.0882                 1.1012
 Frc consts  --      5.9960                 6.2271                 6.4076
 IR Inten    --     34.6067                25.3320                25.3669

                     61                     62                     63
                      A                      A                      A
 Frequencies --   3167.0854              3169.3623              3184.3735
 Red. masses --      1.1070                 1.1031                 1.1068
 Frc consts  --      6.5422                 6.5287                 6.6123
 IR Inten    --      2.1329                 4.0399                38.8329

                     64                     65                     66
                      A                      A                      A
 Frequencies --   3187.1557              3304.6990              3323.1526
 Red. masses --      1.1098                 1.0918                 1.1086
 Frc consts  --      6.6421                 7.0254                 7.2130
 IR Inten    --     72.6649                 3.5204                 0.8635

 - Thermochemistry -
 -------------------
 Temperature   298.150 Kelvin.  Pressure   1.00000 Atm.
 Atom     1 has atomic number  6 and mass  12.00000

 Molecular mass:   168.08988 amu.
 Principal axes and moments of inertia in atomic units:
                           1         2         3
     Eigenvalues --  1233.167372139.683462622.02332
           X            0.99720  -0.07472   0.00382
           Y            0.07462   0.99697   0.02208
           Z           -0.00546  -0.02173   0.99975
 This molecule is an asymmetric top.
 Rotational symmetry number  1.
 Warning -- assumption of classical behavior for rotation
           may cause significant error
 Rotational temperatures (Kelvin)      0.07024     0.04048     0.03303
 Rotational constants (GHZ):           1.46350     0.84346     0.68830
 Zero-point vibrational energy     526876.0 (Joules/Mol)
                                  125.92639 (Kcal/Mol)
 Warning -- explicit consideration of  15 degrees of freedom as
           vibrations may cause significant error
 Vibrational temperatures:     64.19   105.59   124.66   164.10   180.45
          (Kelvin)            280.95   294.78   351.41   399.10   419.64
                              497.84   615.03   664.58   741.24   866.64
                              895.21   948.10   964.78  1037.20  1043.41
                             1173.97  1183.63  1204.44  1275.77  1351.84
                             1361.15  1484.74  1502.39  1537.02  1587.04
                             1606.34  1621.36  1647.56  1672.51  1699.55
                             1743.44  1835.89  1888.62  1911.24  1965.24
                             1980.97  2001.69  2038.02  2073.58  2110.75
                             2113.89  2168.94  2172.83  2175.25  2202.59
                             2214.87  2298.83  2317.70  2465.40  4362.38
                             4414.60  4438.66  4448.28  4483.84  4521.60
                             4556.73  4560.01  4581.60  4585.61  4754.72
                             4781.28

 Zero-point correction=                           0.200676 (Hartree/Particle)
 Thermal correction to Energy=                    0.212392
 Thermal correction to Enthalpy=                  0.213336
 Thermal correction to Gibbs Free Energy=         0.162474
 Sum of electronic and zero-point Energies=           -571.837988
 Sum of electronic and thermal Energies=              -571.826273
 Sum of electronic and thermal Enthalpies=            -571.825329
 Sum of electronic and thermal Free Energies=         -571.876191

                     E (Thermal)             CV                S
                      KCal/Mol        Cal/Mol-Kelvin    Cal/Mol-Kelvin
 Total                  133.278             43.051            107.048
 Electronic               0.000              0.000              0.000
 Translational            0.889              2.981             41.266
 Rotational               0.889              2.981             30.315
 Vibrational            131.500             37.089             35.466
 Vibration     1          0.595              1.980              5.043
 Vibration     2          0.599              1.967              4.060
 Vibration     3          0.601              1.959              3.735
 Vibration     4          0.607              1.938              3.199
 Vibration     5          0.610              1.928              3.015
 Vibration     6          0.636              1.846              2.177
 Vibration     7          0.640              1.833              2.089
 Vibration     8          0.660              1.772              1.772
 Vibration     9          0.678              1.715              1.550
 Vibration    10          0.687              1.689              1.464
 Vibration    11          0.724              1.583              1.184
 Vibration    12          0.789              1.410              0.867
 Vibration    13          0.820              1.335              0.761
 Vibration    14          0.870              1.216              0.621
 Vibration    15          0.961              1.027              0.446

                           ! Non-Optimized Parameters !
 Normal termination of Gaussian 16 at Wed Dec  9 17:37:11 2020.

 ----------------------------------------------------------------------
 # B3LYP/6-311++G(d,p) empiricaldispersion=gd3bj scf=xqc pop=npa geom=c
 heck
 ----------------------------------------------------------------------

 ---------------------------------------
 CID_101926204_JID_2411_Energie_neutraal
 ---------------------------------------
 Structure from the checkpoint file:  "JID_2411.chk"
 Charge =  0 Multiplicity = 1

 SCF Done:  E(RB3LYP) =  -572.209632620     A.U. after   15 cycles
 Normal termination of Gaussian 16 at Wed Dec  9 17:39:50 2020.

 ----------------------------------------------------------------------
 # B3LYP/6-311++G(d,p) empiricaldispersion=gd3bj scf=xqc pop=npa geom=c
 heck
 ----------------------------------------------------------------------

 -------------------------------------
 CID_101926204_JID_2411_Energie_kation
 -------------------------------------
 Structure from the checkpoint file:  "JID_2411.chk"
 Charge =  1 Multiplicity = 2

 SCF Done:  E(UB3LYP) =  -571.920311761     A.U. after   33 cycles
 SCF Done:  E(UB3LYP) =  -571.920311776     a.u. after    2 cycles
 Normal termination of Gaussian 16 at Wed Dec  9 17:52:51 2020.
 Gaussian 16:  ES64L-G16RevA.03 25-Dec-2016

 ----------------------------------------------------------------------
 # B3LYP/6-311++G(d,p) empiricaldispersion=gd3bj scf=xqc pop=npa geom=c
 heck
 ----------------------------------------------------------------------

 ------------------------------------
 CID_101926204_JID_2411_Energie_anion
 ------------------------------------
 Structure from the checkpoint file:  "JID_2411.chk"
 Charge = -1 Multiplicity = 2

                         Standard orientation:
 ---------------------------------------------------------------------
 Center     Atomic      Atomic             Coordinates (Angstroms)
 Number     Number       Type             X           Y           Z
 ---------------------------------------------------------------------
      1          6           0       -2.104933    1.073596    1.287692
      2          6           0       -2.063174    0.257214    0.000225
      3          6           0       -1.217869    0.926966   -1.107677
      4          7           0        0.222919    0.844359   -0.768653
      5          6           0        0.968258    1.808792   -0.111555
      6          6           0        2.114788    1.211777    0.316581
      7          7           0        2.050918   -0.114504   -0.087458
      8          6           0        0.889881   -0.316802   -0.719178
      9          6           0        2.899449   -1.209286    0.378493
     10          6           0       -1.412815   -1.162820    0.154918
     11          8           0       -1.495156   -1.882821   -0.873688
     12          8           0       -0.694330   -1.330534    1.173197
     13          1           0       -1.110578    1.127555    1.739308
     14          1           0       -2.753328    0.585268    2.020710
     15          1           0       -2.485418    2.090462    1.117233
     16          1           0       -3.067359    0.147087   -0.425929
     17          1           0       -1.362638    0.386043   -2.042759
     18          1           0       -1.445044    1.987686   -1.249062
     19          1           0        0.618828    2.823935   -0.015686
     20          1           0        2.963089    1.602786    0.854727
     21          1           0        0.487407   -1.261623   -1.075537
     22          1           0        2.354485   -1.760684    1.149556
     23          1           0        3.134707   -1.872875   -0.455635
     24          1           0        3.823353   -0.794401    0.782785
 ---------------------------------------------------------------------

 SCF Done:  E(UB3LYP) =  -572.207747346     A.U. after   32 cycles

 The electronic state is 2-A.
 Alpha  occ. eigenvalues --  -18.93723 -18.93448 -14.29931 -14.29489 -10.15549
 Alpha  occ. eigenvalues --  -10.12780 -10.12612 -10.12525 -10.12454 -10.12344
 Alpha  occ. eigenvalues --  -10.06967 -10.05296  -0.97051  -0.90061  -0.85488
 Alpha  occ. eigenvalues --   -0.81282  -0.71320  -0.68193  -0.64800  -0.60045
 Alpha  occ. eigenvalues --   -0.54213  -0.52687  -0.50368  -0.45818  -0.40968
 Alpha  occ. eigenvalues --   -0.39330  -0.38469  -0.37460  -0.36230  -0.36070
 Alpha  occ. eigenvalues --   -0.34432  -0.33137  -0.32079  -0.31758  -0.31017
 Alpha  occ. eigenvalues --   -0.28175  -0.26678  -0.26407  -0.24906  -0.23190
 Alpha  occ. eigenvalues --   -0.20535  -0.16714  -0.12845  -0.11136  -0.10877
 Alpha  occ. eigenvalues --    0.03824
 Alpha virt. eigenvalues --    0.06313   0.06721   0.07930   0.08976   0.09322
 Alpha virt. eigenvalues --    0.10096   0.10259   0.11406   0.11915   0.12344
 Alpha virt. eigenvalues --    0.12949   0.13508   0.13953   0.14611   0.15821

  Beta  occ. eigenvalues --  -18.93716 -18.93447 -14.29879 -14.29429 -10.15420
  Beta  occ. eigenvalues --  -10.12779 -10.12593 -10.12500 -10.12442 -10.12299
  Beta  occ. eigenvalues --  -10.06967 -10.05289  -0.96932  -0.90052  -0.85375
  Beta  occ. eigenvalues --   -0.81273  -0.71274  -0.68092  -0.64704  -0.60000
  Beta  occ. eigenvalues --   -0.54138  -0.52602  -0.50254  -0.45714  -0.40754
  Beta  occ. eigenvalues --   -0.39258  -0.38373  -0.37342  -0.36152  -0.35977
  Beta  occ. eigenvalues --   -0.34380  -0.33102  -0.32034  -0.31678  -0.30941
  Beta  occ. eigenvalues --   -0.28161  -0.26658  -0.26392  -0.24853  -0.23153
  Beta  occ. eigenvalues --   -0.20334  -0.16440  -0.12810  -0.11130  -0.10872
  Beta virt. eigenvalues --    0.06743   0.07468   0.07798   0.08748   0.09215
  Beta virt. eigenvalues --    0.10040   0.10238   0.10758   0.11704   0.12323
  Beta virt. eigenvalues --    0.12468   0.13447   0.13736   0.14144   0.14551

 Mulliken charges and spin densities:
               1          2
     1  C   -0.540852  -0.207693
     2  C    0.137778   0.467538
     3  C   -0.030115  -0.569674
     4  N    0.075133   0.127818
     5  C    1.317694  -1.366809
     6  C    0.107785  -0.213443
     7  N    0.022977   0.147183
     8  C    0.002866  -0.526785
     9  C    0.688240  -0.928570
    10  C   -0.190486  -0.104070
    11  O   -0.349910   0.002231
    12  O   -0.305093   0.004577
    13  H    0.246647  -0.052691
    14  H    0.138056   0.012644
    15  H   -0.009517   0.102413
    16  H    0.202389   0.022989
    17  H    0.082749   0.136472
    18  H   -0.047793   0.208372
    19  H   -0.771891   0.958470
    20  H   -1.442902   1.650195
    21  H    0.384730  -0.132882
    22  H    0.181227   0.027881
    23  H   -0.307556   0.473276
    24  H   -0.592154   0.760559
 Sum of Mulliken charges =  -1.00000   1.00000

 Dipole moment (field-independent basis, Debye):
    X=             -4.7148    Y=              0.4031    Z=             -1.2886  Tot=              4.9043
 Quadrupole moment (field-independent basis, Debye-Ang):
   XX=           -130.0823   YY=           -120.4281   ZZ=            -99.9488
   XY=            -17.4383   XZ=             -5.2152   YZ=             -3.7338

 Summary of Natural Population Analysis:

                                       Natural Population
                Natural  -----------------------------------------------
    Atom  No    Charge         Core      Valence    Rydberg      Total
 -----------------------------------------------------------------------
      C    1   -0.29301      0.99965     2.28614    0.00722     3.29301
      C    2   -0.16151      0.99956     2.15009    0.01186     3.16151
      C    3   -0.07724      0.99959     2.06626    0.01139     3.07724
      N    4   -0.18629      0.99964     2.67432    0.01234     3.68629
      C    5   -0.01165      0.99954     1.99945    0.01266     3.01165
      C    6   -0.01056      0.99953     1.99828    0.01275     3.01056
      N    7   -0.18353      0.99964     2.67240    0.01149     3.68353
      C    8    0.17863      0.99956     1.80471    0.01710     2.82137
      C    9   -0.17198      0.99962     2.16459    0.00776     3.17198
      C   10    0.38005      0.99971     1.58738    0.03286     2.61995
      O   11   -0.39317      0.99988     3.38731    0.00597     4.39317
      O   12   -0.37773      0.99988     3.37197    0.00588     4.37773
      H   13    0.10883      0.00000     0.38991    0.00125     0.39117
      H   14    0.10254      0.00000     0.39673    0.00073     0.39746
      H   15    0.08969      0.00000     0.40938    0.00094     0.41031
      H   16    0.10326      0.00000     0.39576    0.00098     0.39674
      H   17    0.11375      0.00000     0.38502    0.00123     0.38625
      H   18    0.09871      0.00000     0.40007    0.00122     0.40129
      H   19    0.11424      0.00000     0.38269    0.00307     0.38576
      H   20    0.11760      0.00000     0.37380    0.00861     0.38240
      H   21    0.13607      0.00000     0.36178    0.00215     0.36393
      H   22    0.11067      0.00000     0.38823    0.00110     0.38933
      H   23    0.10534      0.00000     0.39303    0.00163     0.39466
      H   24    0.10726      0.00000     0.39026    0.00248     0.39274
 =======================================================================
   * Total *   -0.00000     11.99580    32.82954    0.17466    45.00000

 Normal termination of Gaussian 16 at Wed Dec  9 17:59:51 2020.
