 Gaussian 16, Revision A.03,

 -----------------------------------------------------------
 # opt freq B3LYP/6-31G(d) empiricaldispersion=gd3bj scf=xqc
 -----------------------------------------------------------

 -------------------------------
 CID_107543999_JID_7240_neutraal
 -------------------------------
 Symbolic Z-matrix:
 Charge =  0 Multiplicity = 1

 SCF Done:  E(RB3LYP) =  -1097.78733369     A.U. after   15 cycles
 SCF Done:  E(RB3LYP) =  -1097.79527188     A.U. after   13 cycles
 SCF Done:  E(RB3LYP) =  -1097.79636699     A.U. after   12 cycles
 SCF Done:  E(RB3LYP) =  -1097.79653734     A.U. after   12 cycles
 SCF Done:  E(RB3LYP) =  -1097.79659207     A.U. after   11 cycles
 SCF Done:  E(RB3LYP) =  -1097.79663012     A.U. after   11 cycles
 SCF Done:  E(RB3LYP) =  -1097.79666823     A.U. after   12 cycles
 SCF Done:  E(RB3LYP) =  -1097.79669998     A.U. after   12 cycles
 SCF Done:  E(RB3LYP) =  -1097.79670779     A.U. after   12 cycles
 SCF Done:  E(RB3LYP) =  -1097.79671979     A.U. after   11 cycles
 SCF Done:  E(RB3LYP) =  -1097.79925227     A.U. after    9 cycles
 SCF Done:  E(RB3LYP) =  -1097.79925205     A.U. after    9 cycles
 SCF Done:  E(RB3LYP) =  -1097.79925236     A.U. after    9 cycles
 SCF Done:  E(RB3LYP) =  -1097.79925239     A.U. after    9 cycles
 SCF Done:  E(RB3LYP) =  -1097.79925240     A.U. after    7 cycles
 SCF Done:  E(RB3LYP) =  -1097.79925240     A.U. after    6 cycles
 Optimization completed.
    -- Stationary point found.
 Normal termination of Gaussian 16 at Mon Dec 14 19:18:12 2020.

 --------------------------------------------------------------------
 #N Geom=AllCheck Guess=TCheck SCRF=Check GenChk RB3LYP/6-31G(d) Freq
 --------------------------------------------------------------------

 Structure from the checkpoint file:  "JID_7240.chk"
 -------------------------------
 CID_107543999_JID_7240_neutraal
 -------------------------------
 Charge =  0 Multiplicity = 1

 SCF Done:  E(RB3LYP) =  -1097.79925240     A.U. after    1 cycles

  Exact polarizability: 198.749  13.685 167.569 -12.987  -6.200 112.252
 Approx polarizability: 270.471  38.227 302.321 -31.566 -23.205 190.205

                      1                      2                      3
                      A                      A                      A
 Frequencies --     18.7490                21.2051                28.0063
 Red. masses --      1.0432                 5.2219                 6.2460
 Frc consts  --      0.0002                 0.0014                 0.0029
 IR Inten    --      0.6028                 0.3505                 1.9505

                      4                      5                      6
                      A                      A                      A
 Frequencies --     37.4073               110.1975               122.6356
 Red. masses --      6.7874                 6.7258                 1.5115
 Frc consts  --      0.0056                 0.0481                 0.0134
 IR Inten    --      0.8217                 1.7128                 0.3922

                      7                      8                      9
                      A                      A                      A
 Frequencies --    125.8352               135.5724               175.8575
 Red. masses --      3.6970                 3.1224                 6.0943
 Frc consts  --      0.0345                 0.0338                 0.1110
 IR Inten    --      1.9058                 4.3659                 2.4840

                     10                     11                     12
                      A                      A                      A
 Frequencies --    188.3458               208.8958               244.9530
 Red. masses --      5.5113                 4.4277                 3.8106
 Frc consts  --      0.1152                 0.1138                 0.1347
 IR Inten    --      2.7462                 1.2702                 2.2704

                     13                     14                     15
                      A                      A                      A
 Frequencies --    259.7514               321.5342               346.1589
 Red. masses --      3.1278                 2.8564                 3.7402
 Frc consts  --      0.1243                 0.1740                 0.2641
 IR Inten    --      4.0643                 1.3205                 1.7835

                     16                     17                     18
                      A                      A                      A
 Frequencies --    391.9404               402.2708               472.5295
 Red. masses --      3.5561                 7.9572                 6.9716
 Frc consts  --      0.3219                 0.7587                 0.9171
 IR Inten    --      0.3531                 7.4154                 5.0112

                     19                     20                     21
                      A                      A                      A
 Frequencies --    494.8116               521.9153               553.4429
 Red. masses --      4.5971                 1.8705                 4.1635
 Frc consts  --      0.6632                 0.3002                 0.7514
 IR Inten    --     21.6055                65.5795                15.0139

                     22                     23                     24
                      A                      A                      A
 Frequencies --    555.8333               568.2369               597.6723
 Red. masses --      4.4966                 4.2183                 4.5218
 Frc consts  --      0.8185                 0.8025                 0.9517
 IR Inten    --     19.6756                19.2937                 1.1771

                     25                     26                     27
                      A                      A                      A
 Frequencies --    605.4435               642.2030               649.6001
 Red. masses --      4.0307                 4.5045                 4.2973
 Frc consts  --      0.8705                 1.0946                 1.0684
 IR Inten    --      2.1770                12.5080                16.7845

                     28                     29                     30
                      A                      A                      A
 Frequencies --    689.0051               699.4841               714.4765
 Red. masses --      4.8520                 5.6379                 5.1002
 Frc consts  --      1.3571                 1.6253                 1.5340
 IR Inten    --     13.8207                 1.6704                12.7446

                     31                     32                     33
                      A                      A                      A
 Frequencies --    759.7072               805.8736               846.2401
 Red. masses --      1.2624                 5.7427                 1.4237
 Frc consts  --      0.4293                 2.1974                 0.6007
 IR Inten    --     29.3922                16.3712                18.9436

                     34                     35                     36
                      A                      A                      A
 Frequencies --    862.7232               937.0698               963.9516
 Red. masses --      4.0953                 3.0343                 5.3195
 Frc consts  --      1.7959                 1.5698                 2.9122
 IR Inten    --      3.0623                 2.6949                 6.4294

                     37                     38                     39
                      A                      A                      A
 Frequencies --    982.9414              1008.0862              1023.0614
 Red. masses --      5.0974                 4.3116                 1.9518
 Frc consts  --      2.9017                 2.5816                 1.2036
 IR Inten    --      5.3473                 9.0059                 0.4522

                     40                     41                     42
                      A                      A                      A
 Frequencies --   1038.8240              1051.7578              1071.4905
 Red. masses --      1.7060                 2.6786                 1.6101
 Frc consts  --      1.0847                 1.7458                 1.0891
 IR Inten    --      7.0149                 6.9392                 9.0370

                     43                     44                     45
                      A                      A                      A
 Frequencies --   1079.8904              1140.7302              1167.4816
 Red. masses --      1.5072                 2.9331                 2.0468
 Frc consts  --      1.0356                 2.2488                 1.6437
 IR Inten    --      3.5396                15.8603                17.1355

                     46                     47                     48
                      A                      A                      A
 Frequencies --   1189.1697              1208.3231              1281.6362
 Red. masses --      1.5716                 2.4274                 3.5727
 Frc consts  --      1.3094                 2.0881                 3.4576
 IR Inten    --     11.4367                30.1762                30.5342

                     49                     50                     51
                      A                      A                      A
 Frequencies --   1313.7547              1349.6655              1367.6827
 Red. masses --      1.6365                 3.8136                 4.0148
 Frc consts  --      1.6642                 4.0930                 4.4247
 IR Inten    --      8.8678                 6.9175               142.0679

                     52                     53                     54
                      A                      A                      A
 Frequencies --   1381.0891              1416.0629              1438.4248
 Red. masses --      1.7264                 1.5670                 1.3506
 Frc consts  --      1.9402                 1.8514                 1.6464
 IR Inten    --     32.0220                 9.5477                 4.3699

                     55                     56                     57
                      A                      A                      A
 Frequencies --   1441.9393              1479.4279              1501.8665
 Red. masses --      1.2666                 1.5144                 1.7963
 Frc consts  --      1.5516                 1.9528                 2.3872
 IR Inten    --      0.5453                18.9881                13.1484

                     58                     59                     60
                      A                      A                      A
 Frequencies --   1503.8969              1506.2806              1511.4885
 Red. masses --      1.0699                 1.0443                 1.1170
 Frc consts  --      1.4257                 1.3960                 1.5036
 IR Inten    --     10.2445                 5.4701                45.8373

                     61                     62                     63
                      A                      A                      A
 Frequencies --   1512.8430              1542.8983              1587.2460
 Red. masses --      1.2181                 5.7000                 3.7743
 Frc consts  --      1.6425                 7.9946                 5.6024
 IR Inten    --      8.4414                 5.6616                77.4358

                     64                     65                     66
                      A                      A                      A
 Frequencies --   1595.7631              1613.4419              1628.9890
 Red. masses --      4.7915                 5.2861                 7.0906
 Frc consts  --      7.1889                 8.1076                11.0858
 IR Inten    --     93.5545               197.6542               755.4840

                     67                     68                     69
                      A                      A                      A
 Frequencies --   2365.5106              3053.5233              3062.8649
 Red. masses --     12.6886                 1.0366                 1.0373
 Frc consts  --     41.8324                 5.6943                 5.7333
 IR Inten    --      0.3545                30.1640                 7.9866

                     70                     71                     72
                      A                      A                      A
 Frequencies --   3108.2927              3109.0220              3125.8435
 Red. masses --      1.0594                 1.1012                 1.0988
 Frc consts  --      6.0302                 6.2712                 6.3255
 IR Inten    --     14.9488                16.9083                 7.9016

                     73                     74                     75
                      A                      A                      A
 Frequencies --   3139.5098              3152.2234              3162.6809
 Red. masses --      1.1019                 1.1040                 1.1073
 Frc consts  --      6.3991                 6.4635                 6.5258
 IR Inten    --     15.3459                12.9797                 1.9013

                     76                     77                     78
                      A                      A                      A
 Frequencies --   3243.7669              3271.2729              3624.3925
 Red. masses --      1.0933                 1.0946                 1.0767
 Frc consts  --      6.7778                 6.9012                 8.3335
 IR Inten    --      0.2511                 1.7278                49.8659

 - Thermochemistry -
 -------------------
 Temperature   298.150 Kelvin.  Pressure   1.00000 Atm.
 Atom     1 has atomic number  6 and mass  12.00000

 Molecular mass:   245.07352 amu.
 Principal axes and moments of inertia in atomic units:
                           1         2         3
     Eigenvalues --  2454.481737271.132128479.54897
           X            0.99990  -0.01343  -0.00318
           Y            0.01347   0.99984   0.01201
           Z            0.00302  -0.01205   0.99992
 This molecule is an asymmetric top.
 Rotational symmetry number  1.
 Warning -- assumption of classical behavior for rotation
           may cause significant error
 Rotational temperatures (Kelvin)      0.03529     0.01191     0.01021
 Rotational constants (GHZ):           0.73528     0.24821     0.21283
 Zero-point vibrational energy     558863.0 (Joules/Mol)
                                  133.57146 (Kcal/Mol)
 Warning -- explicit consideration of  25 degrees of freedom as
           vibrations may cause significant error
 Vibrational temperatures:     26.98    30.51    40.29    53.82   158.55
          (Kelvin)            176.45   181.05   195.06   253.02   270.99
                              300.55   352.43   373.72   462.62   498.05
                              563.91   578.78   679.86   711.92   750.92
                              796.28   799.72   817.57   859.92   871.10
                              923.99   934.63   991.32  1006.40  1027.97
                             1093.05  1159.47  1217.55  1241.27  1348.23
                             1386.91  1414.23  1450.41  1471.96  1494.64
                             1513.24  1541.64  1553.72  1641.26  1679.75
                             1710.95  1738.51  1843.99  1890.20  1941.87
                             1967.79  1987.08  2037.40  2069.57  2074.63
                             2128.57  2160.85  2163.77  2167.20  2174.69
                             2176.64  2219.89  2283.69  2295.95  2321.38
                             2343.75  3403.44  4393.34  4406.78  4472.14
                             4473.19  4497.39  4517.05  4535.35  4550.39
                             4667.06  4706.63  5214.69

 Zero-point correction=                           0.212860 (Hartree/Particle)
 Thermal correction to Energy=                    0.229033
 Thermal correction to Enthalpy=                  0.229977
 Thermal correction to Gibbs Free Energy=         0.165681
 Sum of electronic and zero-point Energies=          -1097.586393
 Sum of electronic and thermal Energies=             -1097.570220
 Sum of electronic and thermal Enthalpies=           -1097.569275
 Sum of electronic and thermal Free Energies=        -1097.633572

                     E (Thermal)             CV                S
                      KCal/Mol        Cal/Mol-Kelvin    Cal/Mol-Kelvin
 Total                  143.720             58.687            135.323
 Electronic               0.000              0.000              0.000
 Translational            0.889              2.981             42.390
 Rotational               0.889              2.981             33.381
 Vibrational            141.943             52.726             59.552
 Vibration     1          0.593              1.986              6.762
 Vibration     2          0.593              1.985              6.518
 Vibration     3          0.593              1.984              5.966
 Vibration     4          0.594              1.982              5.392
 Vibration     5          0.606              1.941              3.265
 Vibration     6          0.610              1.930              3.058
 Vibration     7          0.611              1.927              3.009
 Vibration     8          0.613              1.918              2.865
 Vibration     9          0.628              1.872              2.372
 Vibration    10          0.633              1.856              2.244
 Vibration    11          0.642              1.827              2.053
 Vibration    12          0.660              1.771              1.767
 Vibration    13          0.668              1.746              1.663
 Vibration    14          0.707              1.632              1.302
 Vibration    15          0.724              1.583              1.184
 Vibration    16          0.759              1.487              0.993
 Vibration    17          0.768              1.465              0.954
 Vibration    18          0.829              1.311              0.730
 Vibration    19          0.850              1.262              0.671
 Vibration    20          0.877              1.201              0.606
 Vibration    21          0.909              1.132              0.537
 Vibration    22          0.911              1.127              0.532
 Vibration    23          0.924              1.100              0.508
 Vibration    24          0.956              1.037              0.454
 Vibration    25          0.964              1.020              0.440

 Optimization completed.
    -- Stationary point found.
 Normal termination of Gaussian 16 at Mon Dec 14 19:26:55 2020.

 ----------------------------------------------------------------------
 # B3LYP/6-311++G(d,p) empiricaldispersion=gd3bj scf=xqc pop=npa geom=c
 heck
 ----------------------------------------------------------------------

 ---------------------------------------
 CID_107543999_JID_7240_Energie_neutraal
 ---------------------------------------
 Structure from the checkpoint file:  "JID_7240.chk"
 Charge =  0 Multiplicity = 1

 SCF Done:  E(RB3LYP) =  -1098.01135835     A.U. after   16 cycles
 Normal termination of Gaussian 16 at Mon Dec 14 19:31:24 2020.

 ----------------------------------------------------------------------
 # B3LYP/6-311++G(d,p) empiricaldispersion=gd3bj scf=xqc pop=npa geom=c
 heck
 ----------------------------------------------------------------------

 -------------------------------------
 CID_107543999_JID_7240_Energie_kation
 -------------------------------------
 Structure from the checkpoint file:  "JID_7240.chk"
 Charge =  1 Multiplicity = 2

 SCF Done:  E(UB3LYP) =  -1097.70940484     A.U. after   26 cycles
 Normal termination of Gaussian 16 at Mon Dec 14 19:41:26 2020.
 Gaussian 16:  ES64L-G16RevA.03 25-Dec-2016

 ----------------------------------------------------------------------
 # B3LYP/6-311++G(d,p) empiricaldispersion=gd3bj scf=xqc pop=npa geom=c
 heck
 ----------------------------------------------------------------------

 ------------------------------------
 CID_107543999_JID_7240_Energie_anion
 ------------------------------------
 Structure from the checkpoint file:  "JID_7240.chk"
 Charge = -1 Multiplicity = 2

                         Standard orientation:
 ---------------------------------------------------------------------
 Center     Atomic      Atomic             Coordinates (Angstroms)
 Number     Number       Type             X           Y           Z
 ---------------------------------------------------------------------
      1          6           0        3.991897   -2.184748   -1.287585
      2          6           0        3.074194   -1.218774   -0.591315
      3          6           0        3.341151    0.159652   -0.562047
      4          6           0        2.416256    0.951879    0.114496
      5          7           0        1.327702    0.464659    0.721273
      6          6           0        1.175841   -0.870788    0.639969
      7          7           0        1.997087   -1.733440    0.002554
      8          7           0        0.100163   -1.417282    1.268721
      9          6           0       -0.993316   -0.612364    1.797310
     10          6           0       -1.962268   -0.150461    0.740339
     11          7           0       -3.120086   -0.714368    0.543578
     12          6           0       -3.802679   -0.130377   -0.509002
     13          6           0       -3.135630    0.896104   -1.118338
     14         16           0       -1.594716    1.163675   -0.367454
     15          6           0       -5.160068   -0.648626   -0.876670
     16          6           0        2.601521    2.382878    0.173384
     17          7           0        2.776429    3.530675    0.202337
     18          1           0        4.756337   -1.667328   -1.872877
     19          1           0        3.415047   -2.841766   -1.945481
     20          1           0        4.490117   -2.823430   -0.549105
     21          1           0        4.208107    0.589865   -1.046965
     22          1           0       -0.090230   -2.378370    1.019260
     23          1           0       -1.553214   -1.224540    2.507421
     24          1           0       -0.558366    0.236553    2.327163
     25          1           0       -3.463822    1.498843   -1.953924
     26          1           0       -5.110774   -1.709965   -1.145940
     27          1           0       -5.850558   -0.560829   -0.030065
     28          1           0       -5.577662   -0.095785   -1.722712
 ---------------------------------------------------------------------

 SCF Done:  E(UB3LYP) =  -1098.03859303     A.U. after   26 cycles

 The electronic state is 2-A.
 Alpha  occ. eigenvalues --  -88.77732 -14.21395 -14.20896 -14.14891 -14.14633
 Alpha  occ. eigenvalues --  -14.14108 -10.13502 -10.12536 -10.11490 -10.10975
 Alpha  occ. eigenvalues --  -10.09981 -10.09189 -10.06566 -10.06397 -10.04591
 Alpha  occ. eigenvalues --  -10.04531 -10.02585  -7.86285  -5.82558  -5.82186
 Alpha  occ. eigenvalues --   -5.81910  -0.87035  -0.85852  -0.79064  -0.75346
 Alpha  occ. eigenvalues --   -0.73572  -0.69703  -0.69150  -0.65318  -0.61599
 Alpha  occ. eigenvalues --   -0.59471  -0.56841  -0.52414  -0.49465  -0.47833
 Alpha  occ. eigenvalues --   -0.44088  -0.43219  -0.39440  -0.37969  -0.35402
 Alpha  occ. eigenvalues --   -0.35308  -0.34252  -0.33933  -0.32734  -0.31528
 Alpha  occ. eigenvalues --   -0.31135  -0.30536  -0.28811  -0.27868  -0.27720
 Alpha  occ. eigenvalues --   -0.26601  -0.26047  -0.25525  -0.22442  -0.21496
 Alpha  occ. eigenvalues --   -0.18558  -0.18346  -0.18229  -0.17277  -0.16551
 Alpha  occ. eigenvalues --   -0.15575  -0.14207  -0.10695  -0.09516   0.03359
 Alpha virt. eigenvalues --    0.06084   0.06786   0.08515   0.08601   0.09081
 Alpha virt. eigenvalues --    0.09723   0.10730   0.11159   0.11709   0.11838
 Alpha virt. eigenvalues --    0.12210   0.12518   0.13432   0.13674   0.13894

  Beta  occ. eigenvalues --  -88.77731 -14.21391 -14.20910 -14.14617 -14.14247
  Beta  occ. eigenvalues --  -14.13673 -10.13479 -10.12586 -10.11486 -10.10977
  Beta  occ. eigenvalues --  -10.09963 -10.09188 -10.06335 -10.05896 -10.04636
  Beta  occ. eigenvalues --  -10.04555 -10.02628  -7.86284  -5.82557  -5.82186
  Beta  occ. eigenvalues --   -5.81906  -0.86968  -0.85594  -0.78755  -0.74691
  Beta  occ. eigenvalues --   -0.72865  -0.69675  -0.69114  -0.64999  -0.61441
  Beta  occ. eigenvalues --   -0.59100  -0.56800  -0.51770  -0.49404  -0.47641
  Beta  occ. eigenvalues --   -0.44042  -0.43007  -0.39382  -0.37766  -0.35252
  Beta  occ. eigenvalues --   -0.35196  -0.34157  -0.33889  -0.32660  -0.31174
  Beta  occ. eigenvalues --   -0.30899  -0.30181  -0.28758  -0.27727  -0.27087
  Beta  occ. eigenvalues --   -0.26494  -0.25868  -0.25338  -0.20971  -0.20852
  Beta  occ. eigenvalues --   -0.18421  -0.18228  -0.18013  -0.16631  -0.15914
  Beta  occ. eigenvalues --   -0.14118  -0.13241  -0.10249  -0.08442
  Beta virt. eigenvalues --    0.06034   0.06898   0.08477   0.08562   0.09041
  Beta virt. eigenvalues --    0.09654   0.10158   0.10789   0.11148   0.11719
  Beta virt. eigenvalues --    0.12018   0.12214   0.12526   0.13518   0.13676

 Mulliken charges and spin densities:
               1          2
     1  C   -0.540144  -0.050707
     2  C    0.351671   0.150738
     3  C   -0.425941   0.009719
     4  C    1.088837   0.405981
     5  N   -0.064381   0.124953
     6  C   -0.325338  -0.009516
     7  N   -0.169171   0.226962
     8  N    0.015330  -0.003392
     9  C   -0.487262  -0.022475
    10  C    0.453753   0.038070
    11  N    0.087438  -0.000539
    12  C   -0.757370  -0.000491
    13  C    0.627383   0.025160
    14  S   -0.418308  -0.011141
    15  C   -0.713983  -0.028778
    16  C   -1.173560  -0.143980
    17  N   -0.357651   0.204508
    18  H    0.127164  -0.000567
    19  H    0.120002   0.018055
    20  H    0.121951   0.021872
    21  H    0.133392   0.002945
    22  H    0.270831   0.003055
    23  H    0.163232  -0.002478
    24  H    0.237567   0.012610
    25  H    0.221721   0.012258
    26  H    0.143718   0.007582
    27  H    0.144199   0.003911
    28  H    0.124918   0.005686
 Sum of Mulliken charges =  -1.00000   1.00000

 Dipole moment (field-independent basis, Debye):
    X=             -8.1412    Y=             -4.3198    Z=             -1.3975  Tot=              9.3216
 Quadrupole moment (field-independent basis, Debye-Ang):
   XX=           -145.0134   YY=           -148.9131   ZZ=           -112.1636
   XY=            -16.4059   XZ=              1.2708   YZ=             -3.9249

 Summary of Natural Population Analysis:

                                       Natural Population
                Natural  -----------------------------------------------
    Atom  No    Charge         Core      Valence    Rydberg      Total
 -----------------------------------------------------------------------
      C    1   -0.29745      0.99964     2.29296    0.00485     3.29745
      C    2    0.16014      0.99958     1.82835    0.01194     2.83986
      C    3   -0.15604      0.99948     2.14996    0.00659     3.15604
      C    4    0.13559      0.99944     1.84982    0.01515     2.86441
      N    5   -0.24476      0.99964     2.73453    0.01058     3.74476
      C    6    0.29196      0.99960     1.69115    0.01729     2.70804
      N    7   -0.23042      0.99963     2.71877    0.01203     3.73042
      N    8   -0.31537      0.99966     2.80290    0.01282     3.81537
      C    9   -0.11140      0.99955     2.10003    0.01182     3.11140
      C   10    0.04141      0.99961     1.94255    0.01642     2.95859
      N   11   -0.25788      0.99963     2.74579    0.01246     3.75788
      C   12    0.05392      0.99951     1.93239    0.01419     2.94608
      C   13   -0.21653      0.99946     2.20769    0.00937     3.21653
      S   14    0.22519      4.99943     2.75448    0.02090     7.77481
      C   15   -0.29258      0.99963     2.28844    0.00450     3.29258
      C   16    0.13668      0.99964     1.84471    0.01897     2.86332
      N   17   -0.14833      0.99979     2.63687    0.01167     3.64833
      H   18    0.09342      0.00000     0.40577    0.00082     0.40658
      H   19    0.10347      0.00000     0.39546    0.00107     0.39653
      H   20    0.10295      0.00000     0.39603    0.00102     0.39705
      H   21    0.09947      0.00000     0.39958    0.00095     0.40053
      H   22    0.19279      0.00000     0.30580    0.00141     0.30721
      H   23    0.10295      0.00000     0.39590    0.00115     0.39705
      H   24    0.11751      0.00000     0.38140    0.00109     0.38249
      H   25    0.10753      0.00000     0.39150    0.00097     0.39247
      H   26    0.10407      0.00000     0.39492    0.00101     0.39593
      H   27    0.10301      0.00000     0.39595    0.00104     0.39699
      H   28    0.09871      0.00000     0.40053    0.00076     0.40129
 =======================================================================
   * Total *   -0.00000     20.99292    42.78424    0.22284    64.00000

 Normal termination of Gaussian 16 at Mon Dec 14 19:51:05 2020.
