 Gaussian 16, Revision A.03,

 -----------------------------------------------------------
 # opt freq B3LYP/6-31G(d) empiricaldispersion=gd3bj scf=xqc
 -----------------------------------------------------------

 ------------------------------
 CID_87599825_JID_1226_neutraal
 ------------------------------
 Symbolic Z-matrix:
 Charge =  0 Multiplicity = 1

 SCF Done:  E(RB3LYP) =  -788.911366196     A.U. after   15 cycles
 SCF Done:  E(RB3LYP) =  -788.915577711     A.U. after   13 cycles
 SCF Done:  E(RB3LYP) =  -788.915777892     A.U. after   14 cycles
 SCF Done:  E(RB3LYP) =  -788.915498361     A.U. after   13 cycles
 SCF Done:  E(RB3LYP) =  -788.916309239     A.U. after   12 cycles
 SCF Done:  E(RB3LYP) =  -788.916363875     A.U. after   11 cycles
 SCF Done:  E(RB3LYP) =  -788.916395089     A.U. after   12 cycles
 SCF Done:  E(RB3LYP) =  -788.916405329     A.U. after   10 cycles
 SCF Done:  E(RB3LYP) =  -788.916407610     A.U. after    9 cycles
 SCF Done:  E(RB3LYP) =  -788.916407854     A.U. after    8 cycles
 Optimization completed.
    -- Stationary point found.
 Normal termination of Gaussian 16 at Tue Dec  8 19:28:40 2020.

 --------------------------------------------------------------------
 #N Geom=AllCheck Guess=TCheck SCRF=Check GenChk RB3LYP/6-31G(d) Freq
 --------------------------------------------------------------------

 Structure from the checkpoint file:  "JID_1226.chk"
 ------------------------------
 CID_87599825_JID_1226_neutraal
 ------------------------------
 Charge =  0 Multiplicity = 1

 SCF Done:  E(RB3LYP) =  -788.916407854     A.U. after    1 cycles

  Exact polarizability: 149.361  16.035 116.641  -8.504  -2.185  93.843
 Approx polarizability: 212.137  39.563 167.922 -15.915  -7.515 144.946

                      1                      2                      3
                      A                      A                      A
 Frequencies --     35.7361                43.1703                90.4298
 Red. masses --      4.4627                 5.3898                 2.9850
 Frc consts  --      0.0034                 0.0059                 0.0144
 IR Inten    --      1.4021                 0.9321                 0.8265

                      4                      5                      6
                      A                      A                      A
 Frequencies --    119.4738               138.6188               162.1266
 Red. masses --      2.6481                 2.2227                 1.1247
 Frc consts  --      0.0223                 0.0252                 0.0174
 IR Inten    --      0.7012                 0.0144                 0.1543

                      7                      8                      9
                      A                      A                      A
 Frequencies --    203.4432               302.4496               310.0706
 Red. masses --      2.4486                 1.9173                 2.2109
 Frc consts  --      0.0597                 0.1033                 0.1252
 IR Inten    --      1.0460                 2.5226                 3.6962

                     10                     11                     12
                      A                      A                      A
 Frequencies --    350.9941               354.9042               390.5958
 Red. masses --      3.1105                 2.4909                 2.2787
 Frc consts  --      0.2258                 0.1849                 0.2048
 IR Inten    --      0.6987                 0.1862                 0.7013

                     13                     14                     15
                      A                      A                      A
 Frequencies --    429.3990               453.1036               462.5358
 Red. masses --      2.6233                 2.5115                 3.2482
 Frc consts  --      0.2850                 0.3038                 0.4094
 IR Inten    --      1.5794                 0.2593                 0.1497

                     16                     17                     18
                      A                      A                      A
 Frequencies --    572.3642               643.0319               678.0164
 Red. masses --      2.2989                 2.4083                 3.2762
 Frc consts  --      0.4437                 0.5867                 0.8874
 IR Inten    --      0.2700                 1.5866                 0.0345

                     19                     20                     21
                      A                      A                      A
 Frequencies --    785.2491               837.8806               845.3130
 Red. masses --      2.0548                 1.5412                 1.4595
 Frc consts  --      0.7465                 0.6375                 0.6144
 IR Inten    --      1.6308                17.6272                 2.2789

                     22                     23                     24
                      A                      A                      A
 Frequencies --    853.2528               888.8352               919.3601
 Red. masses --      2.1490                 2.3453                 1.4823
 Frc consts  --      0.9218                 1.0917                 0.7382
 IR Inten    --      2.9469                 2.2970                 0.0147

                     25                     26                     27
                      A                      A                      A
 Frequencies --    939.8694               963.7056               994.2654
 Red. masses --      2.1697                 2.3998                 1.9853
 Frc consts  --      1.1293                 1.3132                 1.1564
 IR Inten    --      1.3169                 0.3308                 4.0133

                     28                     29                     30
                      A                      A                      A
 Frequencies --   1029.6337              1047.3659              1054.2198
 Red. masses --      1.5708                 1.4498                 1.9684
 Frc consts  --      0.9811                 0.9370                 1.2889
 IR Inten    --      2.9286                 1.7251                 8.7692

                     31                     32                     33
                      A                      A                      A
 Frequencies --   1087.2074              1118.2430              1126.9789
 Red. masses --      1.9560                 1.8676                 2.0192
 Frc consts  --      1.3622                 1.3759                 1.5110
 IR Inten    --      0.3739                 9.0916                16.4786

                     34                     35                     36
                      A                      A                      A
 Frequencies --   1157.9668              1158.4334              1179.7743
 Red. masses --      2.1547                 2.8197                 1.2791
 Frc consts  --      1.7023                 2.2295                 1.0489
 IR Inten    --     57.0050                 2.5509                 6.4993

                     37                     38                     39
                      A                      A                      A
 Frequencies --   1193.7881              1215.6257              1238.0909
 Red. masses --      1.6407                 1.4011                 1.3366
 Frc consts  --      1.3776                 1.2199                 1.2072
 IR Inten    --      2.7660                 0.4577                 3.9394

                     40                     41                     42
                      A                      A                      A
 Frequencies --   1268.1375              1290.7092              1316.2926
 Red. masses --      1.7189                 1.2686                 1.1807
 Frc consts  --      1.6287                 1.2452                 1.2053
 IR Inten    --      0.4620                 1.3272                 2.7791

                     43                     44                     45
                      A                      A                      A
 Frequencies --   1337.8238              1367.7131              1389.0706
 Red. masses --      1.2252                 1.3760                 1.4386
 Frc consts  --      1.2920                 1.5166                 1.6354
 IR Inten    --      1.2879                45.0670                 1.5055

                     46                     47                     48
                      A                      A                      A
 Frequencies --   1393.0123              1405.9355              1409.1499
 Red. masses --      1.3973                 1.8746                 1.5874
 Frc consts  --      1.5976                 2.1832                 1.8572
 IR Inten    --      0.3614                 0.6395                 1.3556

                     49                     50                     51
                      A                      A                      A
 Frequencies --   1431.6190              1442.5452              1502.4249
 Red. masses --      1.5750                 1.2814                 1.1039
 Frc consts  --      1.9019                 1.5710                 1.4681
 IR Inten    --     27.8960                 1.8611                 3.4233

                     52                     53                     54
                      A                      A                      A
 Frequencies --   1504.2201              1509.5210              1513.7022
 Red. masses --      1.0940                 1.0914                 1.0733
 Frc consts  --      1.4585                 1.4652                 1.4490
 IR Inten    --      3.0483                 0.7902                 5.2044

                     55                     56                     57
                      A                      A                      A
 Frequencies --   1520.0566              1520.4729              1531.7567
 Red. masses --      1.0831                 1.0633                 1.1012
 Frc consts  --      1.4745                 1.4484                 1.5223
 IR Inten    --      7.3719                 0.3389                 0.5780

                     58                     59                     60
                      A                      A                      A
 Frequencies --   1537.9026              1746.1306              2999.8903
 Red. masses --      1.0817                 6.9242                 1.0695
 Frc consts  --      1.5073                12.4386                 5.6709
 IR Inten    --      8.9158                 1.4806                49.2911

                     61                     62                     63
                      A                      A                      A
 Frequencies --   3000.9526              3027.2463              3029.0942
 Red. masses --      1.0680                 1.0602                 1.0581
 Frc consts  --      5.6667                 5.7244                 5.7202
 IR Inten    --     25.9082                 7.5531                32.2912

                     64                     65                     66
                      A                      A                      A
 Frequencies --   3032.4211              3037.0673              3044.4877
 Red. masses --      1.0726                 1.0648                 1.0865
 Frc consts  --      5.8114                 5.7866                 5.9334
 IR Inten    --     17.5446                10.0840                11.1855

                     67                     68                     69
                      A                      A                      A
 Frequencies --   3047.2305              3055.8519              3071.1396
 Red. masses --      1.0765                 1.0611                 1.0979
 Frc consts  --      5.8892                 5.8382                 6.1010
 IR Inten    --     84.5981                35.1576                26.3075

                     70                     71                     72
                      A                      A                      A
 Frequencies --   3083.4276              3086.4302              3095.7380
 Red. masses --      1.0960                 1.1041                 1.1029
 Frc consts  --      6.1396                 6.1968                 6.2273
 IR Inten    --     65.3605                52.4186                23.5223

                     73                     74                     75
                      A                      A                      A
 Frequencies --   3104.4384              3121.8365              3138.0963
 Red. masses --      1.0869                 1.0975                 1.0957
 Frc consts  --      6.1715                 6.3022                 6.3575
 IR Inten    --      5.8807                33.3720                26.1488

 - Thermochemistry -
 -------------------
 Temperature   298.150 Kelvin.  Pressure   1.00000 Atm.
 Atom     1 has atomic number  6 and mass  12.00000

 Molecular mass:   168.09727 amu.
 Principal axes and moments of inertia in atomic units:
                           1         2         3
     Eigenvalues --  1256.891023364.453113980.68128
           X            0.99972  -0.01898  -0.01402
           Y            0.01879   0.99974  -0.01303
           Z            0.01427   0.01277   0.99982
 This molecule is an asymmetric top.
 Rotational symmetry number  1.
 Warning -- assumption of classical behavior for rotation
           may cause significant error
 Rotational temperatures (Kelvin)      0.06891     0.02574     0.02176
 Rotational constants (GHZ):           1.43588     0.53641     0.45337
 Zero-point vibrational energy     629768.5 (Joules/Mol)
                                  150.51828 (Kcal/Mol)
 Warning -- explicit consideration of  16 degrees of freedom as
           vibrations may cause significant error
 Vibrational temperatures:     51.42    62.11   130.11   171.90   199.44
          (Kelvin)            233.26   292.71   435.16   446.12   505.00
                              510.63   561.98   617.81   651.92   665.49
                              823.50   925.18   975.51  1129.80  1205.52
                             1216.22  1227.64  1278.84  1322.75  1352.26
                             1386.56  1430.53  1481.41  1506.93  1516.79
                             1564.25  1608.90  1621.47  1666.06  1666.73
                             1697.43  1717.59  1749.01  1781.34  1824.57
                             1857.04  1893.85  1924.83  1967.83  1998.56
                             2004.23  2022.83  2027.45  2059.78  2075.50
                             2161.65  2164.24  2171.86  2177.88  2187.02
                             2187.62  2203.86  2212.70  2512.29  4316.17
                             4317.70  4355.53  4358.19  4362.98  4369.66
                             4380.34  4384.29  4396.69  4418.68  4436.36
                             4440.68  4454.08  4466.59  4491.63  4515.02

 Zero-point correction=                           0.239866 (Hartree/Particle)
 Thermal correction to Energy=                    0.251715
 Thermal correction to Enthalpy=                  0.252660
 Thermal correction to Gibbs Free Energy=         0.200732
 Sum of electronic and zero-point Energies=           -788.676542
 Sum of electronic and thermal Energies=              -788.664693
 Sum of electronic and thermal Enthalpies=            -788.663748
 Sum of electronic and thermal Free Energies=         -788.715675

                     E (Thermal)             CV                S
                      KCal/Mol        Cal/Mol-Kelvin    Cal/Mol-Kelvin
 Total                  157.954             44.048            109.290
 Electronic               0.000              0.000              0.000
 Translational            0.889              2.981             41.266
 Rotational               0.889              2.981             31.199
 Vibrational            156.176             38.087             36.825
 Vibration     1          0.594              1.982              5.482
 Vibration     2          0.595              1.980              5.108
 Vibration     3          0.602              1.956              3.651
 Vibration     4          0.609              1.933              3.109
 Vibration     5          0.614              1.915              2.823
 Vibration     6          0.622              1.889              2.525
 Vibration     7          0.639              1.835              2.102
 Vibration     8          0.694              1.669              1.403
 Vibration     9          0.699              1.655              1.362
 Vibration    10          0.728              1.573              1.162
 Vibration    11          0.731              1.565              1.144
 Vibration    12          0.758              1.490              0.998
 Vibration    13          0.791              1.406              0.861
 Vibration    14          0.812              1.354              0.786
 Vibration    15          0.820              1.333              0.759
 Vibration    16          0.929              1.091              0.500

                           ! Non-Optimized Parameters !
 Normal termination of Gaussian 16 at Tue Dec  8 19:34:24 2020.

 ----------------------------------------------------------------------
 # B3LYP/6-311++G(d,p) empiricaldispersion=gd3bj scf=xqc pop=npa geom=c
 heck
 ----------------------------------------------------------------------

 --------------------------------------
 CID_87599825_JID_1226_Energie_neutraal
 --------------------------------------
 Structure from the checkpoint file:  "JID_1226.chk"
 Charge =  0 Multiplicity = 1

 SCF Done:  E(RB3LYP) =  -789.046638143     A.U. after   15 cycles
 Normal termination of Gaussian 16 at Tue Dec  8 19:36:43 2020.

 ----------------------------------------------------------------------
 # B3LYP/6-311++G(d,p) empiricaldispersion=gd3bj scf=xqc pop=npa geom=c
 heck
 ----------------------------------------------------------------------

 ------------------------------------
 CID_87599825_JID_1226_Energie_kation
 ------------------------------------
 Structure from the checkpoint file:  "JID_1226.chk"
 Charge =  1 Multiplicity = 2

 SCF Done:  E(UB3LYP) =  -788.757305140     A.U. after   23 cycles
 Normal termination of Gaussian 16 at Tue Dec  8 19:41:21 2020.
 Gaussian 16:  ES64L-G16RevA.03 25-Dec-2016

 ----------------------------------------------------------------------
 # B3LYP/6-311++G(d,p) empiricaldispersion=gd3bj scf=xqc pop=npa geom=c
 heck
 ----------------------------------------------------------------------

 -----------------------------------
 CID_87599825_JID_1226_Energie_anion
 -----------------------------------
 Structure from the checkpoint file:  "JID_1226.chk"
 Charge = -1 Multiplicity = 2

                         Standard orientation:
 ---------------------------------------------------------------------
 Center     Atomic      Atomic             Coordinates (Angstroms)
 Number     Number       Type             X           Y           Z
 ---------------------------------------------------------------------
      1          6           0        1.478049    2.383942   -0.334136
      2          6           0        1.520303    0.897650   -0.082415
      3          6           0        0.614744    0.233736    0.659635
      4          6           0        0.719320   -1.256546    0.922801
      5          6           0        2.069653   -1.862157    0.530146
      6          6           0        2.515115   -1.324204   -0.829428
      7          6           0        2.682282    0.195011   -0.756301
      8          6           0       -0.608979    0.901360    1.257913
      9          6           0       -1.729471    1.218858    0.225390
     10          6           0       -2.142006    0.003927   -0.540401
     11         16           0       -3.585829   -0.744521   -0.461090
     12          1           0        2.471872    2.824116   -0.176786
     13          1           0        1.208138    2.599369   -1.377804
     14          1           0        0.773327    2.916656    0.308778
     15          1           0        0.523088   -1.440438    1.988345
     16          1           0       -0.093635   -1.776818    0.390796
     17          1           0        2.822256   -1.594367    1.284458
     18          1           0        2.003020   -2.956212    0.521054
     19          1           0        3.451368   -1.794071   -1.152508
     20          1           0        1.755953   -1.572563   -1.584235
     21          1           0        2.811467    0.610700   -1.765790
     22          1           0        3.611597    0.444049   -0.218945
     23          1           0       -1.039199    0.253895    2.030035
     24          1           0       -0.347235    1.843297    1.753421
     25          1           0       -2.593958    1.652627    0.736143
     26          1           0       -1.338281    1.956118   -0.489752
     27          1           0       -1.360569   -0.403487   -1.188986
 ---------------------------------------------------------------------

 SCF Done:  E(UB3LYP) =  -789.059992952     A.U. after   29 cycles

 The electronic state is 2-A.
 Alpha  occ. eigenvalues --  -88.61696 -10.06804 -10.06756 -10.06530 -10.05633
 Alpha  occ. eigenvalues --  -10.05607 -10.05519 -10.05439 -10.04006 -10.02329
 Alpha  occ. eigenvalues --  -10.00500  -7.70456  -5.66680  -5.66580  -5.66007
 Alpha  occ. eigenvalues --   -0.73615  -0.67319  -0.65581  -0.62513  -0.58298
 Alpha  occ. eigenvalues --   -0.56340  -0.51262  -0.49325  -0.47081  -0.39190
 Alpha  occ. eigenvalues --   -0.38124  -0.36324  -0.34573  -0.33476  -0.32654
 Alpha  occ. eigenvalues --   -0.30673  -0.29581  -0.28209  -0.27338  -0.27084
 Alpha  occ. eigenvalues --   -0.26416  -0.25290  -0.23101  -0.22498  -0.21965
 Alpha  occ. eigenvalues --   -0.21132  -0.18619  -0.17145  -0.12310  -0.10708
 Alpha  occ. eigenvalues --   -0.03215   0.04750
 Alpha virt. eigenvalues --    0.06747   0.07911   0.08844   0.09304   0.10473
 Alpha virt. eigenvalues --    0.10557   0.11240   0.11859   0.12415   0.13153
 Alpha virt. eigenvalues --    0.13856   0.13919   0.14330   0.15441   0.15733

  Beta  occ. eigenvalues --  -88.61563 -10.06803 -10.06750 -10.06527 -10.05626
  Beta  occ. eigenvalues --  -10.05591 -10.05510 -10.05440 -10.03926 -10.02390
  Beta  occ. eigenvalues --   -9.99672  -7.70336  -5.66631  -5.66139  -5.65930
  Beta  occ. eigenvalues --   -0.73598  -0.67184  -0.65482  -0.62013  -0.58001
  Beta  occ. eigenvalues --   -0.55911  -0.51176  -0.49237  -0.46922  -0.38878
  Beta  occ. eigenvalues --   -0.37622  -0.36121  -0.34531  -0.33279  -0.32584
  Beta  occ. eigenvalues --   -0.30595  -0.29389  -0.28054  -0.27165  -0.27034
  Beta  occ. eigenvalues --   -0.26352  -0.25081  -0.23041  -0.22235  -0.21760
  Beta  occ. eigenvalues --   -0.21006  -0.18483  -0.16456  -0.11650  -0.08251
  Beta  occ. eigenvalues --   -0.02902
  Beta virt. eigenvalues --    0.06716   0.07925   0.08744   0.09292   0.10435
  Beta virt. eigenvalues --    0.10506   0.11185   0.11791   0.12333   0.12979
  Beta virt. eigenvalues --    0.13286   0.13867   0.13966   0.14253   0.15464

 Mulliken charges and spin densities:
               1          2
     1  C    0.209721  -0.740978
     2  C   -0.301416   0.313836
     3  C    1.253725   0.052315
     4  C   -0.583339  -0.091942
     5  C   -0.215386  -0.124827
     6  C   -0.266030   0.038680
     7  C   -0.578315  -0.115909
     8  C   -0.784946   0.104315
     9  C   -0.154771  -0.222769
    10  C   -0.001918   0.539454
    11  S   -0.884633   0.356641
    12  H   -0.081563   0.202206
    13  H    0.136759   0.022366
    14  H   -0.026879   0.182779
    15  H    0.098288   0.031951
    16  H    0.191221  -0.002975
    17  H    0.078662   0.041154
    18  H    0.147546   0.003686
    19  H    0.109767   0.026116
    20  H    0.138112   0.000486
    21  H    0.102466   0.040092
    22  H    0.059992   0.076003
    23  H    0.143960  -0.051230
    24  H   -0.070432   0.230504
    25  H    0.074757   0.036167
    26  H    0.010810   0.082243
    27  H    0.193842  -0.030364
 Sum of Mulliken charges =  -1.00000   1.00000

 Dipole moment (field-independent basis, Debye):
    X=             10.1409    Y=             -0.0597    Z=              0.8371  Tot=             10.1755
 Quadrupole moment (field-independent basis, Debye-Ang):
   XX=           -141.1273   YY=            -97.5656   ZZ=            -90.0492
   XY=            -10.9104   XZ=             -7.0199   YZ=             -3.1321

 Summary of Natural Population Analysis:

                                       Natural Population
                Natural  -----------------------------------------------
    Atom  No    Charge         Core      Valence    Rydberg      Total
 -----------------------------------------------------------------------
      C    1   -0.29612      0.99963     2.28984    0.00665     3.29612
      C    2   -0.02704      0.99942     2.01856    0.00906     3.02704
      C    3   -0.00116      0.99943     1.99062    0.01111     3.00116
      C    4   -0.20303      0.99959     2.19341    0.01004     3.20303
      C    5   -0.18602      0.99964     2.17923    0.00715     3.18602
      C    6   -0.18794      0.99964     2.18079    0.00752     3.18794
      C    7   -0.19693      0.99960     2.18751    0.00982     3.19693
      C    8   -0.18984      0.99959     2.18050    0.00975     3.18984
      C    9   -0.22286      0.99959     2.21179    0.01148     3.22286
      C   10    0.01804      0.99969     1.96867    0.01361     2.98196
      S   11   -0.04009      4.99948     3.02095    0.01965     8.04009
      H   12    0.09567      0.00000     0.40337    0.00096     0.40433
      H   13    0.09991      0.00000     0.39907    0.00102     0.40009
      H   14    0.10644      0.00000     0.39267    0.00090     0.39356
      H   15    0.09848      0.00000     0.40048    0.00104     0.40152
      H   16    0.11315      0.00000     0.38583    0.00102     0.38685
      H   17    0.08970      0.00000     0.40904    0.00127     0.41030
      H   18    0.09473      0.00000     0.40433    0.00094     0.40527
      H   19    0.09227      0.00000     0.40664    0.00109     0.40773
      H   20    0.09652      0.00000     0.40226    0.00122     0.40348
      H   21    0.09648      0.00000     0.40249    0.00103     0.40352
      H   22    0.09395      0.00000     0.40482    0.00123     0.40605
      H   23    0.09786      0.00000     0.40091    0.00123     0.40214
      H   24    0.09791      0.00000     0.40074    0.00135     0.40209
      H   25    0.09869      0.00000     0.39885    0.00246     0.40131
      H   26    0.09909      0.00000     0.39934    0.00157     0.40091
      H   27    0.06214      0.00000     0.43549    0.00237     0.43786
 =======================================================================
   * Total *    0.00000     14.99529    30.86819    0.13652    46.00000

 Normal termination of Gaussian 16 at Tue Dec  8 19:47:26 2020.
