 Gaussian 16, Revision A.03,

 -----------------------------------------------------------
 # opt freq B3LYP/6-31G(d) empiricaldispersion=gd3bj scf=xqc
 -----------------------------------------------------------

 -----------------------------
 CID_91304845_JID_441_neutraal
 -----------------------------
 Symbolic Z-matrix:
 Charge =  0 Multiplicity = 1

 SCF Done:  E(RB3LYP) =  -452.416408574     A.U. after   15 cycles
 SCF Done:  E(RB3LYP) =  -452.422519448     A.U. after   13 cycles
 SCF Done:  E(RB3LYP) =  -452.424671098     A.U. after   12 cycles
 SCF Done:  E(RB3LYP) =  -452.425696815     A.U. after   12 cycles
 SCF Done:  E(RB3LYP) =  -452.426292670     A.U. after   11 cycles
 SCF Done:  E(RB3LYP) =  -452.427086616     A.U. after   12 cycles
 SCF Done:  E(RB3LYP) =  -452.427601992     A.U. after   12 cycles
 SCF Done:  E(RB3LYP) =  -452.427967035     A.U. after   12 cycles
 SCF Done:  E(RB3LYP) =  -452.428082568     A.U. after   11 cycles
 SCF Done:  E(RB3LYP) =  -452.428138814     A.U. after   10 cycles
 SCF Done:  E(RB3LYP) =  -452.428297732     A.U. after    8 cycles
 SCF Done:  E(RB3LYP) =  -452.428298363     A.U. after    8 cycles
 SCF Done:  E(RB3LYP) =  -452.428298746     A.U. after    8 cycles
 SCF Done:  E(RB3LYP) =  -452.428298886     A.U. after    7 cycles
 SCF Done:  E(RB3LYP) =  -452.428298979     A.U. after    7 cycles
 SCF Done:  E(RB3LYP) =  -452.428299019     A.U. after    7 cycles
 Optimization completed.
    -- Stationary point found.
 Normal termination of Gaussian 16 at Tue Dec  8 10:38:15 2020.

 --------------------------------------------------------------------
 #N Geom=AllCheck Guess=TCheck SCRF=Check GenChk RB3LYP/6-31G(d) Freq
 --------------------------------------------------------------------

 Structure from the checkpoint file:  "JID_441.chk"
 -----------------------------
 CID_91304845_JID_441_neutraal
 -----------------------------
 Charge =  0 Multiplicity = 1

 SCF Done:  E(RB3LYP) =  -452.428299019     A.U. after    1 cycles

  Exact polarizability: 124.044   4.764  90.368  -0.304   0.244  42.349
 Approx polarizability: 176.476  15.602 163.845   0.019   1.460  64.304

                      1                      2                      3
                      A                      A                      A
 Frequencies --    106.6035               124.9135               156.3769
 Red. masses --      1.9924                 1.0807                 1.4481
 Frc consts  --      0.0133                 0.0099                 0.0209
 IR Inten    --     13.6337                 0.0569                15.8807

                      4                      5                      6
                      A                      A                      A
 Frequencies --    199.3077               223.0524               255.5510
 Red. masses --      3.6992                 3.4062                 3.8792
 Frc consts  --      0.0866                 0.0998                 0.1493
 IR Inten    --      1.3694                 5.9559                 1.9254

                      7                      8                      9
                      A                      A                      A
 Frequencies --    334.0617               374.4513               534.4328
 Red. masses --      3.0616                 4.6049                 2.2786
 Frc consts  --      0.2013                 0.3804                 0.3835
 IR Inten    --      2.2399                 2.2837                69.8299

                     10                     11                     12
                      A                      A                      A
 Frequencies --    557.6673               581.9290               613.2065
 Red. masses --      3.6402                 3.4957                 3.8818
 Frc consts  --      0.6670                 0.6975                 0.8600
 IR Inten    --     10.0218                 0.5914                10.5106

                     13                     14                     15
                      A                      A                      A
 Frequencies --    642.1885               696.7776               729.7751
 Red. masses --      4.9333                 2.6876                 5.8300
 Frc consts  --      1.1987                 0.7688                 1.8294
 IR Inten    --     29.2920                88.2510                12.1663

                     16                     17                     18
                      A                      A                      A
 Frequencies --    791.8791               810.2961               813.9265
 Red. masses --      2.3724                 1.3268                 1.3841
 Frc consts  --      0.8765                 0.5133                 0.5403
 IR Inten    --     46.9327                 2.8195                30.8466

                     19                     20                     21
                      A                      A                      A
 Frequencies --    838.8981               851.7532               983.5017
 Red. masses --      2.3324                 3.4049                 2.2918
 Frc consts  --      0.9671                 1.4554                 1.3061
 IR Inten    --    124.5682                 9.4153                 0.8762

                     22                     23                     24
                      A                      A                      A
 Frequencies --   1027.4161              1077.4446              1102.1918
 Red. masses --      1.8714                 1.4598                 2.7054
 Frc consts  --      1.1639                 0.9985                 1.9364
 IR Inten    --      3.5582                 6.4991                10.7926

                     25                     26                     27
                      A                      A                      A
 Frequencies --   1158.1294              1183.1011              1217.4154
 Red. masses --      1.6571                 1.9981                 3.2301
 Frc consts  --      1.3095                 1.6478                 2.8206
 IR Inten    --      2.5515                 5.3647                19.5693

                     28                     29                     30
                      A                      A                      A
 Frequencies --   1258.1564              1302.8725              1323.2248
 Red. masses --      2.3503                 2.0886                 2.2406
 Frc consts  --      2.1920                 2.0889                 2.3115
 IR Inten    --      8.0451                 7.5839                 4.3645

                     31                     32                     33
                      A                      A                      A
 Frequencies --   1384.7971              1439.4881              1447.4066
 Red. masses --      4.3692                 1.9156                 1.4576
 Frc consts  --      4.9365                 2.3387                 1.7992
 IR Inten    --     17.6565                20.6273                13.1793

                     34                     35                     36
                      A                      A                      A
 Frequencies --   1462.7838              1506.5125              1520.7522
 Red. masses --      5.2239                 1.0462                 1.1125
 Frc consts  --      6.5857                 1.3990                 1.5158
 IR Inten    --      7.6369                 8.8523                 4.0221

                     37                     38                     39
                      A                      A                      A
 Frequencies --   1562.6720              1605.9738              1659.2001
 Red. masses --      7.0821                 6.1771                 6.0674
 Frc consts  --     10.1894                 9.3867                 9.8412
 IR Inten    --     21.7546                27.9357                29.7918

                     40                     41                     42
                      A                      A                      A
 Frequencies --   1690.3236              3035.7434              3086.7757
 Red. masses --      1.1260                 1.0427                 1.0973
 Frc consts  --      1.8955                 5.6617                 6.1603
 IR Inten    --     22.1431                46.7931                19.1802

                     43                     44                     45
                      A                      A                      A
 Frequencies --   3146.5036              3240.2171              3286.3181
 Red. masses --      1.0982                 1.0954                 1.0971
 Frc consts  --      6.4062                 6.7759                 6.9807
 IR Inten    --      9.2225                16.3522                 2.5639

                     46                     47                     48
                      A                      A                      A
 Frequencies --   3466.8127              3519.3758              3575.7822
 Red. masses --      1.0547                 1.0765                 1.0878
 Frc consts  --      7.4686                 7.8557                 8.1945
 IR Inten    --      2.0486                14.0910                 9.5332

 - Thermochemistry -
 -------------------
 Temperature   298.150 Kelvin.  Pressure   1.00000 Atm.
 Atom     1 has atomic number  6 and mass  12.00000

 Molecular mass:   136.07490 amu.
 Principal axes and moments of inertia in atomic units:
                           1         2         3
     Eigenvalues --   615.088391650.286962242.81284
           X            0.99997  -0.00694  -0.00209
           Y            0.00694   0.99998  -0.00033
           Z            0.00210   0.00031   1.00000
 This molecule is an asymmetric top.
 Rotational symmetry number  1.
 Warning -- assumption of classical behavior for rotation
           may cause significant error
 Rotational temperatures (Kelvin)      0.14082     0.05248     0.03862
 Rotational constants (GHZ):           2.93412     1.09359     0.80468
 Zero-point vibrational energy     379861.8 (Joules/Mol)
                                   90.78916 (Kcal/Mol)
 Warning -- explicit consideration of  12 degrees of freedom as
           vibrations may cause significant error
 Vibrational temperatures:    153.38   179.72   224.99   286.76   320.92
          (Kelvin)            367.68   480.64   538.75   768.93   802.36
                              837.27   882.27   923.97  1002.51  1049.98
                             1139.34  1165.84  1171.06  1206.99  1225.48
                             1415.04  1478.22  1550.20  1585.81  1666.29
                             1702.22  1751.59  1810.21  1874.54  1903.83
                             1992.41  2071.10  2082.50  2104.62  2167.54
                             2188.02  2248.34  2310.64  2387.22  2432.00
                             4367.76  4441.18  4527.12  4661.95  4728.28
                             4987.97  5063.60  5144.75

 Zero-point correction=                           0.144682 (Hartree/Particle)
 Thermal correction to Energy=                    0.153521
 Thermal correction to Enthalpy=                  0.154465
 Thermal correction to Gibbs Free Energy=         0.111019
 Sum of electronic and zero-point Energies=           -452.283617
 Sum of electronic and thermal Energies=              -452.274778
 Sum of electronic and thermal Enthalpies=            -452.273834
 Sum of electronic and thermal Free Energies=         -452.317280

                     E (Thermal)             CV                S
                      KCal/Mol        Cal/Mol-Kelvin    Cal/Mol-Kelvin
 Total                   96.336             33.403             91.440
 Electronic               0.000              0.000              0.000
 Translational            0.889              2.981             40.636
 Rotational               0.889              2.981             29.211
 Vibrational             94.558             27.441             21.593
 Vibration     1          0.605              1.944              3.330
 Vibration     2          0.610              1.928              3.023
 Vibration     3          0.620              1.896              2.593
 Vibration     4          0.637              1.841              2.139
 Vibration     5          0.649              1.806              1.934
 Vibration     6          0.666              1.753              1.692
 Vibration     7          0.716              1.607              1.240
 Vibration     8          0.746              1.525              1.062
 Vibration     9          0.889              1.174              0.577
 Vibration    10          0.913              1.123              0.529
 Vibration    11          0.939              1.070              0.482
 Vibration    12          0.973              1.004              0.427

 Optimization completed.
    -- Stationary point found.
 Normal termination of Gaussian 16 at Tue Dec  8 10:41:41 2020.

 ----------------------------------------------------------------------
 # B3LYP/6-311++G(d,p) empiricaldispersion=gd3bj scf=xqc pop=npa geom=c
 heck
 ----------------------------------------------------------------------

 -------------------------------------
 CID_91304845_JID_441_Energie_neutraal
 -------------------------------------
 Structure from the checkpoint file:  "JID_441.chk"
 Charge =  0 Multiplicity = 1

 SCF Done:  E(RB3LYP) =  -452.559618291     A.U. after   15 cycles
 Normal termination of Gaussian 16 at Tue Dec  8 10:44:27 2020.

 ----------------------------------------------------------------------
 # B3LYP/6-311++G(d,p) empiricaldispersion=gd3bj scf=xqc pop=npa geom=c
 heck
 ----------------------------------------------------------------------

 -----------------------------------
 CID_91304845_JID_441_Energie_kation
 -----------------------------------
 Structure from the checkpoint file:  "JID_441.chk"
 Charge =  1 Multiplicity = 2

 SCF Done:  E(UB3LYP) =  -452.291303410     A.U. after   20 cycles
 Normal termination of Gaussian 16 at Tue Dec  8 10:47:58 2020.
 Gaussian 16:  ES64L-G16RevA.03 25-Dec-2016

 ----------------------------------------------------------------------
 # B3LYP/6-311++G(d,p) empiricaldispersion=gd3bj scf=xqc pop=npa geom=c
 heck
 ----------------------------------------------------------------------

 ----------------------------------
 CID_91304845_JID_441_Energie_anion
 ----------------------------------
 Structure from the checkpoint file:  "JID_441.chk"
 Charge = -1 Multiplicity = 2

                         Standard orientation:
 ---------------------------------------------------------------------
 Center     Atomic      Atomic             Coordinates (Angstroms)
 Number     Number       Type             X           Y           Z
 ---------------------------------------------------------------------
      1          6           0       -3.282629   -0.565060   -0.014006
      2          6           0       -1.876550   -0.068544   -0.012874
      3          6           0       -1.378837    1.200982    0.000999
      4          6           0        0.056815    1.095695    0.040538
      5          7           0        1.172894    1.813580   -0.006812
      6          6           0        2.178119    0.872321   -0.035720
      7          6           0        1.697952   -0.431743   -0.018532
      8          7           0        0.330903   -0.250681    0.074189
      9          7           0       -0.817821   -1.010233   -0.079080
     10          7           0        2.260959   -1.721237    0.039222
     11          1           0       -3.498438   -1.183648    0.868031
     12          1           0       -3.493236   -1.173848   -0.901654
     13          1           0       -3.975629    0.279747   -0.004535
     14          1           0       -1.955604    2.113059   -0.032891
     15          1           0        3.220201    1.167313   -0.047954
     16          1           0       -0.849158   -1.809908    0.550149
     17          1           0        2.388493   -2.129037   -0.886249
     18          1           0        3.165609   -1.705583    0.500046
 ---------------------------------------------------------------------

 SCF Done:  E(UB3LYP) =  -452.550425936     A.U. after   31 cycles

 The electronic state is 2-A.
 Alpha  occ. eigenvalues --  -14.28194 -14.27587 -14.20942 -14.17809 -10.12079
 Alpha  occ. eigenvalues --  -10.11886 -10.11409 -10.07570 -10.07337 -10.07076
 Alpha  occ. eigenvalues --   -0.96679  -0.84631  -0.79774  -0.72609  -0.68267
 Alpha  occ. eigenvalues --   -0.64466  -0.57731  -0.50789  -0.49362  -0.46654
 Alpha  occ. eigenvalues --   -0.42831  -0.39787  -0.38071  -0.35654  -0.33807
 Alpha  occ. eigenvalues --   -0.33561  -0.32311  -0.31856  -0.29553  -0.27795
 Alpha  occ. eigenvalues --   -0.24487  -0.20323  -0.18002  -0.15242  -0.13395
 Alpha  occ. eigenvalues --   -0.08822   0.04255
 Alpha virt. eigenvalues --    0.06269   0.08243   0.08883   0.09562   0.10099
 Alpha virt. eigenvalues --    0.10553   0.11347   0.12376   0.13820   0.14754
 Alpha virt. eigenvalues --    0.14848   0.15943   0.16084   0.17103   0.18020

  Beta  occ. eigenvalues --  -14.28189 -14.27532 -14.20870 -14.17807 -10.12076
  Beta  occ. eigenvalues --  -10.11883 -10.11410 -10.07506 -10.07333 -10.07067
  Beta  occ. eigenvalues --   -0.96649  -0.84595  -0.79688  -0.72570  -0.68212
  Beta  occ. eigenvalues --   -0.64399  -0.57676  -0.50737  -0.49318  -0.46596
  Beta  occ. eigenvalues --   -0.42745  -0.39719  -0.38027  -0.35621  -0.33757
  Beta  occ. eigenvalues --   -0.33504  -0.32286  -0.31803  -0.29495  -0.27756
  Beta  occ. eigenvalues --   -0.24451  -0.20286  -0.17976  -0.15208  -0.13372
  Beta  occ. eigenvalues --   -0.08793
  Beta virt. eigenvalues --    0.07012   0.07602   0.08984   0.09324   0.10043
  Beta virt. eigenvalues --    0.10826   0.11226   0.11980   0.13199   0.14040
  Beta virt. eigenvalues --    0.14880   0.15008   0.15913   0.16378   0.17087

 Mulliken charges and spin densities:
               1          2
     1  C    2.663402  -3.334506
     2  C   -1.342525   1.046795
     3  C   -0.468319   0.755012
     4  C    0.629133  -1.050567
     5  N   -0.233473   0.039432
     6  C    0.959290  -0.876561
     7  C   -0.089677  -0.068174
     8  N    0.017600   0.136387
     9  N    0.070480  -0.122551
    10  N   -0.682894   0.291426
    11  H   -0.599493   0.768142
    12  H   -0.383289   0.550078
    13  H   -0.408192   0.575686
    14  H   -0.098248   0.264158
    15  H    0.025994   0.129546
    16  H   -0.348266   0.667247
    17  H   -0.324346   0.589646
    18  H   -0.387176   0.638805
 Sum of Mulliken charges =  -1.00000   1.00000

 Dipole moment (field-independent basis, Debye):
    X=              0.8593    Y=              3.8984    Z=             -0.8379  Tot=              4.0789
 Quadrupole moment (field-independent basis, Debye-Ang):
   XX=           -118.5645   YY=           -103.6794   ZZ=            -82.8499
   XY=             -1.1240   XZ=              2.8810   YZ=              1.8100

 Summary of Natural Population Analysis:

                                       Natural Population
                Natural  -----------------------------------------------
    Atom  No    Charge         Core      Valence    Rydberg      Total
 -----------------------------------------------------------------------
      C    1   -0.30352      0.99962     2.29779    0.00610     3.30352
      C    2    0.09328      0.99954     1.89518    0.01200     2.90672
      C    3   -0.15476      0.99944     2.14579    0.00953     3.15476
      C    4    0.17062      0.99959     1.81156    0.01823     2.82938
      N    5   -0.27121      0.99970     2.76188    0.00963     3.77121
      C    6   -0.04373      0.99953     2.02919    0.01501     3.04373
      C    7    0.12904      0.99950     1.85629    0.01518     2.87096
      N    8   -0.11602      0.99954     2.60356    0.01292     3.61602
      N    9   -0.19762      0.99967     2.68431    0.01365     3.69762
      N   10   -0.41487      0.99974     2.90497    0.01015     3.91487
      H   11    0.11119      0.00000     0.38507    0.00375     0.38881
      H   12    0.10954      0.00000     0.38886    0.00160     0.39046
      H   13    0.10971      0.00000     0.38891    0.00138     0.39029
      H   14    0.11094      0.00000     0.38812    0.00094     0.38906
      H   15    0.09297      0.00000     0.40591    0.00113     0.40703
      H   16    0.20179      0.00000     0.29211    0.00609     0.29821
      H   17    0.18511      0.00000     0.30966    0.00523     0.31489
      H   18    0.18754      0.00000     0.30782    0.00464     0.31246
 =======================================================================
   * Total *   -0.00000      9.99588    25.85698    0.14714    36.00000

 Normal termination of Gaussian 16 at Tue Dec  8 10:54:51 2020.
