 Gaussian 16, Revision A.03,

 -----------------------------------------------------------
 # opt freq B3LYP/6-31G(d) empiricaldispersion=gd3bj scf=xqc
 -----------------------------------------------------------

 -------------------------------
 CID_134892542_JID_1367_neutraal
 -------------------------------
 Symbolic Z-matrix:
 Charge =  0 Multiplicity = 1

 SCF Done:  E(RB3LYP) =  -503.076606480     A.U. after   14 cycles
 SCF Done:  E(RB3LYP) =  -503.079561018     A.U. after   12 cycles
 SCF Done:  E(RB3LYP) =  -503.079423996     A.U. after   12 cycles
 SCF Done:  E(RB3LYP) =  -503.079954084     A.U. after   12 cycles
 SCF Done:  E(RB3LYP) =  -503.080178569     A.U. after   11 cycles
 SCF Done:  E(RB3LYP) =  -503.080213550     A.U. after   10 cycles
 SCF Done:  E(RB3LYP) =  -503.080227357     A.U. after   10 cycles
 SCF Done:  E(RB3LYP) =  -503.080235364     A.U. after    9 cycles
 SCF Done:  E(RB3LYP) =  -503.080236717     A.U. after    8 cycles
 SCF Done:  E(RB3LYP) =  -503.080236939     A.U. after    7 cycles
 SCF Done:  E(RB3LYP) =  -503.080236978     A.U. after    7 cycles
 Optimization completed.
    -- Stationary point found.

 1\1\GINC-NODE308\FOpt\RB3LYP\6-31G(d)\C9H16O2\VSC10255\08-Dec-2020\0\\
 # opt freq B3LYP/6-31G(d) empiricaldispersion=gd3bj scf=xqc\\CID_13489
 2542_JID_1367_neutraal\\0,1\C,0.9549931528,-0.0649251706,0.0663797848\
 C,0.5370883995,-1.2690698625,0.9157804943\C,0.574838694,-1.0541968154,
 2.4385487725\C,-0.1819163275,0.1235571496,3.0675376493\C,-1.6506228096
 ,0.5508517406,2.7803575893\O,-1.1682989517,1.89791763,2.3962652695\C,0
 .1421093876,1.5464830032,2.6112596798\O,1.1165822824,2.2271321841,2.47
 23733741\C,-2.4859683599,-0.0698254698,1.6786849786\C,-2.9721279606,-1

 Normal termination of Gaussian 16 at Tue Dec  8 19:48:15 2020.

 --------------------------------------------------------------------
 #N Geom=AllCheck Guess=TCheck SCRF=Check GenChk RB3LYP/6-31G(d) Freq
 --------------------------------------------------------------------

 Structure from the checkpoint file:  "JID_1367.chk"
 -------------------------------
 CID_134892542_JID_1367_neutraal
 -------------------------------
 Charge =  0 Multiplicity = 1

 SCF Done:  E(RB3LYP) =  -503.080236978     A.U. after    1 cycles

  Exact polarizability: 112.063  -0.473  89.753  -0.843   0.494  84.519
 Approx polarizability: 152.106   1.877 124.847  -3.742   4.107 125.266

                      1                      2                      3
                      A                      A                      A
 Frequencies --     52.4272                73.5942                90.3144
 Red. masses --      2.7109                 3.9537                 3.1986
 Frc consts  --      0.0044                 0.0126                 0.0154
 IR Inten    --      0.6390                 0.4381                 0.1508

                      4                      5                      6
                      A                      A                      A
 Frequencies --    117.2918               142.7439               183.9611
 Red. masses --      2.0912                 3.8065                 3.1133
 Frc consts  --      0.0170                 0.0457                 0.0621
 IR Inten    --      0.6257                 3.1326                 0.6210

                      7                      8                      9
                      A                      A                      A
 Frequencies --    203.8929               222.4245               247.4930
 Red. masses --      2.9363                 1.6674                 1.4124
 Frc consts  --      0.0719                 0.0486                 0.0510
 IR Inten    --      1.4177                 0.9745                 0.0631

                     10                     11                     12
                      A                      A                      A
 Frequencies --    290.6901               310.2718               346.7268
 Red. masses --      1.4021                 1.8534                 3.4443
 Frc consts  --      0.0698                 0.1051                 0.2440
 IR Inten    --      0.6255                 0.2408                 2.0841

                     13                     14                     15
                      A                      A                      A
 Frequencies --    419.5859               444.7866               500.5638
 Red. masses --      2.2301                 2.7512                 3.8474
 Frc consts  --      0.2313                 0.3207                 0.5680
 IR Inten    --      1.7276                 0.6137                 4.0034

                     16                     17                     18
                      A                      A                      A
 Frequencies --    597.0977               654.9944               718.3801
 Red. masses --      3.5569                 2.9255                 1.8610
 Frc consts  --      0.7472                 0.7395                 0.5658
 IR Inten    --      4.2464                 1.4806                 3.0899

                     19                     20                     21
                      A                      A                      A
 Frequencies --    775.4285               794.6673               802.5587
 Red. masses --      2.1784                 3.9525                 1.5450
 Frc consts  --      0.7718                 1.4706                 0.5863
 IR Inten    --      2.2919                 7.9381                 5.1847

                     22                     23                     24
                      A                      A                      A
 Frequencies --    831.3258               883.9801               899.5846
 Red. masses --      1.5415                 2.5244                 2.3831
 Frc consts  --      0.6277                 1.1622                 1.1363
 IR Inten    --      2.0088                 0.9074                12.5387

                     25                     26                     27
                      A                      A                      A
 Frequencies --    911.4230               931.5227               957.1689
 Red. masses --      1.8937                 2.3393                 1.9284
 Frc consts  --      0.9268                 1.1960                 1.0409
 IR Inten    --     13.4803                51.7353                22.9279

                     28                     29                     30
                      A                      A                      A
 Frequencies --   1035.8160              1056.4808              1088.6160
 Red. masses --      1.9339                 1.8216                 1.8548
 Frc consts  --      1.2225                 1.1979                 1.2951
 IR Inten    --     19.4181                 1.2189                11.2881

                     31                     32                     33
                      A                      A                      A
 Frequencies --   1104.6059              1110.8828              1127.4458
 Red. masses --      1.8271                 1.6311                 1.7187
 Frc consts  --      1.3135                 1.1859                 1.2872
 IR Inten    --     11.2998                11.2009                13.5241

                     34                     35                     36
                      A                      A                      A
 Frequencies --   1144.7934              1184.3895              1197.2730
 Red. masses --      2.8221                 1.9007                 2.0049
 Frc consts  --      2.1791                 1.5709                 1.6933
 IR Inten    --     76.7607                14.5082                 4.2478

                     37                     38                     39
                      A                      A                      A
 Frequencies --   1226.5207              1261.8984              1293.1820
 Red. masses --      1.5698                 1.4290                 1.2765
 Frc consts  --      1.3914                 1.3407                 1.2577
 IR Inten    --      0.8217                 1.6363                 2.4799

                     40                     41                     42
                      A                      A                      A
 Frequencies --   1305.9086              1326.1424              1333.6112
 Red. masses --      1.3472                 1.3900                 1.3907
 Frc consts  --      1.3536                 1.4403                 1.4573
 IR Inten    --      4.7091                 0.1061                16.9308

                     43                     44                     45
                      A                      A                      A
 Frequencies --   1366.3314              1380.2251              1398.3750
 Red. masses --      1.4020                 1.3213                 1.4419
 Frc consts  --      1.5421                 1.4830                 1.6612
 IR Inten    --      5.3654                14.6469                 5.2275

                     46                     47                     48
                      A                      A                      A
 Frequencies --   1407.7912              1425.8051              1442.8809
 Red. masses --      1.3534                 1.4128                 1.3759
 Frc consts  --      1.5804                 1.6922                 1.6878
 IR Inten    --      4.9613                 0.4394                11.4152

                     49                     50                     51
                      A                      A                      A
 Frequencies --   1446.7680              1454.6106              1505.3073
 Red. masses --      1.3088                 1.2686                 1.0802
 Frc consts  --      1.6140                 1.5816                 1.4421
 IR Inten    --      2.1717                 5.4084                 3.7888

                     52                     53                     54
                      A                      A                      A
 Frequencies --   1515.5640              1521.4936              1528.4676
 Red. masses --      1.0806                 1.0587                 1.0536
 Frc consts  --      1.4624                 1.4440                 1.4502
 IR Inten    --      2.0978                 0.9046                 4.6753

                     55                     56                     57
                      A                      A                      A
 Frequencies --   1532.4417              1539.0887              1539.1734
 Red. masses --      1.0561                 1.0473                 1.0669
 Frc consts  --      1.4613                 1.4617                 1.4891
 IR Inten    --     11.7385                 1.7455                 5.5640

                     58                     59                     60
                      A                      A                      A
 Frequencies --   1547.7299              1931.8800              3033.2046
 Red. masses --      1.0798                12.7158                 1.0633
 Frc consts  --      1.5239                27.9610                 5.7639
 IR Inten    --      9.1429               408.3323                11.5046

                     61                     62                     63
                      A                      A                      A
 Frequencies --   3046.9442              3047.3413              3048.5530
 Red. masses --      1.0636                 1.0452                 1.0680
 Frc consts  --      5.8180                 5.7184                 5.8482
 IR Inten    --     21.9840                 9.7153                29.5549

                     64                     65                     66
                      A                      A                      A
 Frequencies --   3051.1989              3058.2722              3059.8242
 Red. masses --      1.0592                 1.0428                 1.0766
 Frc consts  --      5.8101                 5.7465                 5.9387
 IR Inten    --     29.2961                20.6080                10.2378

                     67                     68                     69
                      A                      A                      A
 Frequencies --   3069.0845              3080.5630              3091.8431
 Red. masses --      1.1006                 1.1011                 1.0951
 Frc consts  --      6.1082                 6.1565                 6.1677
 IR Inten    --     17.0298                22.1171                23.0379

                     70                     71                     72
                      A                      A                      A
 Frequencies --   3094.8370              3115.6800              3118.7646
 Red. masses --      1.0871                 1.1021                 1.1005
 Frc consts  --      6.1348                 6.3037                 6.3069
 IR Inten    --     44.8528                49.0058                35.1694

                     73                     74                     75
                      A                      A                      A
 Frequencies --   3122.0085              3124.0305              3133.7570
 Red. masses --      1.1006                 1.0954                 1.1017
 Frc consts  --      6.3202                 6.2988                 6.3745
 IR Inten    --     69.2941                19.5099                28.5614

 - Thermochemistry -
 -------------------
 Temperature   298.150 Kelvin.  Pressure   1.00000 Atm.
 Atom     1 has atomic number  6 and mass  12.00000

 Molecular mass:   156.11503 amu.
 Principal axes and moments of inertia in atomic units:
                           1         2         3
     Eigenvalues --  1216.430942265.199182841.16228
           X            0.99867  -0.05088   0.00785
           Y            0.05104   0.99845  -0.02200
           Z           -0.00672   0.02237   0.99973
 This molecule is an asymmetric top.
 Rotational symmetry number  1.
 Warning -- assumption of classical behavior for rotation
           may cause significant error
 Rotational temperatures (Kelvin)      0.07120     0.03824     0.03049
 Rotational constants (GHZ):           1.48364     0.79673     0.63521
 Zero-point vibrational energy     633915.0 (Joules/Mol)
                                  151.50931 (Kcal/Mol)
 Warning -- explicit consideration of  16 degrees of freedom as
           vibrations may cause significant error
 Vibrational temperatures:     75.43   105.89   129.94   168.76   205.38
          (Kelvin)            264.68   293.36   320.02   356.09   418.24
                              446.41   498.86   603.69   639.95   720.20
                              859.09   942.39  1033.59  1115.67  1143.35
                             1154.70  1196.09  1271.85  1294.30  1311.33
                             1340.25  1377.15  1490.31  1520.04  1566.28
                             1589.28  1598.31  1622.14  1647.10  1704.07
                             1722.61  1764.69  1815.59  1860.60  1878.91
                             1908.02  1918.77  1965.85  1985.84  2011.95
                             2025.50  2051.42  2075.98  2081.58  2092.86
                             2165.80  2180.56  2189.09  2199.12  2204.84
                             2214.41  2214.53  2226.84  2779.54  4364.10
                             4383.87  4384.44  4386.19  4389.99  4400.17
                             4402.40  4415.73  4432.24  4448.47  4452.78
                             4482.77  4487.21  4491.87  4494.78  4508.78

 Zero-point correction=                           0.241445 (Hartree/Particle)
 Thermal correction to Energy=                    0.253494
 Thermal correction to Enthalpy=                  0.254438
 Thermal correction to Gibbs Free Energy=         0.203223
 Sum of electronic and zero-point Energies=           -502.838792
 Sum of electronic and thermal Energies=              -502.826743
 Sum of electronic and thermal Enthalpies=            -502.825799
 Sum of electronic and thermal Free Energies=         -502.877014

                     E (Thermal)             CV                S
                      KCal/Mol        Cal/Mol-Kelvin    Cal/Mol-Kelvin
 Total                  159.070             44.400            107.791
 Electronic               0.000              0.000              0.000
 Translational            0.889              2.981             41.046
 Rotational               0.889              2.981             30.438
 Vibrational            157.292             38.439             36.307
 Vibration     1          0.596              1.977              4.724
 Vibration     2          0.599              1.966              4.055
 Vibration     3          0.602              1.956              3.653
 Vibration     4          0.608              1.935              3.145
 Vibration     5          0.616              1.910              2.767
 Vibration     6          0.631              1.862              2.288
 Vibration     7          0.640              1.834              2.098
 Vibration     8          0.648              1.807              1.939
 Vibration     9          0.661              1.767              1.748
 Vibration    10          0.687              1.691              1.470
 Vibration    11          0.699              1.654              1.361
 Vibration    12          0.725              1.582              1.181
 Vibration    13          0.782              1.428              0.893
 Vibration    14          0.804              1.372              0.812
 Vibration    15          0.856              1.249              0.657
 Vibration    16          0.955              1.038              0.455

                           ! Non-Optimized Parameters !

 1\1\GINC-NODE308\Freq\RB3LYP\6-31G(d)\C9H16O2\VSC10255\08-Dec-2020\0\\
 #N Geom=AllCheck Guess=TCheck SCRF=Check GenChk RB3LYP/6-31G(d) Freq\\
 CID_134892542_JID_1367_neutraal\\0,1\C,0.9549931528,-0.0649251706,0.06
 63797848\C,0.5370883995,-1.2690698625,0.9157804943\C,0.574838694,-1.05
 41968154,2.4385487725\C,-0.1819163275,0.1235571496,3.0675376493\C,-1.6
 506228096,0.5508517406,2.7803575893\O,-1.1682989517,1.89791763,2.39626
 52695\C,0.1421093876,1.5464830032,2.6112596798\O,1.1165822824,2.227132
 1841,2.4723733741\C,-2.4859683599,-0.0698254698,1.6786849786\C,-2.9721

 Normal termination of Gaussian 16 at Tue Dec  8 19:54:10 2020.

 ----------------------------------------------------------------------
 # B3LYP/6-311++G(d,p) empiricaldispersion=gd3bj scf=xqc pop=npa geom=c
 heck
 ----------------------------------------------------------------------

 ---------------------------------------
 CID_134892542_JID_1367_Energie_neutraal
 ---------------------------------------
 Structure from the checkpoint file:  "JID_1367.chk"
 Charge =  0 Multiplicity = 1

 SCF Done:  E(RB3LYP) =  -503.225219358     A.U. after   13 cycles
 Normal termination of Gaussian 16 at Tue Dec  8 19:56:07 2020.

 ----------------------------------------------------------------------
 # B3LYP/6-311++G(d,p) empiricaldispersion=gd3bj scf=xqc pop=npa geom=c
 heck
 ----------------------------------------------------------------------

 -------------------------------------
 CID_134892542_JID_1367_Energie_kation
 -------------------------------------
 Structure from the checkpoint file:  "JID_1367.chk"
 Charge =  1 Multiplicity = 2

 SCF Done:  E(UB3LYP) =  -502.863914351     A.U. after   26 cycles
 Normal termination of Gaussian 16 at Tue Dec  8 20:01:15 2020.
 Gaussian 16:  ES64L-G16RevA.03 25-Dec-2016

 ------------------------------------
 CID_134892542_JID_1367_Energie_anion
 ------------------------------------
 Structure from the checkpoint file:  "JID_1367.chk"
 Charge = -1 Multiplicity = 2

                         Standard orientation:
 ---------------------------------------------------------------------
 Center     Atomic      Atomic             Coordinates (Angstroms)
 Number     Number       Type             X           Y           Z
 ---------------------------------------------------------------------
      1          6           0       -1.980619    1.637895   -0.949469
      2          6           0       -0.925468    2.033293    0.088033
      3          6           0       -0.748276    1.055705    1.262487
      4          6           0       -0.463753   -0.427855    0.991364
      5          6           0        0.588354   -1.012399    0.004687
      6          8           0       -0.492467   -1.754048   -0.685627
      7          6           0       -1.452206   -1.234259    0.148410
      8          8           0       -2.630753   -1.441256    0.129695
      9          6           0        1.371824   -0.151139   -0.965433
     10          6           0        2.475816    0.684088   -0.297446
     11          6           0        3.572207   -0.148328    0.376620
     12          1           0       -1.673417    0.768987   -1.540116
     13          1           0       -2.155257    2.462680   -1.649013
     14          1           0       -2.933954    1.385061   -0.474160
     15          1           0        0.034910    2.207086   -0.409140
     16          1           0       -1.205308    2.999291    0.528373
     17          1           0        0.039482    1.438693    1.923633
     18          1           0       -1.671332    1.066600    1.857944
     19          1           0       -0.365834   -0.918618    1.967763
     20          1           0        1.243075   -1.744618    0.485054
     21          1           0        1.822555   -0.822571   -1.708531
     22          1           0        0.683044    0.497065   -1.513946
     23          1           0        2.930030    1.321866   -1.065612
     24          1           0        2.030360    1.365403    0.438244
     25          1           0        4.018507   -0.858635   -0.329753
     26          1           0        4.373856    0.495136    0.754427
     27          1           0        3.187778   -0.722999    1.226768
 ---------------------------------------------------------------------

 SCF Done:  E(UB3LYP) =  -503.215357629     A.U. after   31 cycles

 The electronic state is 2-A.
 Alpha  occ. eigenvalues --  -19.05881 -19.01619 -10.19582 -10.13571 -10.09282
 Alpha  occ. eigenvalues --  -10.07565 -10.07416 -10.06991 -10.06898 -10.06151
 Alpha  occ. eigenvalues --  -10.05486  -1.00471  -0.93427  -0.71765  -0.69507
 Alpha  occ. eigenvalues --   -0.65448  -0.61695  -0.57770  -0.54005  -0.49643
 Alpha  occ. eigenvalues --   -0.47787  -0.42013  -0.41264  -0.39920  -0.37233
 Alpha  occ. eigenvalues --   -0.35307  -0.34879  -0.33714  -0.33047  -0.31090
 Alpha  occ. eigenvalues --   -0.30397  -0.29978  -0.28641  -0.27936  -0.25970
 Alpha  occ. eigenvalues --   -0.24831  -0.24423  -0.23835  -0.23655  -0.23113
 Alpha  occ. eigenvalues --   -0.21486  -0.19706  -0.17562   0.04366
 Alpha virt. eigenvalues --    0.07025   0.07158   0.08410   0.09300   0.09661
 Alpha virt. eigenvalues --    0.10021   0.10499   0.10973   0.11792   0.12561
 Alpha virt. eigenvalues --    0.12713   0.13114   0.13636   0.13850   0.15391

  Beta  occ. eigenvalues --  -19.05860 -19.01603 -10.19554 -10.13553 -10.09268
  Beta  occ. eigenvalues --  -10.07529 -10.07408 -10.06973 -10.06870 -10.06141
  Beta  occ. eigenvalues --  -10.05435  -1.00426  -0.93394  -0.71717  -0.69464
  Beta  occ. eigenvalues --   -0.65397  -0.61636  -0.57707  -0.53923  -0.49574
  Beta  occ. eigenvalues --   -0.47691  -0.41960  -0.41190  -0.39878  -0.37192
  Beta  occ. eigenvalues --   -0.35246  -0.34841  -0.33659  -0.32999  -0.31052
  Beta  occ. eigenvalues --   -0.30334  -0.29922  -0.28588  -0.27897  -0.25930
  Beta  occ. eigenvalues --   -0.24769  -0.24364  -0.23787  -0.23608  -0.23058
  Beta  occ. eigenvalues --   -0.21446  -0.19632  -0.17529
  Beta virt. eigenvalues --    0.06872   0.07739   0.08126   0.08938   0.09785
  Beta virt. eigenvalues --    0.10176   0.10390   0.10933   0.11680   0.12180
  Beta virt. eigenvalues --    0.12879   0.13131   0.13531   0.13856   0.14127

 Mulliken charges and spin densities:
               1          2
     1  C   -0.295756  -0.286713
     2  C   -0.434664   0.292332
     3  C    1.465906  -2.026520
     4  C   -0.766707   1.128260
     5  C    0.539239  -1.086907
     6  O   -0.073066   0.017371
     7  C    0.452319  -0.597599
     8  O   -0.310231   0.019407
     9  C    0.202770  -0.032839
    10  C   -1.276655   1.054455
    11  C    1.956422  -2.621622
    12  H    0.116060   0.077894
    13  H   -0.097563   0.237208
    14  H    0.172664  -0.026315
    15  H   -0.179591   0.328070
    16  H   -0.246511   0.414784
    17  H   -0.433604   0.608487
    18  H    0.038564   0.134398
    19  H   -0.648572   0.909375
    20  H    0.136645   0.103093
    21  H    0.043223   0.149451
    22  H    0.190460  -0.066475
    23  H   -0.561722   0.725378
    24  H    0.234288  -0.107772
    25  H   -0.116816   0.249009
    26  H   -0.614406   0.762367
    27  H   -0.492695   0.641424
 Sum of Mulliken charges =  -1.00000   1.00000

 Dipole moment (field-independent basis, Debye):
    X=             -3.6176    Y=             -0.7209    Z=             -3.7048  Tot=              5.2280
 Quadrupole moment (field-independent basis, Debye-Ang):
   XX=           -134.9731   YY=           -109.2789   ZZ=           -107.4430
   XY=             -6.8226   XZ=             -4.9360   YZ=             -1.3170

 Summary of Natural Population Analysis:

                                       Natural Population
                Natural  -----------------------------------------------
    Atom  No    Charge         Core      Valence    Rydberg      Total
 -----------------------------------------------------------------------
      C    1   -0.29091      0.99966     2.28559    0.00565     3.29091
      C    2   -0.19253      0.99963     2.18504    0.00786     3.19253
      C    3   -0.19075      0.99961     2.18049    0.01065     3.19075
      C    4   -0.16642      0.99954     2.15396    0.01292     3.16642
      C    5    0.06998      0.99957     1.91541    0.01505     2.93002
      O    6   -0.28013      0.99989     3.27399    0.00625     4.28013
      C    7    0.41290      0.99970     1.55860    0.02880     2.58710
      O    8   -0.29268      0.99986     3.28694    0.00589     4.29268
      C    9   -0.20297      0.99959     2.19425    0.00914     3.20297
      C   10   -0.19171      0.99963     2.18363    0.00845     3.19171
      C   11   -0.28591      0.99967     2.28109    0.00515     3.28591
      H   12    0.09740      0.00000     0.40152    0.00108     0.40260
      H   13    0.09754      0.00000     0.40176    0.00071     0.40246
      H   14    0.10151      0.00000     0.39771    0.00078     0.39849
      H   15    0.09517      0.00000     0.40321    0.00163     0.40483
      H   16    0.09798      0.00000     0.40080    0.00122     0.40202
      H   17    0.10809      0.00000     0.38946    0.00244     0.39191
      H   18    0.10276      0.00000     0.39594    0.00130     0.39724
      H   19    0.12305      0.00000     0.37398    0.00297     0.37695
      H   20    0.09265      0.00000     0.40554    0.00181     0.40735
      H   21    0.10131      0.00000     0.39746    0.00123     0.39869
      H   22    0.10189      0.00000     0.39636    0.00175     0.39811
      H   23    0.09725      0.00000     0.40145    0.00130     0.40275
      H   24    0.09837      0.00000     0.39961    0.00202     0.40163
      H   25    0.09460      0.00000     0.40412    0.00128     0.40540
      H   26    0.10299      0.00000     0.39534    0.00166     0.39701
      H   27    0.09856      0.00000     0.39958    0.00187     0.40144
 =======================================================================
   * Total *   -0.00000     10.99634    31.86281    0.14085    43.00000

 Normal termination of Gaussian 16 at Tue Dec  8 20:07:42 2020.
