 Gaussian 16, Revision A.03,

 -----------------------------------------------------------
 # opt freq B3LYP/6-31G(d) empiricaldispersion=gd3bj scf=xqc
 -----------------------------------------------------------

 ------------------------------
 CID_141352452_JID_829_neutraal
 ------------------------------
 Symbolic Z-matrix:
 Charge =  0 Multiplicity = 1

 SCF Done:  E(RB3LYP) =  -890.648437428     A.U. after   15 cycles
 SCF Done:  E(RB3LYP) =  -890.655749273     A.U. after   13 cycles
 SCF Done:  E(RB3LYP) =  -890.656780533     A.U. after   12 cycles
 SCF Done:  E(RB3LYP) =  -890.657177550     A.U. after   12 cycles
 SCF Done:  E(RB3LYP) =  -890.657291582     A.U. after   12 cycles
 SCF Done:  E(RB3LYP) =  -890.657337933     A.U. after   12 cycles
 SCF Done:  E(RB3LYP) =  -890.657408214     A.U. after   11 cycles
 SCF Done:  E(RB3LYP) =  -890.657432248     A.U. after   11 cycles
 SCF Done:  E(RB3LYP) =  -890.657440751     A.U. after    9 cycles
 SCF Done:  E(RB3LYP) =  -890.657445366     A.U. after    9 cycles
 SCF Done:  E(RB3LYP) =  -890.657447616     A.U. after    9 cycles
 SCF Done:  E(RB3LYP) =  -890.657448164     A.U. after    9 cycles
 Optimization completed.
    -- Stationary point found.
 Normal termination of Gaussian 16 at Tue Dec  8 12:32:56 2020.

 --------------------------------------------------------------------
 #N Geom=AllCheck Guess=TCheck SCRF=Check GenChk RB3LYP/6-31G(d) Freq
 --------------------------------------------------------------------

 Structure from the checkpoint file:  "JID_829.chk"
 ------------------------------
 CID_141352452_JID_829_neutraal
 ------------------------------
 Charge =  0 Multiplicity = 1

 SCF Done:  E(RB3LYP) =  -890.657448164     A.U. after    1 cycles

  Exact polarizability:  91.949  -0.331  90.225   0.373  -1.779  55.094
 Approx polarizability: 119.169  -5.835 140.133  -2.211  -1.134  85.268

                      1                      2                      3
                      A                      A                      A
 Frequencies --     60.8411                63.4854                82.4768
 Red. masses --      7.0428                 5.0895                 5.7490
 Frc consts  --      0.0154                 0.0121                 0.0230
 IR Inten    --      1.2333                 2.5995                 1.2003

                      4                      5                      6
                      A                      A                      A
 Frequencies --    113.8233               134.9940               170.6476
 Red. masses --      3.1615                 1.4184                 3.6329
 Frc consts  --      0.0241                 0.0152                 0.0623
 IR Inten    --      4.8193                 1.0653                 3.5233

                      7                      8                      9
                      A                      A                      A
 Frequencies --    192.7951               290.4564               308.9004
 Red. masses --      4.7532                 1.4668                 2.7498
 Frc consts  --      0.1041                 0.0729                 0.1546
 IR Inten    --      1.7968                 1.7589                26.5248

                     10                     11                     12
                      A                      A                      A
 Frequencies --    341.4054               389.9068               403.6158
 Red. masses --      6.3359                 2.7535                 3.6090
 Frc consts  --      0.4351                 0.2466                 0.3464
 IR Inten    --      0.7388                 5.7027                 3.5275

                     13                     14                     15
                      A                      A                      A
 Frequencies --    473.3406               564.0576               584.2549
 Red. masses --      5.3972                 1.1022                 1.2673
 Frc consts  --      0.7125                 0.2066                 0.2549
 IR Inten    --      5.4639                21.9944               210.6417

                     16                     17                     18
                      A                      A                      A
 Frequencies --    618.1391               641.3378               670.0922
 Red. masses --      3.1915                 4.5799                 4.9289
 Frc consts  --      0.7185                 1.1099                 1.3040
 IR Inten    --     25.7144                12.3909                81.7298

                     19                     20                     21
                      A                      A                      A
 Frequencies --    754.1207               782.3736               791.3837
 Red. masses --      5.0680                 3.3398                 2.4303
 Frc consts  --      1.6981                 1.2045                 0.8968
 IR Inten    --     13.2028                39.3462                22.7814

                     22                     23                     24
                      A                      A                      A
 Frequencies --    824.3515               949.1446              1031.4663
 Red. masses --      3.5514                 3.1902                 2.0282
 Frc consts  --      1.4219                 1.6933                 1.2714
 IR Inten    --      9.4116                27.9335                14.4306

                     25                     26                     27
                      A                      A                      A
 Frequencies --   1122.3335              1145.4127              1190.1922
 Red. masses --      3.2526                 2.1637                 1.2666
 Frc consts  --      2.4140                 1.6725                 1.0571
 IR Inten    --    144.7043                43.8432                 1.1131

                     28                     29                     30
                      A                      A                      A
 Frequencies --   1208.8737              1232.8162              1264.1087
 Red. masses --      2.0723                 2.8185                 2.0352
 Frc consts  --      1.7843                 2.5239                 1.9162
 IR Inten    --     31.9753               237.8591               322.2047

                     31                     32                     33
                      A                      A                      A
 Frequencies --   1314.8099              1379.7279              1401.5702
 Red. masses --      1.8666                 1.5166                 2.1898
 Frc consts  --      1.9012                 1.7010                 2.5344
 IR Inten    --     16.0289                33.6414               384.3469

                     34                     35                     36
                      A                      A                      A
 Frequencies --   1487.1109              1502.0673              1511.6245
 Red. masses --      1.1222                 1.1784                 1.0481
 Frc consts  --      1.4622                 1.5664                 1.4111
 IR Inten    --      8.3626                36.0385                 5.8514

                     37                     38                     39
                      A                      A                      A
 Frequencies --   1528.3494              1652.9695              1817.7917
 Red. masses --      1.0534                 1.1867                10.5081
 Frc consts  --      1.4498                 1.9104                20.4581
 IR Inten    --      7.3109               129.5443                75.4040

                     40                     41                     42
                      A                      A                      A
 Frequencies --   1890.1586              2695.1297              3081.3568
 Red. masses --     10.9168                 1.0383                 1.0290
 Frc consts  --     22.9796                 4.4435                 5.7562
 IR Inten    --    607.5949                 5.5979                32.1566

                     43                     44                     45
                      A                      A                      A
 Frequencies --   3146.6072              3159.5259              3185.9061
 Red. masses --      1.0599                 1.1080                 1.1079
 Frc consts  --      6.1831                 6.5169                 6.6252
 IR Inten    --      5.4986                16.7297                14.4555

                     46                     47                     48
                      A                      A                      A
 Frequencies --   3215.1863              3536.2814              3670.6715
 Red. masses --      1.1091                 1.0508                 1.0985
 Frc consts  --      6.7549                 7.7419                 8.7208
 IR Inten    --      0.2661                34.2172                68.3550

 - Thermochemistry -
 -------------------
 Temperature   298.150 Kelvin.  Pressure   1.00000 Atm.
 Atom     1 has atomic number  6 and mass  12.00000

 Molecular mass:   164.02556 amu.
 Principal axes and moments of inertia in atomic units:
                           1         2         3
     Eigenvalues --  1431.278961706.123072907.06052
           X            0.99813   0.06117   0.00095
           Y           -0.06117   0.99811   0.00547
           Z           -0.00061  -0.00552   0.99998
 This molecule is an asymmetric top.
 Rotational symmetry number  1.
 Warning -- assumption of classical behavior for rotation
           may cause significant error
 Rotational temperatures (Kelvin)      0.06052     0.05077     0.02979
 Rotational constants (GHZ):           1.26093     1.05780     0.62081
 Zero-point vibrational energy     356355.5 (Joules/Mol)
                                   85.17102 (Kcal/Mol)
 Warning -- explicit consideration of  16 degrees of freedom as
           vibrations may cause significant error
 Vibrational temperatures:     87.54    91.34   118.67   163.77   194.23
          (Kelvin)            245.52   277.39   417.90   444.44   491.21
                              560.99   580.71   681.03   811.55   840.61
                              889.36   922.74   964.11  1085.01  1125.66
                             1138.62  1186.06  1365.61  1484.05  1614.79
                             1647.99  1712.42  1739.30  1773.75  1818.77
                             1891.72  1985.12  2016.55  2139.62  2161.14
                             2174.89  2198.95  2378.25  2615.40  2719.52
                             3877.69  4433.39  4527.27  4545.85  4583.81
                             4625.94  5087.92  5281.28

 Zero-point correction=                           0.135729 (Hartree/Particle)
 Thermal correction to Energy=                    0.146915
 Thermal correction to Enthalpy=                  0.147859
 Thermal correction to Gibbs Free Energy=         0.097894
 Sum of electronic and zero-point Energies=           -890.521720
 Sum of electronic and thermal Energies=              -890.510533
 Sum of electronic and thermal Enthalpies=            -890.509589
 Sum of electronic and thermal Free Energies=         -890.559554

                     E (Thermal)             CV                S
                      KCal/Mol        Cal/Mol-Kelvin    Cal/Mol-Kelvin
 Total                   92.190             39.129            105.159
 Electronic               0.000              0.000              0.000
 Translational            0.889              2.981             41.193
 Rotational               0.889              2.981             30.341
 Vibrational             90.413             33.167             33.625
 Vibration     1          0.597              1.973              4.430
 Vibration     2          0.597              1.972              4.346
 Vibration     3          0.600              1.961              3.831
 Vibration     4          0.607              1.938              3.203
 Vibration     5          0.613              1.918              2.874
 Vibration     6          0.626              1.879              2.428
 Vibration     7          0.635              1.850              2.201
 Vibration     8          0.686              1.691              1.471
 Vibration     9          0.698              1.657              1.368
 Vibration    10          0.721              1.593              1.206
 Vibration    11          0.758              1.492              1.000
 Vibration    12          0.769              1.462              0.949
 Vibration    13          0.830              1.309              0.728
 Vibration    14          0.920              1.109              0.516
 Vibration    15          0.941              1.065              0.478
 Vibration    16          0.978              0.994              0.419

                           ! Non-Optimized Parameters !
 Normal termination of Gaussian 16 at Tue Dec  8 12:42:27 2020.

 ----------------------------------------------------------------------
 # B3LYP/6-311++G(d,p) empiricaldispersion=gd3bj scf=xqc pop=npa geom=c
 heck
 ----------------------------------------------------------------------

 --------------------------------------
 CID_141352452_JID_829_Energie_neutraal
 --------------------------------------
 Structure from the checkpoint file:  "JID_829.chk"
 Charge =  0 Multiplicity = 1

 SCF Done:  E(RB3LYP) =  -890.845564527     A.U. after   14 cycles
 Normal termination of Gaussian 16 at Tue Dec  8 12:44:10 2020.

 ----------------------------------------------------------------------
 # B3LYP/6-311++G(d,p) empiricaldispersion=gd3bj scf=xqc pop=npa geom=c
 heck
 ----------------------------------------------------------------------

 ------------------------------------
 CID_141352452_JID_829_Energie_kation
 ------------------------------------
 Structure from the checkpoint file:  "JID_829.chk"
 Charge =  1 Multiplicity = 2

 SCF Done:  E(UB3LYP) =  -890.501465064     A.U. after   31 cycles
 Normal termination of Gaussian 16 at Tue Dec  8 13:04:06 2020.
 Gaussian 16:  ES64L-G16RevA.03 25-Dec-2016

 ----------------------------------------------------------------------
 # B3LYP/6-311++G(d,p) empiricaldispersion=gd3bj scf=xqc pop=npa geom=c
 heck
 ----------------------------------------------------------------------

 -----------------------------------
 CID_141352452_JID_829_Energie_anion
 -----------------------------------
 Structure from the checkpoint file:  "JID_829.chk"
 Charge = -1 Multiplicity = 2

                         Standard orientation:
 ---------------------------------------------------------------------
 Center     Atomic      Atomic             Coordinates (Angstroms)
 Number     Number       Type             X           Y           Z
 ---------------------------------------------------------------------
      1          6           0        3.228225    0.161761   -0.055664
      2          8           0        1.855502    0.382113    0.305802
      3          6           0        1.020303   -0.636607   -0.036844
      4          8           0        1.373541   -1.633025   -0.617961
      5          7           0       -0.284347   -0.322926    0.349016
      6          6           0       -0.601043    0.978867    0.906215
      7         16           0       -0.908698    2.324331   -0.334684
      8          6           0       -1.333517   -1.264926    0.070425
      9          8           0       -1.199858   -2.460670    0.187729
     10          7           0       -2.514053   -0.640668   -0.264921
     11          1           0        3.758394    1.056620    0.270659
     12          1           0        3.322591    0.026621   -1.135724
     13          1           0        3.618064   -0.724721    0.449839
     14          1           0       -1.527236    0.900405    1.473690
     15          1           0        0.204356    1.290753    1.564871
     16          1           0        0.342517    2.314168   -0.838619
     17          1           0       -2.467245    0.233740   -0.777479
     18          1           0       -3.240765   -1.283626   -0.550304
 ---------------------------------------------------------------------

 SCF Done:  E(UB3LYP) =  -890.835560875     A.U. after   30 cycles

 The electronic state is 2-A.
 Alpha  occ. eigenvalues --  -88.74198 -19.07056 -19.00490 -18.99892 -14.26582
 Alpha  occ. eigenvalues --  -14.23318 -10.22945 -10.21191 -10.14297 -10.12229
 Alpha  occ. eigenvalues --   -7.82915  -5.79262  -5.78938  -5.78320  -1.01914
 Alpha  occ. eigenvalues --   -0.96363  -0.92400  -0.85922  -0.80499  -0.67502
 Alpha  occ. eigenvalues --   -0.63639  -0.56787  -0.54727  -0.46868  -0.44901
 Alpha  occ. eigenvalues --   -0.42471  -0.41075  -0.39244  -0.37373  -0.35009
 Alpha  occ. eigenvalues --   -0.34804  -0.33322  -0.32940  -0.30094  -0.29770
 Alpha  occ. eigenvalues --   -0.26992  -0.25440  -0.21173  -0.20466  -0.18347
 Alpha  occ. eigenvalues --   -0.17458  -0.17073  -0.14851   0.04457
 Alpha virt. eigenvalues --    0.06529   0.08196   0.08710   0.09559   0.09958
 Alpha virt. eigenvalues --    0.10799   0.10941   0.11815   0.12867   0.13705
 Alpha virt. eigenvalues --    0.14788   0.15508   0.15733   0.16167   0.16861

  Beta  occ. eigenvalues --  -88.74168 -19.07039 -19.00482 -18.99884 -14.26576
  Beta  occ. eigenvalues --  -14.23252 -10.22945 -10.21188 -10.14261 -10.12178
  Beta  occ. eigenvalues --   -7.82882  -5.79193  -5.78920  -5.78298  -1.01895
  Beta  occ. eigenvalues --   -0.96344  -0.92383  -0.85902  -0.80418  -0.67413
  Beta  occ. eigenvalues --   -0.63573  -0.56656  -0.54646  -0.46785  -0.44852
  Beta  occ. eigenvalues --   -0.42395  -0.41011  -0.39203  -0.37323  -0.34939
  Beta  occ. eigenvalues --   -0.34752  -0.33284  -0.32898  -0.30053  -0.29662
  Beta  occ. eigenvalues --   -0.26937  -0.25304  -0.21148  -0.20422  -0.18294
  Beta  occ. eigenvalues --   -0.17411  -0.17040  -0.14782
  Beta virt. eigenvalues --    0.07160   0.07845   0.08786   0.09459   0.09649
  Beta virt. eigenvalues --    0.10865   0.11226   0.11532   0.12346   0.13388
  Beta virt. eigenvalues --    0.13947   0.14842   0.15676   0.15772   0.16278

 Mulliken charges and spin densities:
               1          2
     1  C    1.256015  -1.458227
     2  O   -0.204684   0.074944
     3  C    0.173714   0.009683
     4  O   -0.296968   0.020399
     5  N   -0.214691   0.079751
     6  C    0.367434  -0.958664
     7  S    0.315666  -0.350908
     8  C    0.335791  -0.128328
     9  O   -0.307830   0.005994
    10  N   -0.268602  -0.086942
    11  H   -0.640241   0.796975
    12  H   -0.257893   0.435149
    13  H   -0.155091   0.325178
    14  H   -0.291220   0.555587
    15  H   -0.053240   0.321089
    16  H   -0.376243   0.444811
    17  H   -0.128729   0.344994
    18  H   -0.253189   0.568514
 Sum of Mulliken charges =  -1.00000   1.00000

 Dipole moment (field-independent basis, Debye):
    X=             -0.6972    Y=             -0.4548    Z=              0.4870  Tot=              0.9644
 Quadrupole moment (field-independent basis, Debye-Ang):
   XX=           -120.4225   YY=           -112.5417   ZZ=            -88.4971
   XY=             -6.3592   XZ=             -0.6211   YZ=             -3.1496

 Summary of Natural Population Analysis:

                                       Natural Population
                Natural  -----------------------------------------------
    Atom  No    Charge         Core      Valence    Rydberg      Total
 -----------------------------------------------------------------------
      C    1   -0.09831      0.99959     2.08977    0.00894     3.09831
      O    2   -0.28787      0.99987     3.27778    0.01022     4.28787
      C    3    0.47418      0.99968     1.50080    0.02535     2.52582
      O    4   -0.30311      0.99987     3.29787    0.00537     4.30311
      N    5   -0.28914      0.99961     2.77681    0.01273     3.78914
      C    6   -0.14815      0.99958     2.13497    0.01361     3.14815
      S    7   -0.03255      4.99967     3.01801    0.01487     8.03255
      C    8    0.41597      0.99972     1.56035    0.02396     2.58403
      O    9   -0.29933      0.99987     3.29358    0.00588     4.29933
      N   10   -0.41460      0.99971     2.90674    0.00815     3.91460
      H   11    0.09618      0.00000     0.40087    0.00294     0.40382
      H   12    0.09254      0.00000     0.40600    0.00146     0.40746
      H   13    0.08995      0.00000     0.40891    0.00114     0.41005
      H   14    0.11204      0.00000     0.38612    0.00184     0.38796
      H   15    0.11702      0.00000     0.38073    0.00225     0.38298
      H   16    0.07442      0.00000     0.42049    0.00509     0.42558
      H   17    0.20268      0.00000     0.29242    0.00490     0.29732
      H   18    0.19809      0.00000     0.29856    0.00336     0.30191
 =======================================================================
   * Total *   -0.00000     13.99716    28.85078    0.15206    43.00000

 Normal termination of Gaussian 16 at Tue Dec  8 13:09:33 2020.
