 Gaussian 16, Revision A.03,

 -----------------------------------------------------------
 # opt freq B3LYP/6-31G(d) empiricaldispersion=gd3bj scf=xqc
 -----------------------------------------------------------

 ------------------------------
 CID_84073367_JID_3275_neutraal
 ------------------------------
 Symbolic Z-matrix:
 Charge =  0 Multiplicity = 1

 SCF Done:  E(RB3LYP) =  -593.914345024     A.U. after   14 cycles
 SCF Done:  E(RB3LYP) =  -593.919647922     A.U. after   13 cycles
 SCF Done:  E(RB3LYP) =  -593.918749502     A.U. after   12 cycles
 SCF Done:  E(RB3LYP) =  -593.920419359     A.U. after   12 cycles
 SCF Done:  E(RB3LYP) =  -593.920916066     A.U. after   12 cycles
 SCF Done:  E(RB3LYP) =  -593.921119081     A.U. after   12 cycles
 SCF Done:  E(RB3LYP) =  -593.921223082     A.U. after   10 cycles
 SCF Done:  E(RB3LYP) =  -593.921243097     A.U. after   11 cycles
 SCF Done:  E(RB3LYP) =  -593.921249067     A.U. after    9 cycles
 SCF Done:  E(RB3LYP) =  -593.921250762     A.U. after    8 cycles
 SCF Done:  E(RB3LYP) =  -593.921252170     A.U. after    8 cycles
 SCF Done:  E(RB3LYP) =  -593.921252793     A.U. after    8 cycles
 SCF Done:  E(RB3LYP) =  -593.921253326     A.U. after    8 cycles
 SCF Done:  E(RB3LYP) =  -593.921253635     A.U. after    8 cycles
 SCF Done:  E(RB3LYP) =  -593.921253702     A.U. after    7 cycles
 Optimization completed.
    -- Stationary point found.
 Normal termination of Gaussian 16 at Wed Dec  9 22:38:18 2020.

 --------------------------------------------------------------------
 #N Geom=AllCheck Guess=TCheck SCRF=Check GenChk RB3LYP/6-31G(d) Freq
 --------------------------------------------------------------------

 Structure from the checkpoint file:  "JID_3275.chk"
 ------------------------------
 CID_84073367_JID_3275_neutraal
 ------------------------------
 Charge =  0 Multiplicity = 1

 SCF Done:  E(RB3LYP) =  -593.921253702     A.U. after    1 cycles

  Exact polarizability: 132.122   4.229 113.866   2.732  -2.077  95.243
 Approx polarizability: 160.474   5.473 175.236   2.661  -5.647 144.841

                      1                      2                      3
                      A                      A                      A
 Frequencies --     28.1019                48.8583                54.4627
 Red. masses --      3.6696                 3.7484                 5.1793
 Frc consts  --      0.0017                 0.0053                 0.0091
 IR Inten    --      2.5532                 0.1833                 5.1455

                      4                      5                      6
                      A                      A                      A
 Frequencies --    108.7285               120.3977               143.8183
 Red. masses --      4.1843                 2.4004                 3.0680
 Frc consts  --      0.0291                 0.0205                 0.0374
 IR Inten    --      4.9041                 9.6441                 1.3229

                      7                      8                      9
                      A                      A                      A
 Frequencies --    177.7113               216.8407               253.9433
 Red. masses --      3.2707                 2.1768                 1.1825
 Frc consts  --      0.0609                 0.0603                 0.0449
 IR Inten    --      1.2387                 3.5491                33.9468

                     10                     11                     12
                      A                      A                      A
 Frequencies --    277.4271               300.2875               336.6497
 Red. masses --      1.4396                 2.4507                 2.5502
 Frc consts  --      0.0653                 0.1302                 0.1703
 IR Inten    --     43.4789                10.6603                 1.8317

                     13                     14                     15
                      A                      A                      A
 Frequencies --    348.2370               385.2376               391.0407
 Red. masses --      1.1507                 2.9868                 2.2334
 Frc consts  --      0.0822                 0.2612                 0.2012
 IR Inten    --    256.5092                 0.8572                 2.4683

                     16                     17                     18
                      A                      A                      A
 Frequencies --    422.5313               447.9241               461.2872
 Red. masses --      2.1260                 2.4034                 2.1672
 Frc consts  --      0.2236                 0.2841                 0.2717
 IR Inten    --      1.3403                 2.4164                 8.0036

                     19                     20                     21
                      A                      A                      A
 Frequencies --    499.7152               547.6296               597.6878
 Red. masses --      1.9823                 3.4363                 1.4421
 Frc consts  --      0.2917                 0.6072                 0.3035
 IR Inten    --      1.6188                15.1082                17.4759

                     22                     23                     24
                      A                      A                      A
 Frequencies --    614.0673               717.1930               738.3623
 Red. masses --      2.1987                 3.9156                 2.7449
 Frc consts  --      0.4885                 1.1866                 0.8817
 IR Inten    --      0.0572                26.4655                 6.2705

                     25                     26                     27
                      A                      A                      A
 Frequencies --    771.7704               795.9831               864.1339
 Red. masses --      3.0447                 2.3477                 1.9885
 Frc consts  --      1.0685                 0.8764                 0.8749
 IR Inten    --      1.1780                 1.7950                46.2218

                     28                     29                     30
                      A                      A                      A
 Frequencies --    867.7995               893.0370               904.7573
 Red. masses --      1.5775                 1.9481                 2.3591
 Frc consts  --      0.6999                 0.9154                 1.1378
 IR Inten    --     74.1664                12.0527                 2.6235

                     31                     32                     33
                      A                      A                      A
 Frequencies --    925.5421               944.7157               963.1199
 Red. masses --      1.9182                 1.7670                 1.8915
 Frc consts  --      0.9681                 0.9291                 1.0338
 IR Inten    --     24.6266                 1.4876                29.1112

                     34                     35                     36
                      A                      A                      A
 Frequencies --    985.3482              1010.8581              1018.1797
 Red. masses --      1.5584                 3.1007                 1.8826
 Frc consts  --      0.8915                 1.8668                 1.1499
 IR Inten    --      0.2859                 1.4736                28.5820

                     37                     38                     39
                      A                      A                      A
 Frequencies --   1049.6947              1072.8395              1079.9822
 Red. masses --      2.0365                 1.7790                 2.0656
 Frc consts  --      1.3221                 1.2064                 1.4195
 IR Inten    --     10.5160                 9.6633                14.0314

                     40                     41                     42
                      A                      A                      A
 Frequencies --   1098.6666              1117.6445              1146.1582
 Red. masses --      2.4103                 2.4383                 1.8949
 Frc consts  --      1.7142                 1.7945                 1.4667
 IR Inten    --      1.6922                10.8116                 0.5823

                     43                     44                     45
                      A                      A                      A
 Frequencies --   1150.2703              1181.8728              1213.5999
 Red. masses --      1.6565                 1.8789                 1.3533
 Frc consts  --      1.2913                 1.5463                 1.1744
 IR Inten    --      7.5088                 1.3732                13.0466

                     46                     47                     48
                      A                      A                      A
 Frequencies --   1227.2038              1239.8244              1257.7616
 Red. masses --      1.3791                 1.3823                 1.3069
 Frc consts  --      1.2237                 1.2519                 1.2181
 IR Inten    --      5.6968                17.7017                18.5088

                     49                     50                     51
                      A                      A                      A
 Frequencies --   1304.0315              1324.8212              1328.7043
 Red. masses --      1.2315                 1.4811                 1.6350
 Frc consts  --      1.2338                 1.5316                 1.7007
 IR Inten    --      1.2544                 4.3402                25.3135

                     52                     53                     54
                      A                      A                      A
 Frequencies --   1338.0154              1348.7310              1358.7769
 Red. masses --      1.3635                 1.2354                 1.8499
 Frc consts  --      1.4382                 1.3241                 2.0123
 IR Inten    --      4.6127                 6.7653               119.4898

                     55                     56                     57
                      A                      A                      A
 Frequencies --   1371.0653              1380.3269              1391.1623
 Red. masses --      1.3582                 1.2535                 1.3946
 Frc consts  --      1.5043                 1.4072                 1.5902
 IR Inten    --      1.4883                 1.3097                15.4757

                     58                     59                     60
                      A                      A                      A
 Frequencies --   1408.7101              1423.9995              1435.1578
 Red. masses --      1.4465                 1.6084                 1.2793
 Frc consts  --      1.6913                 1.9216                 1.5525
 IR Inten    --      5.1464                20.9735                17.1129

                     61                     62                     63
                      A                      A                      A
 Frequencies --   1448.9090              1513.1532              1521.7046
 Red. masses --      1.4798                 1.0813                 1.0888
 Frc consts  --      1.8304                 1.4587                 1.4854
 IR Inten    --     15.4207                 4.0029                 7.0101

                     64                     65                     66
                      A                      A                      A
 Frequencies --   1524.9102              1533.5897              1541.1268
 Red. masses --      1.0926                 1.0639                 1.0886
 Frc consts  --      1.4969                 1.4743                 1.5234
 IR Inten    --      2.3052                 8.2309                 4.3992

                     67                     68                     69
                      A                      A                      A
 Frequencies --   1544.4338              1559.5817              1650.1545
 Red. masses --      1.0537                 1.0843                 1.2382
 Frc consts  --      1.4808                 1.5538                 1.9865
 IR Inten    --      3.8283                 4.8531                94.3435

                     70                     71                     72
                      A                      A                      A
 Frequencies --   1696.4376              1801.6763              2918.8994
 Red. masses --      1.0891                 8.4631                 1.0762
 Frc consts  --      1.8467                16.1857                 5.4021
 IR Inten    --     32.1053               263.5585                84.1650

                     73                     74                     75
                      A                      A                      A
 Frequencies --   2932.2198              3022.7748              3044.2864
 Red. masses --      1.0777                 1.0717                 1.0737
 Frc consts  --      5.4595                 5.7695                 5.8627
 IR Inten    --     63.2983                20.0730                44.6240

                     76                     77                     78
                      A                      A                      A
 Frequencies --   3051.0033              3053.5442              3056.9186
 Red. masses --      1.0456                 1.0762                 1.0786
 Frc consts  --      5.7345                 5.9121                 5.9386
 IR Inten    --     13.8050                39.2512                12.6000

                     79                     80                     81
                      A                      A                      A
 Frequencies --   3068.5769              3073.6849              3108.1081
 Red. masses --      1.0672                 1.0820                 1.0948
 Frc consts  --      5.9206                 6.0229                 6.2313
 IR Inten    --     26.1107                62.7143                46.8396

                     82                     83                     84
                      A                      A                      A
 Frequencies --   3118.4422              3126.8294              3136.4704
 Red. masses --      1.0987                 1.0969                 1.0961
 Frc consts  --      6.2950                 6.3186                 6.3533
 IR Inten    --     39.7019                13.7891                13.9614

                     85                     86                     87
                      A                      A                      A
 Frequencies --   3142.3553              3192.1905              3463.1622
 Red. masses --      1.0996                 1.0909                 1.0496
 Frc consts  --      6.3972                 6.5498                 7.4170
 IR Inten    --     36.8206                 3.8483                 2.8662

                     88                     89                     90
                      A                      A                      A
 Frequencies --   3547.4140              3587.2762              3714.6567
 Red. masses --      1.0921                 1.0458                 1.1034
 Frc consts  --      8.0976                 7.9292                 8.9710
 IR Inten    --      1.3061                25.6528                28.7266

 - Thermochemistry -
 -------------------
 Temperature   298.150 Kelvin.  Pressure   1.00000 Atm.
 Atom     1 has atomic number  6 and mass  12.00000

 Molecular mass:   185.15281 amu.
 Principal axes and moments of inertia in atomic units:
                           1         2         3
     Eigenvalues --  1110.399794320.616804748.80952
           X            0.99988   0.01457   0.00453
           Y           -0.01458   0.99989   0.00201
           Z           -0.00450  -0.00208   0.99999
 This molecule is an asymmetric top.
 Rotational symmetry number  1.
 Warning -- assumption of classical behavior for rotation
           may cause significant error
 Rotational temperatures (Kelvin)      0.07800     0.02005     0.01824
 Rotational constants (GHZ):           1.62531     0.41770     0.38004
 Zero-point vibrational energy     760387.7 (Joules/Mol)
                                  181.73702 (Kcal/Mol)
 Warning -- explicit consideration of  22 degrees of freedom as
           vibrations may cause significant error
 Vibrational temperatures:     40.43    70.30    78.36   156.44   173.23
          (Kelvin)            206.92   255.69   311.99   365.37   399.16
                              432.05   484.36   501.04   554.27   562.62
                              607.93   644.46   663.69   718.98   787.92
                              859.94   883.51  1031.88  1062.34  1110.41
                             1145.24  1243.30  1248.57  1284.88  1301.74
                             1331.65  1359.24  1385.71  1417.70  1454.40
                             1464.93  1510.28  1543.58  1553.85  1580.74
                             1608.04  1649.07  1654.98  1700.45  1746.10
                             1765.67  1783.83  1809.64  1876.21  1906.12
                             1911.71  1925.11  1940.52  1954.98  1972.66
                             1985.98  2001.57  2026.82  2048.82  2064.87
                             2084.66  2177.09  2189.39  2194.01  2206.49
                             2217.34  2222.10  2243.89  2374.20  2440.80
                             2592.21  4199.65  4218.81  4349.10  4380.05
                             4389.71  4393.37  4398.22  4415.00  4422.35
                             4471.87  4486.74  4498.81  4512.68  4521.15
                             4592.85  4982.72  5103.94  5161.29  5344.56

 Zero-point correction=                           0.289616 (Hartree/Particle)
 Thermal correction to Energy=                    0.303706
 Thermal correction to Enthalpy=                  0.304650
 Thermal correction to Gibbs Free Energy=         0.248197
 Sum of electronic and zero-point Energies=           -593.631637
 Sum of electronic and thermal Energies=              -593.617548
 Sum of electronic and thermal Enthalpies=            -593.616604
 Sum of electronic and thermal Free Energies=         -593.673057

                     E (Thermal)             CV                S
                      KCal/Mol        Cal/Mol-Kelvin    Cal/Mol-Kelvin
 Total                  190.578             53.695            118.816
 Electronic               0.000              0.000              0.000
 Translational            0.889              2.981             41.554
 Rotational               0.889              2.981             31.500
 Vibrational            188.801             47.734             45.762
 Vibration     1          0.593              1.984              5.959
 Vibration     2          0.595              1.978              4.863
 Vibration     3          0.596              1.976              4.648
 Vibration     4          0.606              1.942              3.291
 Vibration     5          0.609              1.932              3.094
 Vibration     6          0.616              1.909              2.752
 Vibration     7          0.628              1.870              2.352
 Vibration     8          0.646              1.815              1.985
 Vibration     9          0.665              1.756              1.703
 Vibration    10          0.678              1.715              1.549
 Vibration    11          0.693              1.673              1.415
 Vibration    12          0.717              1.602              1.228
 Vibration    13          0.726              1.579              1.174
 Vibration    14          0.754              1.502              1.019
 Vibration    15          0.759              1.489              0.996
 Vibration    16          0.785              1.421              0.883
 Vibration    17          0.807              1.365              0.802
 Vibration    18          0.819              1.336              0.762
 Vibration    19          0.855              1.251              0.659
 Vibration    20          0.903              1.145              0.549
 Vibration    21          0.956              1.037              0.454
 Vibration    22          0.973              1.002              0.426

                           ! Non-Optimized Parameters !
 Normal termination of Gaussian 16 at Wed Dec  9 22:47:04 2020.

 ----------------------------------------------------------------------
 # B3LYP/6-311++G(d,p) empiricaldispersion=gd3bj scf=xqc pop=npa geom=c
 heck
 ----------------------------------------------------------------------

 --------------------------------------
 CID_84073367_JID_3275_Energie_neutraal
 --------------------------------------
 Structure from the checkpoint file:  "JID_3275.chk"
 Charge =  0 Multiplicity = 1

 SCF Done:  E(RB3LYP) =  -594.106386706     A.U. after   15 cycles
 Normal termination of Gaussian 16 at Wed Dec  9 22:50:50 2020.

 ----------------------------------------------------------------------
 # B3LYP/6-311++G(d,p) empiricaldispersion=gd3bj scf=xqc pop=npa geom=c
 heck
 ----------------------------------------------------------------------

 ------------------------------------
 CID_84073367_JID_3275_Energie_kation
 ------------------------------------
 Structure from the checkpoint file:  "JID_3275.chk"
 Charge =  1 Multiplicity = 2

 SCF Done:  E(UB3LYP) =  -593.815038749     A.U. after   25 cycles
 Normal termination of Gaussian 16 at Wed Dec  9 22:58:45 2020.
 Gaussian 16:  ES64L-G16RevA.03 25-Dec-2016

 ----------------------------------------------------------------------
 # B3LYP/6-311++G(d,p) empiricaldispersion=gd3bj scf=xqc pop=npa geom=c
 heck
 ----------------------------------------------------------------------

 -----------------------------------
 CID_84073367_JID_3275_Energie_anion
 -----------------------------------
 Structure from the checkpoint file:  "JID_3275.chk"
 Charge = -1 Multiplicity = 2

                         Standard orientation:
 ---------------------------------------------------------------------
 Center     Atomic      Atomic             Coordinates (Angstroms)
 Number     Number       Type             X           Y           Z
 ---------------------------------------------------------------------
      1          6           0        1.116925    2.184325    0.090211
      2          6           0        0.612080    0.811559   -0.378375
      3          6           0        1.712268    0.053987   -1.159678
      4          6           0        2.861896   -0.498841   -0.319184
      5          8           0        2.939757   -1.676703    0.000893
      6          7           0        3.842956    0.401674    0.006865
      7          7           0        0.126842    0.052211    0.788098
      8          6           0       -0.192856   -1.367509    0.549785
      9          6           0       -1.587708   -1.377812   -0.097715
     10          6           0       -2.318027   -0.222282    0.631021
     11          6           0       -1.153667    0.569976    1.312339
     12          6           0       -3.174094    0.642335   -0.293867
     13          7           0       -4.305253   -0.126837   -0.819190
     14          1           0        1.850670    2.061462    0.892579
     15          1           0        0.306278    2.803187    0.483574
     16          1           0        1.569227    2.737042   -0.742267
     17          1           0       -0.191364    0.992422   -1.117913
     18          1           0        1.281805   -0.796273   -1.691915
     19          1           0        2.106421    0.739897   -1.918954
     20          1           0        3.697486    1.394032   -0.098903
     21          1           0        4.534752    0.098522    0.679008
     22          1           0       -0.244820   -1.851206    1.534364
     23          1           0        0.590433   -1.877285   -0.006544
     24          1           0       -1.503122   -1.162891   -1.172906
     25          1           0       -2.099140   -2.339746    0.004711
     26          1           0       -2.984590   -0.633402    1.397413
     27          1           0       -1.240003    1.647273    1.153203
     28          1           0       -1.175233    0.402034    2.395239
     29          1           0       -3.583757    1.487297    0.274539
     30          1           0       -2.521519    1.076283   -1.077215
     31          1           0       -4.868817    0.459249   -1.432986
     32          1           0       -3.955478   -0.888049   -1.399799
 ---------------------------------------------------------------------

 SCF Done:  E(UB3LYP) =  -594.096918033     A.U. after   30 cycles

 The electronic state is 2-A.
 Alpha  occ. eigenvalues --  -18.99013 -14.23140 -14.20317 -14.19577 -10.17598
 Alpha  occ. eigenvalues --  -10.10939 -10.09271 -10.09267 -10.08544 -10.07820
 Alpha  occ. eigenvalues --  -10.07387 -10.06741 -10.05911  -0.93991  -0.83557
 Alpha  occ. eigenvalues --   -0.80510  -0.78624  -0.70559  -0.65629  -0.63518
 Alpha  occ. eigenvalues --   -0.60552  -0.55674  -0.52732  -0.49550  -0.46479
 Alpha  occ. eigenvalues --   -0.45838  -0.42956  -0.41075  -0.39739  -0.38990
 Alpha  occ. eigenvalues --   -0.36611  -0.35863  -0.34941  -0.32857  -0.31887
 Alpha  occ. eigenvalues --   -0.31164  -0.30778  -0.30495  -0.28971  -0.28502
 Alpha  occ. eigenvalues --   -0.27904  -0.25628  -0.24361  -0.23991  -0.23532
 Alpha  occ. eigenvalues --   -0.22721  -0.22403  -0.17680  -0.15970  -0.14820
 Alpha  occ. eigenvalues --   -0.12073   0.04098
 Alpha virt. eigenvalues --    0.05913   0.07586   0.07711   0.08028   0.09258
 Alpha virt. eigenvalues --    0.09492   0.10488   0.10663   0.11181   0.11527
 Alpha virt. eigenvalues --    0.11824   0.12606   0.12931   0.13522   0.13750

  Beta  occ. eigenvalues --  -18.99005 -14.23094 -14.20314 -14.19542 -10.17587
  Beta  occ. eigenvalues --  -10.10927 -10.09266 -10.09243 -10.08541 -10.07799
  Beta  occ. eigenvalues --  -10.07386 -10.06726 -10.05868  -0.93970  -0.83545
  Beta  occ. eigenvalues --   -0.80439  -0.78566  -0.70525  -0.65592  -0.63493
  Beta  occ. eigenvalues --   -0.60492  -0.55614  -0.52676  -0.49480  -0.46442
  Beta  occ. eigenvalues --   -0.45782  -0.42903  -0.41042  -0.39713  -0.38947
  Beta  occ. eigenvalues --   -0.36568  -0.35829  -0.34895  -0.32805  -0.31854
  Beta  occ. eigenvalues --   -0.31134  -0.30739  -0.30463  -0.28933  -0.28464
  Beta  occ. eigenvalues --   -0.27872  -0.25589  -0.24329  -0.23972  -0.23504
  Beta  occ. eigenvalues --   -0.22697  -0.22378  -0.17638  -0.15943  -0.14781
  Beta  occ. eigenvalues --   -0.12053
  Beta virt. eigenvalues --    0.06558   0.07192   0.07769   0.08184   0.08681
  Beta virt. eigenvalues --    0.09669   0.10121   0.10671   0.10927   0.11465
  Beta virt. eigenvalues --    0.11784   0.12463   0.12775   0.13310   0.13898

 Mulliken charges and spin densities:
               1          2
     1  C    1.715983  -2.312747
     2  C   -2.103714   1.978342
     3  C    1.134842  -1.627428
     4  C   -0.196629   0.141777
     5  O   -0.326285   0.003299
     6  N   -0.256455  -0.043207
     7  N    0.320095  -0.019782
     8  C   -0.190861  -0.189995
     9  C   -0.199360  -0.316228
    10  C   -0.083128   0.482155
    11  C   -0.274993  -0.118864
    12  C    0.852550  -1.456900
    13  N   -0.442676   0.093376
    14  H    0.091270   0.072222
    15  H   -0.250425   0.382472
    16  H   -0.576787   0.735130
    17  H    0.287951  -0.145671
    18  H    0.223287  -0.033865
    19  H   -0.389378   0.592542
    20  H   -0.224485   0.486644
    21  H   -0.094857   0.372582
    22  H    0.137851   0.003239
    23  H    0.214651  -0.010642
    24  H   -0.142583   0.313561
    25  H    0.046376   0.124097
    26  H    0.165429   0.012150
    27  H    0.244752  -0.165266
    28  H    0.115870   0.066297
    29  H   -0.123221   0.286155
    30  H   -0.566126   0.722296
    31  H   -0.135946   0.379770
    32  H    0.027003   0.192488
 Sum of Mulliken charges =  -1.00000   1.00000

 Dipole moment (field-independent basis, Debye):
    X=             -1.2076    Y=             -3.0649    Z=              3.8242  Tot=              5.0475
 Quadrupole moment (field-independent basis, Debye-Ang):
   XX=           -167.3219   YY=           -125.3340   ZZ=           -112.8448
   XY=             -2.0833   XZ=             -5.6577   YZ=              6.4308

 Summary of Natural Population Analysis:

                                       Natural Population
                Natural  -----------------------------------------------
    Atom  No    Charge         Core      Valence    Rydberg      Total
 -----------------------------------------------------------------------
      C    1   -0.29071      0.99964     2.28389    0.00719     3.29071
      C    2   -0.00661      0.99958     1.99172    0.01531     3.00661
      C    3   -0.23744      0.99956     2.22826    0.00962     3.23744
      C    4    0.34411      0.99970     1.63193    0.02426     2.65589
      O    5   -0.32408      0.99987     3.31850    0.00571     4.32408
      N    6   -0.40215      0.99970     2.89418    0.00826     3.90215
      N    7   -0.28119      0.99973     2.77065    0.01082     3.78119
      C    8   -0.09085      0.99962     2.08125    0.00998     3.09085
      C    9   -0.20446      0.99962     2.19728    0.00756     3.20446
      C   10   -0.12538      0.99960     2.11497    0.01081     3.12538
      C   11   -0.08501      0.99961     2.07450    0.01090     3.08501
      C   12   -0.08395      0.99960     2.07296    0.01138     3.08395
      N   13   -0.42309      0.99977     2.91302    0.01030     3.92309
      H   14    0.09933      0.00000     0.39869    0.00198     0.40067
      H   15    0.10099      0.00000     0.39789    0.00112     0.39901
      H   16    0.10237      0.00000     0.39545    0.00217     0.39763
      H   17    0.08596      0.00000     0.41079    0.00325     0.41404
      H   18    0.11103      0.00000     0.38787    0.00109     0.38897
      H   19    0.11263      0.00000     0.38575    0.00162     0.38737
      H   20    0.19801      0.00000     0.29756    0.00443     0.30199
      H   21    0.19355      0.00000     0.30443    0.00202     0.30645
      H   22    0.08942      0.00000     0.40963    0.00095     0.41058
      H   23    0.11268      0.00000     0.38599    0.00133     0.38732
      H   24    0.09575      0.00000     0.40297    0.00128     0.40425
      H   25    0.10084      0.00000     0.39825    0.00091     0.39916
      H   26    0.09871      0.00000     0.39999    0.00131     0.40129
      H   27    0.09826      0.00000     0.40063    0.00111     0.40174
      H   28    0.09324      0.00000     0.40584    0.00092     0.40676
      H   29    0.08837      0.00000     0.41036    0.00126     0.41163
      H   30    0.08031      0.00000     0.41688    0.00281     0.41969
      H   31    0.17661      0.00000     0.32108    0.00231     0.32339
      H   32    0.17276      0.00000     0.32515    0.00209     0.32724
 =======================================================================
   * Total *   -0.00000     12.99561    37.82833    0.17606    51.00000

 Normal termination of Gaussian 16 at Wed Dec  9 23:08:01 2020.
