 Gaussian 16, Revision A.03,

 -----------------------------------------------------------
 # opt freq B3LYP/6-31G(d) empiricaldispersion=gd3bj scf=xqc
 -----------------------------------------------------------

 -------------------------------
 CID_140988306_JID_2050_neutraal
 -------------------------------
 Symbolic Z-matrix:
 Charge =  0 Multiplicity = 1

 SCF Done:  E(RB3LYP) =  -517.553899208     A.U. after   17 cycles
 SCF Done:  E(RB3LYP) =  -517.562828865     A.U. after   14 cycles
 SCF Done:  E(RB3LYP) =  -517.563787185     A.U. after   13 cycles
 SCF Done:  E(RB3LYP) =  -517.564049120     A.U. after   12 cycles
 SCF Done:  E(RB3LYP) =  -517.564094046     A.U. after   11 cycles
 SCF Done:  E(RB3LYP) =  -517.564118528     A.U. after   10 cycles
 SCF Done:  E(RB3LYP) =  -517.564128181     A.U. after   10 cycles
 SCF Done:  E(RB3LYP) =  -517.564128676     A.U. after    8 cycles
 SCF Done:  E(RB3LYP) =  -517.564128971     A.U. after    8 cycles
 Optimization completed.
    -- Stationary point found.
 Normal termination of Gaussian 16 at Wed Dec  9 16:45:21 2020.

 --------------------------------------------------------------------
 #N Geom=AllCheck Guess=TCheck SCRF=Check GenChk RB3LYP/6-31G(d) Freq
 --------------------------------------------------------------------

 Structure from the checkpoint file:  "JID_2050.chk"
 -------------------------------
 CID_140988306_JID_2050_neutraal
 -------------------------------
 Charge =  0 Multiplicity = 1

 SCF Done:  E(RB3LYP) =  -517.564128971     A.U. after    1 cycles

  Exact polarizability: 132.358  -0.852 108.235 -10.254  -3.021  85.610
 Approx polarizability: 210.727  17.855 189.916 -24.451  -9.984 137.704

                      1                      2                      3
                      A                      A                      A
 Frequencies --     80.4136               114.9901               150.9173
 Red. masses --      3.3399                 3.5736                 3.6520
 Frc consts  --      0.0127                 0.0278                 0.0490
 IR Inten    --      2.0129                 0.4035                 2.4752

                      4                      5                      6
                      A                      A                      A
 Frequencies --    187.8499               241.9888               323.1603
 Red. masses --      3.2784                 2.7472                 2.8512
 Frc consts  --      0.0682                 0.0948                 0.1754
 IR Inten    --      1.5406                 0.1427                 2.7342

                      7                      8                      9
                      A                      A                      A
 Frequencies --    330.3782               370.6330               425.1197
 Red. masses --      3.9402                 3.8180                 4.0364
 Frc consts  --      0.2534                 0.3090                 0.4298
 IR Inten    --      0.7277                 4.3043                 3.8168

                     10                     11                     12
                      A                      A                      A
 Frequencies --    447.5078               477.3990               535.5249
 Red. masses --      3.8513                 2.3724                 3.8704
 Frc consts  --      0.4544                 0.3186                 0.6540
 IR Inten    --      3.5685                 4.4649                 1.7606

                     13                     14                     15
                      A                      A                      A
 Frequencies --    544.4935               650.7892               662.7643
 Red. masses --      3.4430                 2.6184                 2.7215
 Frc consts  --      0.6014                 0.6534                 0.7043
 IR Inten    --     14.5799                 5.7162                10.0051

                     16                     17                     18
                      A                      A                      A
 Frequencies --    740.2555               758.6990               775.8194
 Red. masses --      1.6282                 1.6297                 4.1882
 Frc consts  --      0.5257                 0.5527                 1.4853
 IR Inten    --     10.7039                38.1610                 2.8789

                     19                     20                     21
                      A                      A                      A
 Frequencies --    792.4747               818.1122               828.7860
 Red. masses --      1.8948                 2.5955                 2.0528
 Frc consts  --      0.7011                 1.0235                 0.8308
 IR Inten    --      7.7447                28.1824                19.4220

                     22                     23                     24
                      A                      A                      A
 Frequencies --    844.6907               869.4571               942.0697
 Red. masses --      2.5035                 1.8218                 2.6010
 Frc consts  --      1.0524                 0.8114                 1.3601
 IR Inten    --     22.1745                 0.6570                 4.3155

                     25                     26                     27
                      A                      A                      A
 Frequencies --    954.7235               970.6288               975.7000
 Red. masses --      2.7194                 1.2792                 1.3719
 Frc consts  --      1.4604                 0.7101                 0.7695
 IR Inten    --      0.2867                 0.8369                 0.7754

                     28                     29                     30
                      A                      A                      A
 Frequencies --    983.5507              1003.6518              1014.8559
 Red. masses --      1.3651                 2.2744                 2.3376
 Frc consts  --      0.7781                 1.3499                 1.4185
 IR Inten    --      0.2861                 1.4034                 7.6983

                     31                     32                     33
                      A                      A                      A
 Frequencies --   1046.2061              1082.9518              1113.5587
 Red. masses --      1.9632                 2.1711                 2.4800
 Frc consts  --      1.2661                 1.5002                 1.8119
 IR Inten    --      2.1430                 5.3077                 9.7787

                     34                     35                     36
                      A                      A                      A
 Frequencies --   1143.8181              1166.8245              1221.3793
 Red. masses --      1.7378                 1.5239                 1.6057
 Frc consts  --      1.3396                 1.2224                 1.4113
 IR Inten    --      4.2955                 0.1768                 1.2298

                     37                     38                     39
                      A                      A                      A
 Frequencies --   1242.4256              1248.3119              1256.6067
 Red. masses --      1.2626                 1.1422                 1.5693
 Frc consts  --      1.1483                 1.0486                 1.4600
 IR Inten    --      5.5672                27.1313                34.9026

                     40                     41                     42
                      A                      A                      A
 Frequencies --   1307.3146              1329.1092              1338.5881
 Red. masses --      2.5727                 1.4791                 1.4899
 Frc consts  --      2.5906                 1.5394                 1.5729
 IR Inten    --     53.8320                12.0415                 0.2470

                     43                     44                     45
                      A                      A                      A
 Frequencies --   1377.0201              1395.2607              1417.7111
 Red. masses --      1.3767                 1.6974                 1.6062
 Frc consts  --      1.5380                 1.9469                 1.9021
 IR Inten    --      1.6209                 1.2314                 1.8855

                     46                     47                     48
                      A                      A                      A
 Frequencies --   1461.3098              1509.9118              1525.7621
 Red. masses --      1.7772                 1.0862                 1.1041
 Frc consts  --      2.2360                 1.4591                 1.5143
 IR Inten    --      0.9842                 1.9788                 2.1308

                     49                     50                     51
                      A                      A                      A
 Frequencies --   1568.7453              1668.8801              1702.1485
 Red. masses --      6.2824                 8.2401                 5.7933
 Frc consts  --      9.1092                13.5217                 9.8895
 IR Inten    --     75.5656                14.6375                 2.5850

                     52                     53                     54
                      A                      A                      A
 Frequencies --   1714.3100              3032.3493              3071.9592
 Red. masses --      5.7907                 1.0677                 1.0821
 Frc consts  --     10.0267                 5.7843                 6.0165
 IR Inten    --      0.7662                31.0404                 8.6837

                     55                     56                     57
                      A                      A                      A
 Frequencies --   3086.3581              3151.4838              3164.1324
 Red. masses --      1.0803                 1.0985                 1.0841
 Frc consts  --      6.0631                 6.4283                 6.3951
 IR Inten    --     38.9514                13.9383                 0.7076

                     58                     59                     60
                      A                      A                      A
 Frequencies --   3178.2202              3189.0049              3192.3478
 Red. masses --      1.0896                 1.0941                 1.0863
 Frc consts  --      6.4845                 6.5556                 6.5227
 IR Inten    --     14.8068                16.5965                10.3848

                     61                     62                     63
                      A                      A                      A
 Frequencies --   3217.7462              3237.7799              3260.3533
 Red. masses --      1.1032                 1.0891                 1.0933
 Frc consts  --      6.7297                 6.7267                 6.8470
 IR Inten    --     24.1832                 3.7657                 1.7794

 - Thermochemistry -
 -------------------
 Temperature   298.150 Kelvin.  Pressure   1.00000 Atm.
 Atom     1 has atomic number  6 and mass  12.00000

 Molecular mass:   161.08406 amu.
 Principal axes and moments of inertia in atomic units:
                           1         2         3
     Eigenvalues --  1150.316772232.193252678.40004
           X            0.99936  -0.03572  -0.00316
           Y            0.03567   0.99925  -0.01523
           Z            0.00370   0.01511   0.99988
 This molecule is an asymmetric top.
 Rotational symmetry number  1.
 Warning -- assumption of classical behavior for rotation
           may cause significant error
 Rotational temperatures (Kelvin)      0.07530     0.03880     0.03234
 Rotational constants (GHZ):           1.56891     0.80851     0.67381
 Zero-point vibrational energy     499065.8 (Joules/Mol)
                                  119.27960 (Kcal/Mol)
 Warning -- explicit consideration of  13 degrees of freedom as
           vibrations may cause significant error
 Vibrational temperatures:    115.70   165.45   217.14   270.27   348.17
          (Kelvin)            464.96   475.34   533.26   611.65   643.86
                              686.87   770.50   783.40   936.34   953.57
                             1065.06  1091.60  1116.23  1140.19  1177.08
                             1192.44  1215.32  1250.95  1355.43  1373.63
                             1396.52  1403.81  1415.11  1444.03  1460.15
                             1505.26  1558.13  1602.16  1645.70  1678.80
                             1757.29  1787.57  1796.04  1807.98  1880.93
                             1912.29  1925.93  1981.22  2007.47  2039.77
                             2102.50  2172.43  2195.23  2257.07  2401.15
                             2449.01  2466.51  4362.87  4419.86  4440.58
                             4534.28  4552.48  4572.75  4588.27  4593.08
                             4629.62  4658.44  4690.92

 Zero-point correction=                           0.190084 (Hartree/Particle)
 Thermal correction to Energy=                    0.199842
 Thermal correction to Enthalpy=                  0.200786
 Thermal correction to Gibbs Free Energy=         0.155128
 Sum of electronic and zero-point Energies=           -517.374045
 Sum of electronic and thermal Energies=              -517.364287
 Sum of electronic and thermal Enthalpies=            -517.363343
 Sum of electronic and thermal Free Energies=         -517.409001

                     E (Thermal)             CV                S
                      KCal/Mol        Cal/Mol-Kelvin    Cal/Mol-Kelvin
 Total                  125.403             39.614             96.095
 Electronic               0.000              0.000              0.000
 Translational            0.889              2.981             41.139
 Rotational               0.889              2.981             30.309
 Vibrational            123.625             33.653             24.646
 Vibration     1          0.600              1.962              3.881
 Vibration     2          0.608              1.937              3.183
 Vibration     3          0.618              1.902              2.661
 Vibration     4          0.633              1.857              2.249
 Vibration     5          0.658              1.776              1.788
 Vibration     6          0.708              1.629              1.294
 Vibration     7          0.713              1.615              1.258
 Vibration     8          0.743              1.533              1.077
 Vibration     9          0.787              1.416              0.875
 Vibration    10          0.807              1.366              0.803
 Vibration    11          0.834              1.300              0.717
 Vibration    12          0.891              1.171              0.575
 Vibration    13          0.900              1.152              0.556

 Optimization completed.
    -- Stationary point found.
 Normal termination of Gaussian 16 at Wed Dec  9 16:50:53 2020.

 ----------------------------------------------------------------------
 # B3LYP/6-311++G(d,p) empiricaldispersion=gd3bj scf=xqc pop=npa geom=c
 heck
 ----------------------------------------------------------------------

 ---------------------------------------
 CID_140988306_JID_2050_Energie_neutraal
 ---------------------------------------
 Structure from the checkpoint file:  "JID_2050.chk"
 Charge =  0 Multiplicity = 1

 SCF Done:  E(RB3LYP) =  -517.707885487     A.U. after   17 cycles
 Normal termination of Gaussian 16 at Wed Dec  9 16:53:11 2020.

 ----------------------------------------------------------------------
 # B3LYP/6-311++G(d,p) empiricaldispersion=gd3bj scf=xqc pop=npa geom=c
 heck
 ----------------------------------------------------------------------

 -------------------------------------
 CID_140988306_JID_2050_Energie_kation
 -------------------------------------
 Structure from the checkpoint file:  "JID_2050.chk"
 Charge =  1 Multiplicity = 2

 SCF Done:  E(UB3LYP) =  -517.415375273     A.U. after   27 cycles
 Normal termination of Gaussian 16 at Wed Dec  9 16:57:44 2020.
 Gaussian 16:  ES64L-G16RevA.03 25-Dec-2016

 ----------------------------------------------------------------------
 # B3LYP/6-311++G(d,p) empiricaldispersion=gd3bj scf=xqc pop=npa geom=c
 heck
 ----------------------------------------------------------------------

 ------------------------------------
 CID_140988306_JID_2050_Energie_anion
 ------------------------------------
 Structure from the checkpoint file:  "JID_2050.chk"
 Charge = -1 Multiplicity = 2

                         Standard orientation:
 ---------------------------------------------------------------------
 Center     Atomic      Atomic             Coordinates (Angstroms)
 Number     Number       Type             X           Y           Z
 ---------------------------------------------------------------------
      1          6           0        2.461162   -0.484000    1.174894
      2          6           0        1.131243    0.301926    1.148105
      3          6           0        0.654677    0.270002   -0.347650
      4          6           0        1.971781    0.027270   -1.073647
      5          6           0        2.937131   -0.387079   -0.253812
      6          6           0       -0.018492    1.554300   -0.793230
      7          6           0       -1.199506    1.980190   -0.309260
      8          6           0       -2.041597    1.219818    0.590609
      9          6           0       -2.129350   -0.121106    0.688867
     10          7           0       -1.468212   -1.075514   -0.144433
     11          6           0       -0.271367   -0.878959   -0.669022
     12          8           0       -2.156808   -2.139641   -0.359000
     13          1           0        3.174645   -0.067053    1.895411
     14          1           0        2.308597   -1.535671    1.457167
     15          1           0        0.381034   -0.092821    1.834493
     16          1           0        1.316940    1.346389    1.418988
     17          1           0        2.052650    0.136597   -2.151827
     18          1           0        3.940779   -0.662538   -0.564508
     19          1           0        0.512399    2.167043   -1.519284
     20          1           0       -1.568570    2.960382   -0.603465
     21          1           0       -2.735589    1.781616    1.211921
     22          1           0       -2.856064   -0.616768    1.318704
     23          1           0        0.031040   -1.665614   -1.349692
 ---------------------------------------------------------------------

 SCF Done:  E(UB3LYP) =  -517.715631231     A.U. after   31 cycles

 The electronic state is 2-A.
 Alpha  occ. eigenvalues --  -18.90960 -14.26624 -10.05531 -10.05466 -10.05358
 Alpha  occ. eigenvalues --  -10.05028 -10.03664 -10.02621 -10.02415 -10.01477
 Alpha  occ. eigenvalues --  -10.00531 -10.00393  -0.92048  -0.73524  -0.69031
 Alpha  occ. eigenvalues --   -0.63531  -0.61978  -0.59044  -0.55103  -0.50447
 Alpha  occ. eigenvalues --   -0.46855  -0.42139  -0.40391  -0.38059  -0.37115
 Alpha  occ. eigenvalues --   -0.34124  -0.32765  -0.30085  -0.29427  -0.27687
 Alpha  occ. eigenvalues --   -0.26641  -0.25748  -0.25127  -0.23310  -0.22977
 Alpha  occ. eigenvalues --   -0.21643  -0.20882  -0.18646  -0.15470  -0.13430
 Alpha  occ. eigenvalues --   -0.08969  -0.07210  -0.05203   0.05444
 Alpha virt. eigenvalues --    0.07937   0.09677   0.09849   0.10984   0.11378
 Alpha virt. eigenvalues --    0.11656   0.11939   0.12825   0.13164   0.14021
 Alpha virt. eigenvalues --    0.14200   0.14556   0.15857   0.17811   0.18285

  Beta  occ. eigenvalues --  -18.90969 -14.26656 -10.05581 -10.05460 -10.05362
  Beta  occ. eigenvalues --  -10.05020 -10.03655 -10.02140 -10.02113 -10.01570
  Beta  occ. eigenvalues --  -10.00242  -9.99874  -0.91941  -0.73365  -0.68732
  Beta  occ. eigenvalues --   -0.63041  -0.61429  -0.59011  -0.54887  -0.49528
  Beta  occ. eigenvalues --   -0.46671  -0.42079  -0.40136  -0.37850  -0.36678
  Beta  occ. eigenvalues --   -0.33988  -0.32544  -0.29790  -0.29157  -0.27458
  Beta  occ. eigenvalues --   -0.26257  -0.25592  -0.24967  -0.23137  -0.22796
  Beta  occ. eigenvalues --   -0.21415  -0.20798  -0.18386  -0.14244  -0.13237
  Beta  occ. eigenvalues --   -0.08021  -0.06176  -0.03959
  Beta virt. eigenvalues --    0.07840   0.09608   0.09768   0.10910   0.11290
  Beta virt. eigenvalues --    0.11593   0.11992   0.12275   0.13009   0.13181
  Beta virt. eigenvalues --    0.14057   0.14271   0.14778   0.15767   0.17894

 Mulliken charges and spin densities:
               1          2
     1  C   -0.395752  -0.230739
     2  C   -0.549863   0.043163
     3  C    1.456478   0.099740
     4  C   -0.256705  -0.139481
     5  C   -0.216845   0.107177
     6  C   -0.447524   0.302198
     7  C   -0.468008  -0.006006
     8  C   -0.103673   0.261588
     9  C   -0.381386   0.141784
    10  N   -0.140587  -0.041462
    11  C   -0.616880   0.356102
    12  O   -0.215480  -0.000465
    13  H    0.097095   0.032010
    14  H    0.115064   0.034970
    15  H    0.183201  -0.016098
    16  H    0.128953   0.034473
    17  H    0.164694   0.002606
    18  H    0.072757   0.048172
    19  H    0.107014  -0.026087
    20  H    0.083253   0.035476
    21  H    0.092731   0.003635
    22  H    0.144563  -0.017295
    23  H    0.146899  -0.025461
 Sum of Mulliken charges =  -1.00000   1.00000

 Dipole moment (field-independent basis, Debye):
    X=              5.6130    Y=              2.4839    Z=              0.8947  Tot=              6.2029
 Quadrupole moment (field-independent basis, Debye-Ang):
   XX=            -98.3869   YY=            -97.9485   ZZ=            -80.1708
   XY=             -9.7751   XZ=             -3.5364   YZ=             -2.7822

 Summary of Natural Population Analysis:

                                       Natural Population
                Natural  -----------------------------------------------
    Atom  No    Charge         Core      Valence    Rydberg      Total
 -----------------------------------------------------------------------
      C    1   -0.20765      0.99964     2.20017    0.00785     3.20765
      C    2   -0.17525      0.99961     2.16712    0.00851     3.17525
      C    3   -0.10601      0.99954     2.09199    0.01448     3.10601
      C    4   -0.07011      0.99951     2.05993    0.01067     3.07011
      C    5   -0.10403      0.99952     2.09532    0.00919     3.10403
      C    6    0.02434      0.99951     1.96628    0.00986     2.97566
      C    7   -0.14590      0.99954     2.13673    0.00963     3.14590
      C    8   -0.07573      0.99955     2.06636    0.00982     3.07573
      C    9    0.02947      0.99949     1.95953    0.01150     2.97053
      N   10    0.01104      0.99956     2.47449    0.01491     3.48896
      C   11    0.12674      0.99955     1.86001    0.01370     2.87326
      O   12   -0.33160      0.99992     3.32267    0.00901     4.33160
      H   13    0.09228      0.00000     0.40593    0.00179     0.40772
      H   14    0.09789      0.00000     0.40026    0.00185     0.40211
      H   15    0.10855      0.00000     0.39016    0.00129     0.39145
      H   16    0.09745      0.00000     0.40118    0.00136     0.40255
      H   17    0.09709      0.00000     0.40203    0.00089     0.40291
      H   18    0.09067      0.00000     0.40787    0.00145     0.40933
      H   19    0.08111      0.00000     0.41749    0.00140     0.41889
      H   20    0.09191      0.00000     0.40613    0.00196     0.40809
      H   21    0.08848      0.00000     0.40963    0.00189     0.41152
      H   22    0.09157      0.00000     0.40715    0.00129     0.40843
      H   23    0.08768      0.00000     0.41118    0.00114     0.41232
 =======================================================================
   * Total *    0.00000     11.99495    30.85959    0.14546    43.00000

 Normal termination of Gaussian 16 at Wed Dec  9 17:02:55 2020.
