 Gaussian 16, Revision A.03,

 -----------------------------------------------------------
 # opt freq B3LYP/6-31G(d) empiricaldispersion=gd3bj scf=xqc
 -----------------------------------------------------------

 -------------------------------
 CID_47099028_JID_10932_neutraal
 -------------------------------
 Symbolic Z-matrix:
 Charge =  0 Multiplicity = 1

 SCF Done:  E(RB3LYP) =  -1672.45693761     A.U. after   15 cycles
 SCF Done:  E(RB3LYP) =  -1672.46756742     A.U. after   13 cycles
 SCF Done:  E(RB3LYP) =  -1672.46853148     A.U. after   12 cycles
 SCF Done:  E(RB3LYP) =  -1672.46929563     A.U. after   12 cycles
 SCF Done:  E(RB3LYP) =  -1672.46981667     A.U. after   12 cycles
 SCF Done:  E(RB3LYP) =  -1672.47112974     A.U. after   15 cycles
 SCF Done:  E(RB3LYP) =  -1672.47148393     A.U. after   15 cycles
 SCF Done:  E(RB3LYP) =  -1672.47207611     A.U. after   12 cycles
 SCF Done:  E(RB3LYP) =  -1672.47244933     A.U. after   12 cycles
 SCF Done:  E(RB3LYP) =  -1672.47271619     A.U. after   13 cycles
 SCF Done:  E(RB3LYP) =  -1672.47596001     A.U. after   10 cycles
 SCF Done:  E(RB3LYP) =  -1672.47596067     A.U. after   10 cycles
 SCF Done:  E(RB3LYP) =  -1672.47596092     A.U. after    8 cycles
 SCF Done:  E(RB3LYP) =  -1672.47596097     A.U. after    8 cycles
 SCF Done:  E(RB3LYP) =  -1672.47596097     A.U. after    7 cycles
 Optimization completed.
    -- Stationary point found.
 Normal termination of Gaussian 16 at Sun Dec 13 17:36:00 2020.

 --------------------------------------------------------------------
 #N Geom=AllCheck Guess=TCheck SCRF=Check GenChk RB3LYP/6-31G(d) Freq
 --------------------------------------------------------------------

 Structure from the checkpoint file:  "JID_10932.chk"
 -------------------------------
 CID_47099028_JID_10932_neutraal
 -------------------------------
 Charge =  0 Multiplicity = 1

 SCF Done:  E(RB3LYP) =  -1672.47596097     A.U. after    1 cycles

  Exact polarizability: 236.065   8.709 162.316  -8.928  -2.002 150.849
 Approx polarizability: 323.113  14.612 251.631 -26.370  -2.935 266.358

                      1                      2                      3
                      A                      A                      A
 Frequencies --     10.7629                15.8878                29.2819
 Red. masses --      6.1624                 6.2782                 5.3770
 Frc consts  --      0.0004                 0.0009                 0.0027
 IR Inten    --      2.0071                 0.7855                 1.7569

                      4                      5                      6
                      A                      A                      A
 Frequencies --     33.3705                61.0053                79.8119
 Red. masses --      4.9495                 6.4464                 7.8544
 Frc consts  --      0.0032                 0.0141                 0.0295
 IR Inten    --      0.7893                 1.3227                 1.1312

                      7                      8                      9
                      A                      A                      A
 Frequencies --    105.7822               113.4561               123.0465
 Red. masses --      1.1011                 2.2919                 6.7605
 Frc consts  --      0.0073                 0.0174                 0.0603
 IR Inten    --      0.5087                 3.0416                 2.7403

                     10                     11                     12
                      A                      A                      A
 Frequencies --    137.0040               148.5612               168.7270
 Red. masses --      1.3149                 1.9540                 3.2483
 Frc consts  --      0.0145                 0.0254                 0.0545
 IR Inten    --      5.0381                14.9434                 6.2462

                     13                     14                     15
                      A                      A                      A
 Frequencies --    189.8154               202.4997               214.6166
 Red. masses --      4.5440                 4.0365                 3.5724
 Frc consts  --      0.0965                 0.0975                 0.0969
 IR Inten    --      1.7782                 3.3877                15.5307

                     16                     17                     18
                      A                      A                      A
 Frequencies --    253.2667               269.2874               293.2255
 Red. masses --      2.9203                 3.8774                 3.9019
 Frc consts  --      0.1104                 0.1657                 0.1977
 IR Inten    --      3.3195                 5.9995                 5.9245

                     19                     20                     21
                      A                      A                      A
 Frequencies --    320.7973               322.4022               350.9491
 Red. masses --      5.1761                 6.1425                 2.8249
 Frc consts  --      0.3138                 0.3762                 0.2050
 IR Inten    --      0.8248                 1.0396                 8.5935

                     22                     23                     24
                      A                      A                      A
 Frequencies --    367.9106               403.2873               413.4284
 Red. masses --      6.5381                 3.3601                 5.2707
 Frc consts  --      0.5214                 0.3220                 0.5308
 IR Inten    --      5.7125                 3.4403                 2.7751

                     25                     26                     27
                      A                      A                      A
 Frequencies --    434.2848               472.7782               529.4639
 Red. masses --      4.9817                 8.3964                 5.7077
 Frc consts  --      0.5536                 1.1058                 0.9427
 IR Inten    --      4.9001                 2.2374                19.4004

                     28                     29                     30
                      A                      A                      A
 Frequencies --    545.4762               562.9797               575.7877
 Red. masses --      4.2299                 4.7339                 3.4848
 Frc consts  --      0.7415                 0.8840                 0.6807
 IR Inten    --     79.4660                57.7812                 1.2279

                     31                     32                     33
                      A                      A                      A
 Frequencies --    604.6514               626.3597               639.4774
 Red. masses --      2.1325                 4.4444                 4.9860
 Frc consts  --      0.4594                 1.0273                 1.2013
 IR Inten    --     55.5886                 1.1789                 8.2195

                     34                     35                     36
                      A                      A                      A
 Frequencies --    645.3174               659.4368               685.7411
 Red. masses --      5.2634                 7.4139                 2.8617
 Frc consts  --      1.2914                 1.8995                 0.7928
 IR Inten    --     21.3532                11.1020               149.7052

                     37                     38                     39
                      A                      A                      A
 Frequencies --    689.8945               716.2991               764.2855
 Red. masses --      2.4420                 3.4094                 6.4293
 Frc consts  --      0.6848                 1.0307                 2.2127
 IR Inten    --    112.9353                17.3616                 3.9328

                     40                     41                     42
                      A                      A                      A
 Frequencies --    775.2279               786.8147               819.4365
 Red. masses --      4.9590                 4.5905                 1.2409
 Frc consts  --      1.7559                 1.6744                 0.4909
 IR Inten    --      8.6555                28.8832                17.6699

                     43                     44                     45
                      A                      A                      A
 Frequencies --    831.1769               877.3466               915.4158
 Red. masses --      1.3035                 2.0422                 1.3734
 Frc consts  --      0.5306                 0.9261                 0.6781
 IR Inten    --     13.0457               151.2792                 3.3356

                     46                     47                     48
                      A                      A                      A
 Frequencies --    952.0695               967.1127              1023.7875
 Red. masses --      2.3428                 2.0235                 2.8491
 Frc consts  --      1.2512                 1.1151                 1.7594
 IR Inten    --     12.1754                75.7896                59.0264

                     49                     50                     51
                      A                      A                      A
 Frequencies --   1025.8636              1047.1016              1078.1268
 Red. masses --      2.8879                 1.5438                 1.4510
 Frc consts  --      1.7907                 0.9973                 0.9937
 IR Inten    --     13.0999                18.0185                 0.0501

                     52                     53                     54
                      A                      A                      A
 Frequencies --   1085.2922              1094.4147              1097.1763
 Red. masses --      1.4883                 2.9160                 2.3603
 Frc consts  --      1.0328                 2.0578                 1.6740
 IR Inten    --      3.4262                22.0626                36.6370

                     55                     56                     57
                      A                      A                      A
 Frequencies --   1110.7905              1141.5540              1148.5039
 Red. masses --      1.4362                 5.4204                 3.9420
 Frc consts  --      1.0441                 4.1618                 3.0636
 IR Inten    --      6.5543               241.1039                20.3581

                     58                     59                     60
                      A                      A                      A
 Frequencies --   1185.0472              1197.3748              1241.0683
 Red. masses --      1.6968                 4.6417                 1.3759
 Frc consts  --      1.4039                 3.9209                 1.2486
 IR Inten    --     14.7227                 7.3982                15.8122

                     61                     62                     63
                      A                      A                      A
 Frequencies --   1257.6568              1267.0153              1286.8154
 Red. masses --      4.5502                 2.5001                 1.8036
 Frc consts  --      4.2403                 2.3647                 1.7597
 IR Inten    --     81.7913               158.7471                 2.2568

                     64                     65                     66
                      A                      A                      A
 Frequencies --   1342.9504              1349.0398              1364.9368
 Red. masses --      2.4243                 5.3715                 2.9426
 Frc consts  --      2.5760                 5.7597                 3.2300
 IR Inten    --     72.9271                99.0119               151.8863

                     67                     68                     69
                      A                      A                      A
 Frequencies --   1406.1672              1426.1999              1446.4898
 Red. masses --      1.8752                 1.5810                 1.3233
 Frc consts  --      2.1846                 1.8947                 1.6313
 IR Inten    --     65.1414                26.0738                16.4907

                     70                     71                     72
                      A                      A                      A
 Frequencies --   1449.9076              1486.8041              1500.4788
 Red. masses --      2.2601                 1.6661                 3.6201
 Frc consts  --      2.7994                 2.1700                 4.8021
 IR Inten    --     56.9950                61.0845                37.3537

                     73                     74                     75
                      A                      A                      A
 Frequencies --   1502.3019              1503.4085              1515.1624
 Red. masses --      1.0447                 1.1017                 1.2060
 Frc consts  --      1.3891                 1.4671                 1.6312
 IR Inten    --      5.2385                14.2959                 8.6476

                     76                     77                     78
                      A                      A                      A
 Frequencies --   1517.6773              1520.9583              1596.8643
 Red. masses --      1.0813                 1.1100                 5.3247
 Frc consts  --      1.4674                 1.5129                 7.9999
 IR Inten    --     12.2872                 7.8739                 3.7604

                     79                     80                     81
                      A                      A                      A
 Frequencies --   1620.6041              1631.9883              1670.1149
 Red. masses --      1.1083                 6.7586                 6.6606
 Frc consts  --      1.7150                10.6057                10.9461
 IR Inten    --     39.8701               153.9524                 6.0201

                     82                     83                     84
                      A                      A                      A
 Frequencies --   1762.4644              3038.7731              3047.6189
 Red. masses --      7.8712                 1.0703                 1.0382
 Frc consts  --     14.4055                 5.8231                 5.6813
 IR Inten    --    350.7353                30.5303                29.1962

                     85                     86                     87
                      A                      A                      A
 Frequencies --   3049.6437              3098.4977              3098.8145
 Red. masses --      1.0404                 1.1015                 1.1010
 Frc consts  --      5.7009                 6.2306                 6.2292
 IR Inten    --     31.8265                 6.5670                20.7178

                     88                     89                     90
                      A                      A                      A
 Frequencies --   3111.7276              3145.7991              3183.6780
 Red. masses --      1.0923                 1.0996                 1.0973
 Frc consts  --      6.2318                 6.4116                 6.5531
 IR Inten    --      1.4787                 9.1647                 0.0102

                     91                     92                     93
                      A                      A                      A
 Frequencies --   3219.6991              3252.7936              3277.6092
 Red. masses --      1.0918                 1.0953                 1.0966
 Frc consts  --      6.6686                 6.8280                 6.9412
 IR Inten    --      5.7822                 0.2879                 3.5206

                     94                     95                     96
                      A                      A                      A
 Frequencies --   3490.4293              3579.9784              3602.4178
 Red. masses --      1.0467                 1.0756                 1.0980
 Frc consts  --      7.5131                 8.1218                 8.3954
 IR Inten    --     38.1917                27.8519                33.3989

 - Thermochemistry -
 -------------------
 Temperature   298.150 Kelvin.  Pressure   1.00000 Atm.
 Atom     1 has atomic number  6 and mass  12.00000

 Molecular mass:   314.03950 amu.
 Principal axes and moments of inertia in atomic units:
                           1         2         3
     Eigenvalues --  3260.11750********************
           X            0.99996  -0.00937   0.00095
           Y            0.00937   0.99995  -0.00285
           Z           -0.00092   0.00286   1.00000
 This molecule is an asymmetric top.
 Rotational symmetry number  1.
 Warning -- assumption of classical behavior for rotation
           may cause significant error
 Rotational temperatures (Kelvin)      0.02657     0.00645     0.00594
 Rotational constants (GHZ):           0.55358     0.13435     0.12368
 Zero-point vibrational energy     674721.4 (Joules/Mol)
                                  161.26228 (Kcal/Mol)
 Warning -- explicit consideration of  31 degrees of freedom as
           vibrations may cause significant error
 Vibrational temperatures:     15.49    22.86    42.13    48.01    87.77
          (Kelvin)            114.83   152.20   163.24   177.04   197.12
                              213.75   242.76   273.10   291.35   308.79
                              364.39   387.44   421.89   461.56   463.86
                              504.94   529.34   580.24   594.83   624.84
                              680.22   761.78   784.82   810.00   828.43
                              869.96   901.19   920.07   928.47   948.78
                              986.63   992.60  1030.59  1099.64  1115.38
                             1132.05  1178.99  1195.88  1262.31  1317.08
                             1369.82  1391.46  1473.00  1475.99  1506.55
                             1551.18  1561.49  1574.62  1578.59  1598.18
                             1642.44  1652.44  1705.02  1722.76  1785.62
                             1809.49  1822.95  1851.44  1932.21  1940.97
                             1963.84  2023.16  2051.98  2081.18  2086.09
                             2139.18  2158.85  2161.48  2163.07  2179.98
                             2183.60  2188.32  2297.53  2331.69  2348.07
                             2402.92  2535.79  4372.12  4384.84  4387.76
                             4458.05  4458.50  4477.08  4526.10  4580.60
                             4632.43  4680.04  4715.75  5021.95  5150.79
                             5183.08

 Zero-point correction=                           0.256988 (Hartree/Particle)
 Thermal correction to Energy=                    0.277542
 Thermal correction to Enthalpy=                  0.278486
 Thermal correction to Gibbs Free Energy=         0.203677
 Sum of electronic and zero-point Energies=          -1672.218973
 Sum of electronic and thermal Energies=             -1672.198419
 Sum of electronic and thermal Enthalpies=           -1672.197475
 Sum of electronic and thermal Free Energies=        -1672.272284

                     E (Thermal)             CV                S
                      KCal/Mol        Cal/Mol-Kelvin    Cal/Mol-Kelvin
 Total                  174.160             74.526            157.449
 Electronic               0.000              0.000              0.000
 Translational            0.889              2.981             43.129
 Rotational               0.889              2.981             34.812
 Vibrational            172.383             68.564             79.507
 Vibration     1          0.593              1.987              7.865
 Vibration     2          0.593              1.986              7.091
 Vibration     3          0.593              1.984              5.877
 Vibration     4          0.594              1.983              5.618
 Vibration     5          0.597              1.973              4.424
 Vibration     6          0.600              1.963              3.895
 Vibration     7          0.605              1.945              3.345
 Vibration     8          0.607              1.938              3.209
 Vibration     9          0.610              1.930              3.052
 Vibration    10          0.614              1.916              2.845
 Vibration    11          0.618              1.904              2.691
 Vibration    12          0.625              1.881              2.450
 Vibration    13          0.633              1.854              2.230
 Vibration    14          0.639              1.836              2.110
 Vibration    15          0.645              1.819              2.004
 Vibration    16          0.664              1.757              1.708
 Vibration    17          0.674              1.730              1.601
 Vibration    18          0.688              1.686              1.455
 Vibration    19          0.706              1.634              1.306
 Vibration    20          0.707              1.631              1.298
 Vibration    21          0.728              1.573              1.162
 Vibration    22          0.741              1.538              1.088
 Vibration    23          0.769              1.463              0.951
 Vibration    24          0.777              1.441              0.915
 Vibration    25          0.795              1.396              0.845
 Vibration    26          0.830              1.310              0.730
 Vibration    27          0.884              1.185              0.588
 Vibration    28          0.901              1.150              0.554
 Vibration    29          0.919              1.111              0.518
 Vibration    30          0.932              1.084              0.493
 Vibration    31          0.963              1.022              0.442

 Optimization completed.
    -- Stationary point found.
 Normal termination of Gaussian 16 at Sun Dec 13 17:52:20 2020.

 ----------------------------------------------------------------------
 # B3LYP/6-311++G(d,p) empiricaldispersion=gd3bj scf=xqc pop=npa geom=c
 heck
 ----------------------------------------------------------------------

 ---------------------------------------
 CID_47099028_JID_10932_Energie_neutraal
 ---------------------------------------
 Structure from the checkpoint file:  "JID_10932.chk"
 Charge =  0 Multiplicity = 1

 SCF Done:  E(RB3LYP) =  -1672.78327603     A.U. after   16 cycles
 Normal termination of Gaussian 16 at Sun Dec 13 17:59:00 2020.

 ----------------------------------------------------------------------
 # B3LYP/6-311++G(d,p) empiricaldispersion=gd3bj scf=xqc pop=npa geom=c
 heck
 ----------------------------------------------------------------------

 -------------------------------------
 CID_47099028_JID_10932_Energie_kation
 -------------------------------------
 Structure from the checkpoint file:  "JID_10932.chk"
 Charge =  1 Multiplicity = 2

 SCF Done:  E(UB3LYP) =  -1672.48673777     A.U. after   28 cycles
 Normal termination of Gaussian 16 at Sun Dec 13 18:15:05 2020.
 Gaussian 16:  ES64L-G16RevA.03 25-Dec-2016

 ----------------------------------------------------------------------
 # B3LYP/6-311++G(d,p) empiricaldispersion=gd3bj scf=xqc pop=npa geom=c
 heck
 ----------------------------------------------------------------------

 ------------------------------------
 CID_47099028_JID_10932_Energie_anion
 ------------------------------------
 Structure from the checkpoint file:  "JID_10932.chk"
 Charge = -1 Multiplicity = 2

                         Standard orientation:
 ---------------------------------------------------------------------
 Center     Atomic      Atomic             Coordinates (Angstroms)
 Number     Number       Type             X           Y           Z
 ---------------------------------------------------------------------
      1          6           0       -2.978212    3.448334   -0.552358
      2          6           0       -3.108609    2.001786   -0.238723
      3          6           0       -2.222175    0.979982   -0.118862
      4          6           0       -2.985284   -0.196280    0.235998
      5          6           0       -4.296632    0.207136    0.310827
      6          8           0       -4.380016    1.533709    0.010730
      7          6           0       -5.567729   -0.493233    0.623734
      8          6           0       -2.528804   -1.569034    0.536734
      9          8           0       -3.130453   -2.318420    1.301025
     10          7           0       -1.342545   -1.995510   -0.044004
     11          6           0       -0.796897   -1.563085   -1.320331
     12          6           0        0.620778   -1.065621   -1.211564
     13          6           0        1.544594   -0.899253   -2.213417
     14          6           0        2.772961   -0.350217   -1.751898
     15          6           0        2.754135   -0.121177   -0.400189
     16         16           0        1.240695   -0.563389    0.336394
     17         16           0        4.076727    0.602859    0.509678
     18          8           0        5.159834    0.829342   -0.451298
     19          8           0        3.557523    1.678788    1.354417
     20          7           0        4.494193   -0.638029    1.584254
     21          1           0       -3.546753    3.717642   -1.450864
     22          1           0       -3.348271    4.071325    0.270802
     23          1           0       -1.927104    3.694986   -0.723257
     24          1           0       -1.149553    1.060010   -0.217911
     25          1           0       -6.055237   -0.038283    1.494378
     26          1           0       -6.270092   -0.432545   -0.216568
     27          1           0       -5.353698   -1.536815    0.854826
     28          1           0       -1.117513   -2.941839    0.242239
     29          1           0       -0.830205   -2.386681   -2.046205
     30          1           0       -1.440037   -0.772468   -1.716466
     31          1           0        1.349973   -1.158840   -3.248564
     32          1           0        3.634982   -0.131020   -2.369717
     33          1           0        5.266405   -1.187421    1.211334
     34          1           0        4.742968   -0.218196    2.478376
 ---------------------------------------------------------------------

 SCF Done:  E(UB3LYP) =  -1672.79104042     A.U. after   33 cycles
 SCF Done:  E(UB3LYP) =  -1672.79104042     a.u. after    1 cycles

 The electronic state is 2-A.
 Alpha  occ. eigenvalues --  -88.94393 -88.73607 -19.09120 -18.99832 -18.99559
 Alpha  occ. eigenvalues --  -18.98482 -14.23121 -14.23052 -10.17350 -10.13513
 Alpha  occ. eigenvalues --  -10.13298 -10.11062 -10.09371 -10.08393 -10.07976
 Alpha  occ. eigenvalues --  -10.07284 -10.06706 -10.06013 -10.04616 -10.04324
 Alpha  occ. eigenvalues --   -8.00474  -7.82241  -5.96800  -5.96735  -5.96543
 Alpha  occ. eigenvalues --   -5.78563  -5.78180  -5.77827  -1.01797  -1.00110
 Alpha  occ. eigenvalues --   -0.93649  -0.89209  -0.81977  -0.79961  -0.75078
 Alpha  occ. eigenvalues --   -0.71266  -0.70803  -0.64915  -0.64603  -0.60897
 Alpha  occ. eigenvalues --   -0.58974  -0.57657  -0.53948  -0.52555  -0.49642
 Alpha  occ. eigenvalues --   -0.44550  -0.42972  -0.42323  -0.41981  -0.41400
 Alpha  occ. eigenvalues --   -0.39786  -0.38945  -0.38232  -0.38142  -0.37152
 Alpha  occ. eigenvalues --   -0.33901  -0.33758  -0.33521  -0.32980  -0.32375
 Alpha  occ. eigenvalues --   -0.31955  -0.30736  -0.30481  -0.30169  -0.29629
 Alpha  occ. eigenvalues --   -0.29239  -0.27300  -0.26928  -0.26176  -0.25149
 Alpha  occ. eigenvalues --   -0.24369  -0.22109  -0.21067  -0.20200  -0.19183
 Alpha  occ. eigenvalues --   -0.18696  -0.18232  -0.16632  -0.15200  -0.12997
 Alpha  occ. eigenvalues --   -0.12779  -0.11449   0.04246
 Alpha virt. eigenvalues --    0.06331   0.06727   0.07163   0.07439   0.08381
 Alpha virt. eigenvalues --    0.09185   0.09787   0.10597   0.10952   0.11089
 Alpha virt. eigenvalues --    0.11285   0.11743   0.11800   0.12369   0.13023

  Beta  occ. eigenvalues --  -88.94380 -88.73535 -19.09083 -18.99805 -18.99510
  Beta  occ. eigenvalues --  -18.98449 -14.23076 -14.23040 -10.17304 -10.13391
  Beta  occ. eigenvalues --  -10.13303 -10.11096 -10.09363 -10.08399 -10.07991
  Beta  occ. eigenvalues --  -10.07280 -10.06421 -10.05548 -10.04474 -10.04381
  Beta  occ. eigenvalues --   -8.00459  -7.82176  -5.96770  -5.96701  -5.96541
  Beta  occ. eigenvalues --   -5.78535  -5.78153  -5.77580  -1.01720  -0.99993
  Beta  occ. eigenvalues --   -0.93581  -0.89126  -0.81904  -0.79849  -0.74656
  Beta  occ. eigenvalues --   -0.71220  -0.70730  -0.64778  -0.64213  -0.60571
  Beta  occ. eigenvalues --   -0.58698  -0.57591  -0.53834  -0.52371  -0.49589
  Beta  occ. eigenvalues --   -0.44241  -0.42886  -0.42024  -0.41800  -0.41334
  Beta  occ. eigenvalues --   -0.39579  -0.38766  -0.38066  -0.37996  -0.37029
  Beta  occ. eigenvalues --   -0.33852  -0.33702  -0.33410  -0.32942  -0.32198
  Beta  occ. eigenvalues --   -0.31748  -0.30676  -0.30406  -0.30017  -0.29445
  Beta  occ. eigenvalues --   -0.29181  -0.27188  -0.26780  -0.25995  -0.24580
  Beta  occ. eigenvalues --   -0.23801  -0.21765  -0.20885  -0.20047  -0.19046
  Beta  occ. eigenvalues --   -0.18562  -0.18052  -0.16571  -0.15032  -0.12498
  Beta  occ. eigenvalues --   -0.11835  -0.09620
  Beta virt. eigenvalues --    0.06297   0.07174   0.07285   0.07459   0.08269
  Beta virt. eigenvalues --    0.09201   0.09696   0.09822   0.10659   0.10891
  Beta virt. eigenvalues --    0.11107   0.11329   0.11701   0.11838   0.12291

 Mulliken charges and spin densities:
               1          2
     1  C   -0.180324  -0.400507
     2  C   -0.406168  -0.025036
     3  C    0.331036   0.190310
     4  C    0.669978   0.152406
     5  C   -0.493746   0.064946
     6  O   -0.005938   0.020336
     7  C   -0.409715  -0.175639
     8  C   -0.251483   0.028355
     9  O   -0.346216   0.011369
    10  N   -0.171474  -0.015992
    11  C   -0.907669  -0.218493
    12  C    0.275300   0.270600
    13  C   -0.029356   0.117723
    14  C    0.176173   0.265529
    15  C   -0.983177   0.076026
    16  S    0.017857   0.088697
    17  S    0.510675  -0.010948
    18  O   -0.215295   0.004008
    19  O   -0.232627   0.007279
    20  N   -0.301677  -0.020641
    21  H    0.029792   0.121617
    22  H    0.122543   0.027168
    23  H    0.135362   0.040508
    24  H   -0.026633   0.070439
    25  H    0.145766   0.000838
    26  H    0.038898   0.108346
    27  H    0.204638  -0.000896
    28  H    0.302843  -0.001080
    29  H    0.179376  -0.018635
    30  H    0.079949   0.137891
    31  H    0.109655   0.016237
    32  H    0.187673  -0.007887
    33  H    0.230537   0.020086
    34  H    0.213444   0.055038
 Sum of Mulliken charges =  -1.00000   1.00000

 Dipole moment (field-independent basis, Debye):
    X=             -3.2430    Y=             -1.3006    Z=             -0.9726  Tot=              3.6269
 Quadrupole moment (field-independent basis, Debye-Ang):
   XX=           -201.0267   YY=           -152.3573   ZZ=           -147.5417
   XY=            -18.6311   XZ=             10.2356   YZ=              4.4575

 Summary of Natural Population Analysis:

                                       Natural Population
                Natural  -----------------------------------------------
    Atom  No    Charge         Core      Valence    Rydberg      Total
 -----------------------------------------------------------------------
      C    1   -0.30446      0.99963     2.30020    0.00464     3.30446
      C    2    0.14297      0.99947     1.84506    0.01250     2.85703
      C    3   -0.14024      0.99947     2.13304    0.00774     3.14024
      C    4   -0.12094      0.99940     2.11147    0.01006     3.12094
      C    5    0.20382      0.99945     1.78410    0.01262     2.79618
      O    6   -0.24275      0.99985     3.23521    0.00769     4.24275
      C    7   -0.31274      0.99962     2.30813    0.00499     3.31274
      C    8    0.34439      0.99961     1.63462    0.02138     2.65561
      O    9   -0.32724      0.99988     3.32189    0.00547     4.32724
      N   10   -0.31593      0.99968     2.80606    0.01019     3.81593
      C   11   -0.10548      0.99956     2.09454    0.01139     3.10548
      C   12   -0.02395      0.99950     2.01031    0.01414     3.02395
      C   13   -0.16169      0.99947     2.15112    0.01110     3.16169
      C   14   -0.08252      0.99947     2.07270    0.01035     3.08252
      C   15   -0.21450      0.99937     2.20085    0.01428     3.21450
      S   16    0.24677      4.99934     2.73306    0.02084     7.75323
      S   17    1.10698      4.99916     1.78951    0.10435     6.89302
      O   18   -0.47059      0.99991     3.46565    0.00504     4.47059
      O   19   -0.46624      0.99991     3.46103    0.00530     4.46624
      N   20   -0.51302      0.99979     3.00185    0.01138     4.01302
      H   21    0.10329      0.00000     0.39507    0.00164     0.39671
      H   22    0.10302      0.00000     0.39559    0.00140     0.39698
      H   23    0.11159      0.00000     0.38761    0.00080     0.38841
      H   24    0.12162      0.00000     0.37678    0.00160     0.37838
      H   25    0.10518      0.00000     0.39364    0.00118     0.39482
      H   26    0.10271      0.00000     0.39575    0.00154     0.39729
      H   27    0.12387      0.00000     0.37512    0.00101     0.37613
      H   28    0.19198      0.00000     0.30669    0.00133     0.30802
      H   29    0.09685      0.00000     0.40211    0.00104     0.40315
      H   30    0.11358      0.00000     0.38484    0.00157     0.38642
      H   31    0.09884      0.00000     0.40026    0.00090     0.40116
      H   32    0.10845      0.00000     0.39056    0.00098     0.39155
      H   33    0.18729      0.00000     0.31003    0.00268     0.31271
      H   34    0.18910      0.00000     0.30757    0.00333     0.31090
 =======================================================================
   * Total *    0.00000     27.99153    53.68202    0.32645    82.00000

 Normal termination of Gaussian 16 at Sun Dec 13 18:34:11 2020.
