 Gaussian 16, Revision A.03,

 -----------------------------------------------------------
 # opt freq B3LYP/6-31G(d) empiricaldispersion=gd3bj scf=xqc
 -----------------------------------------------------------

 ------------------------------
 CID_82568058_JID_3630_neutraal
 ------------------------------
 Symbolic Z-matrix:
 Charge =  0 Multiplicity = 1

 SCF Done:  E(RB3LYP) =  -587.669821867     A.U. after   14 cycles
 SCF Done:  E(RB3LYP) =  -587.673557081     A.U. after   12 cycles
 SCF Done:  E(RB3LYP) =  -587.674042536     A.U. after   11 cycles
 SCF Done:  E(RB3LYP) =  -587.674212910     A.U. after   10 cycles
 SCF Done:  E(RB3LYP) =  -587.674302759     A.U. after   11 cycles
 SCF Done:  E(RB3LYP) =  -587.674343078     A.U. after   10 cycles
 SCF Done:  E(RB3LYP) =  -587.674387581     A.U. after   11 cycles
 SCF Done:  E(RB3LYP) =  -587.674415630     A.U. after   10 cycles
 SCF Done:  E(RB3LYP) =  -587.674452234     A.U. after   11 cycles
 SCF Done:  E(RB3LYP) =  -587.674505259     A.U. after   11 cycles
 SCF Done:  E(RB3LYP) =  -587.674545523     A.U. after   11 cycles
 SCF Done:  E(RB3LYP) =  -587.674562555     A.U. after   10 cycles
 SCF Done:  E(RB3LYP) =  -587.674565629     A.U. after    9 cycles
 SCF Done:  E(RB3LYP) =  -587.674567291     A.U. after   10 cycles
 SCF Done:  E(RB3LYP) =  -587.674568029     A.U. after    8 cycles
 SCF Done:  E(RB3LYP) =  -587.674568243     A.U. after    7 cycles
 Optimization completed.
    -- Stationary point found.

 1\1\GINC-NODE200\FOpt\RB3LYP\6-31G(d)\C8H15N5\VSC10255\13-Dec-2020\0\\
 # opt freq B3LYP/6-31G(d) empiricaldispersion=gd3bj scf=xqc\\CID_82568
 058_JID_3630_neutraal\\0,1\C,-2.1123970727,0.9698567128,0.4379353022\C
 ,-0.7900417918,1.6894258035,0.1245298805\C,0.3265478784,0.7047408202,-
 0.0026191024\N,1.6361431248,0.9172736962,0.0358801959\C,2.1582916666,-
 0.330064421,-0.1629922563\N,1.2557421631,-1.2934993868,-0.3145461528\N
 ,0.0830517554,-0.608582844,-0.2187451987\C,-1.2085349061,-1.2708545418
 ,-0.2861725221\C,-2.3253757784,-0.2378008565,-0.4900765474\C,-3.689052

 Normal termination of Gaussian 16 at Sun Dec 13 20:07:28 2020.

 --------------------------------------------------------------------
 #N Geom=AllCheck Guess=TCheck SCRF=Check GenChk RB3LYP/6-31G(d) Freq
 --------------------------------------------------------------------

 Structure from the checkpoint file:  "JID_3630.chk"
 ------------------------------
 CID_82568058_JID_3630_neutraal
 ------------------------------
 Charge =  0 Multiplicity = 1

 SCF Done:  E(RB3LYP) =  -587.674568243     A.U. after    1 cycles

  Exact polarizability: 150.851  -0.250 108.776   1.357  -1.254  76.012
 Approx polarizability: 180.744   1.930 174.361   1.832  -3.917 119.649

                      1                      2                      3
                      A                      A                      A
 Frequencies --     37.1357                51.8498               103.9541
 Red. masses --      3.5422                 3.1931                 2.8080
 Frc consts  --      0.0029                 0.0051                 0.0179
 IR Inten    --      0.5667                 1.9447                 4.2466

                      4                      5                      6
                      A                      A                      A
 Frequencies --    124.5555               160.7994               179.6849
 Red. masses --      3.6463                 2.6712                 2.0344
 Frc consts  --      0.0333                 0.0407                 0.0387
 IR Inten    --      1.7995                 7.8702                20.6178

                      7                      8                      9
                      A                      A                      A
 Frequencies --    198.1793               227.9525               245.4359
 Red. masses --      3.1873                 1.4130                 1.2438
 Frc consts  --      0.0738                 0.0433                 0.0441
 IR Inten    --      1.9843                19.7146                89.9094

                     10                     11                     12
                      A                      A                      A
 Frequencies --    266.7169               317.6546               326.6086
 Red. masses --      1.6639                 3.2945                 4.5850
 Frc consts  --      0.0697                 0.1959                 0.2882
 IR Inten    --      9.0391                 0.8569                 0.6521

                     13                     14                     15
                      A                      A                      A
 Frequencies --    377.0254               398.5243               464.9380
 Red. masses --      4.5299                 2.2917                 3.5556
 Frc consts  --      0.3794                 0.2145                 0.4528
 IR Inten    --      4.1344                 0.8743                 0.4731

                     16                     17                     18
                      A                      A                      A
 Frequencies --    515.3954               580.0558               637.6527
 Red. masses --      4.0308                 2.8704                 4.1956
 Frc consts  --      0.6309                 0.5690                 1.0051
 IR Inten    --     10.2997                 4.5423                 1.0369

                     19                     20                     21
                      A                      A                      A
 Frequencies --    686.4342               712.5096               747.3414
 Red. masses --      4.9102                 4.3470                 4.3272
 Frc consts  --      1.3632                 1.3002                 1.4240
 IR Inten    --      1.5761                 5.0852                 4.8086

                     22                     23                     24
                      A                      A                      A
 Frequencies --    804.5916               826.6090               865.0955
 Red. masses --      2.0718                 3.7006                 1.2831
 Frc consts  --      0.7902                 1.4898                 0.5658
 IR Inten    --      5.0984                10.5720               104.3217

                     25                     26                     27
                      A                      A                      A
 Frequencies --    880.5247               903.8551               942.1871
 Red. masses --      1.2660                 1.6974                 1.6495
 Frc consts  --      0.5783                 0.8170                 0.8627
 IR Inten    --    155.0006                11.6388                16.9359

                     28                     29                     30
                      A                      A                      A
 Frequencies --    963.3179              1009.5628              1034.3551
 Red. masses --      1.4582                 2.2614                 3.3899
 Frc consts  --      0.7973                 1.3580                 2.1368
 IR Inten    --      1.7082                 1.5777                13.0620

                     31                     32                     33
                      A                      A                      A
 Frequencies --   1050.4103              1053.0733              1097.8888
 Red. masses --      3.1011                 3.6454                 1.8897
 Frc consts  --      2.0160                 2.3818                 1.3420
 IR Inten    --      9.9855                10.8251                 3.6777

                     34                     35                     36
                      A                      A                      A
 Frequencies --   1109.7830              1116.6437              1138.8459
 Red. masses --      2.3160                 2.3334                 2.1792
 Frc consts  --      1.6806                 1.7142                 1.6652
 IR Inten    --      2.4796                 8.8263                10.9177

                     37                     38                     39
                      A                      A                      A
 Frequencies --   1186.7540              1190.3771              1192.7369
 Red. masses --      1.3676                 1.3789                 2.3272
 Frc consts  --      1.1348                 1.1512                 1.9506
 IR Inten    --      2.5615                 6.8995                 0.4416

                     40                     41                     42
                      A                      A                      A
 Frequencies --   1222.5446              1263.5478              1280.4752
 Red. masses --      1.6351                 1.4665                 1.4434
 Frc consts  --      1.4399                 1.3794                 1.3944
 IR Inten    --      8.1705                 9.0214                22.0081

                     43                     44                     45
                      A                      A                      A
 Frequencies --   1284.1968              1289.8973              1323.0411
 Red. masses --      1.4799                 1.2351                 1.6154
 Frc consts  --      1.4380                 1.2108                 1.6660
 IR Inten    --     11.9550                 5.3456                 0.8314

                     46                     47                     48
                      A                      A                      A
 Frequencies --   1352.4443              1361.2464              1366.6433
 Red. masses --      1.7449                 2.0782                 1.7226
 Frc consts  --      1.8804                 2.2688                 1.8956
 IR Inten    --     10.5902                70.2659                 9.2748

                     49                     50                     51
                      A                      A                      A
 Frequencies --   1375.9812              1407.3197              1421.1115
 Red. masses --      1.2052                 1.6814                 1.5682
 Frc consts  --      1.3444                 1.9620                 1.8660
 IR Inten    --     10.4961                18.8349                 4.8064

                     52                     53                     54
                      A                      A                      A
 Frequencies --   1451.4532              1455.1758              1494.5186
 Red. masses --      1.4642                 2.0483                 1.8083
 Frc consts  --      1.8174                 2.5554                 2.3797
 IR Inten    --     15.4125                 2.2071                17.9216

                     55                     56                     57
                      A                      A                      A
 Frequencies --   1515.2916              1520.7038              1531.1259
 Red. masses --      1.3247                 1.2020                 1.1708
 Frc consts  --      1.7921                 1.6378                 1.6172
 IR Inten    --      1.1110                 1.3553                 7.8863

                     58                     59                     60
                      A                      A                      A
 Frequencies --   1535.6986              1543.5623              1561.6377
 Red. masses --      1.4253                 1.2506                 2.2558
 Frc consts  --      1.9804                 1.7556                 3.2412
 IR Inten    --     18.6139                 1.3990                34.5070

                     61                     62                     63
                      A                      A                      A
 Frequencies --   1574.5562              1689.8473              1703.7831
 Red. masses --      5.5961                 1.0871                 1.0878
 Frc consts  --      8.1743                 1.8290                 1.8604
 IR Inten    --     40.1069                50.1313                34.5253

                     64                     65                     66
                      A                      A                      A
 Frequencies --   2936.2185              2947.4987              3030.1947
 Red. masses --      1.0752                 1.0727                 1.0700
 Frc consts  --      5.4615                 5.4909                 5.7888
 IR Inten    --     76.5506                65.9228                15.2824

                     67                     68                     69
                      A                      A                      A
 Frequencies --   3038.1322              3044.5093              3056.6286
 Red. masses --      1.0705                 1.0685                 1.0779
 Frc consts  --      5.8216                 5.8354                 5.9334
 IR Inten    --     24.0061                 7.9546                48.1599

                     70                     71                     72
                      A                      A                      A
 Frequencies --   3072.2667              3082.7602              3102.9127
 Red. masses --      1.0895                 1.0856                 1.0933
 Frc consts  --      6.0591                 6.0786                 6.2017
 IR Inten    --     31.6843                24.4002                32.8376

                     73                     74                     75
                      A                      A                      A
 Frequencies --   3106.4737              3112.3807              3477.0601
 Red. masses --      1.0971                 1.0972                 1.0495
 Frc consts  --      6.2378                 6.2619                 7.4757
 IR Inten    --     15.4270                23.8542                 5.1428

                     76                     77                     78
                      A                      A                      A
 Frequencies --   3483.0681              3564.2604              3565.7066
 Red. masses --      1.0502                 1.0924                 1.0929
 Frc consts  --      7.5064                 8.1763                 8.1872
 IR Inten    --      0.7467                 0.0981                 0.5213

 - Thermochemistry -
 -------------------
 Temperature   298.150 Kelvin.  Pressure   1.00000 Atm.
 Atom     1 has atomic number  6 and mass  12.00000

 Molecular mass:   181.13275 amu.
 Principal axes and moments of inertia in atomic units:
                           1         2         3
     Eigenvalues --   772.155964731.640165368.42545
           X            1.00000  -0.00136  -0.00040
           Y            0.00136   0.99998  -0.00588
           Z            0.00040   0.00587   0.99998
 This molecule is an asymmetric top.
 Rotational symmetry number  1.
 Warning -- assumption of classical behavior for rotation
           may cause significant error
 Rotational temperatures (Kelvin)      0.11217     0.01831     0.01613
 Rotational constants (GHZ):           2.33728     0.38142     0.33618
 Zero-point vibrational energy     645223.2 (Joules/Mol)
                                  154.21204 (Kcal/Mol)
 Warning -- explicit consideration of  17 degrees of freedom as
           vibrations may cause significant error
 Vibrational temperatures:     53.43    74.60   149.57   179.21   231.35
          (Kelvin)            258.53   285.14   327.97   353.13   383.75
                              457.03   469.92   542.46   573.39   668.94
                              741.54   834.57   917.44   987.63  1025.14
                             1075.26  1157.63  1189.31  1244.68  1266.88
                             1300.45  1355.60  1386.00  1452.54  1488.21
                             1511.31  1515.14  1579.62  1596.73  1606.60
                             1638.55  1707.47  1712.69  1716.08  1758.97
                             1817.96  1842.32  1847.67  1855.87  1903.56
                             1945.87  1958.53  1966.29  1979.73  2024.82
                             2044.66  2088.32  2093.67  2150.28  2180.17
                             2187.95  2202.95  2209.53  2220.84  2246.85
                             2265.44  2431.31  2451.36  4224.56  4240.79
                             4359.77  4371.19  4380.37  4397.81  4420.31
                             4435.40  4464.40  4469.52  4478.02  5002.71
                             5011.36  5128.18  5130.26

 Zero-point correction=                           0.245753 (Hartree/Particle)
 Thermal correction to Energy=                    0.258334
 Thermal correction to Enthalpy=                  0.259278
 Thermal correction to Gibbs Free Energy=         0.206252
 Sum of electronic and zero-point Energies=           -587.428816
 Sum of electronic and thermal Energies=              -587.416235
 Sum of electronic and thermal Enthalpies=            -587.415290
 Sum of electronic and thermal Free Energies=         -587.468316

                     E (Thermal)             CV                S
                      KCal/Mol        Cal/Mol-Kelvin    Cal/Mol-Kelvin
 Total                  162.107             47.097            111.602
 Electronic               0.000              0.000              0.000
 Translational            0.889              2.981             41.489
 Rotational               0.889              2.981             31.351
 Vibrational            160.329             41.135             38.763
 Vibration     1          0.594              1.982              5.406
 Vibration     2          0.596              1.977              4.746
 Vibration     3          0.605              1.946              3.379
 Vibration     4          0.610              1.928              3.028
 Vibration     5          0.622              1.890              2.540
 Vibration     6          0.629              1.867              2.332
 Vibration     7          0.637              1.842              2.150
 Vibration     8          0.651              1.798              1.895
 Vibration     9          0.660              1.770              1.763
 Vibration    10          0.672              1.734              1.617
 Vibration    11          0.704              1.640              1.322
 Vibration    12          0.710              1.622              1.277
 Vibration    13          0.748              1.519              1.051
 Vibration    14          0.765              1.473              0.968
 Vibration    15          0.822              1.328              0.752
 Vibration    16          0.870              1.216              0.621
 Vibration    17          0.937              1.074              0.485

 Optimization completed.
    -- Stationary point found.

 1\1\GINC-NODE200\Freq\RB3LYP\6-31G(d)\C8H15N5\VSC10255\13-Dec-2020\0\\
 #N Geom=AllCheck Guess=TCheck SCRF=Check GenChk RB3LYP/6-31G(d) Freq\\
 CID_82568058_JID_3630_neutraal\\0,1\C,-2.1123970727,0.9698567128,0.437
 9353022\C,-0.7900417918,1.6894258035,0.1245298805\C,0.3265478784,0.704
 7408202,-0.0026191024\N,1.6361431248,0.9172736962,0.0358801959\C,2.158
 2916666,-0.330064421,-0.1629922563\N,1.2557421631,-1.2934993868,-0.314
 5461528\N,0.0830517554,-0.608582844,-0.2187451987\C,-1.2085349061,-1.2
 708545418,-0.2861725221\C,-2.3253757784,-0.2378008565,-0.4900765474\C,

 Normal termination of Gaussian 16 at Sun Dec 13 20:13:59 2020.

 ----------------------------------------------------------------------
 # B3LYP/6-311++G(d,p) empiricaldispersion=gd3bj scf=xqc pop=npa geom=c
 heck
 ----------------------------------------------------------------------

 --------------------------------------
 CID_82568058_JID_3630_Energie_neutraal
 --------------------------------------
 Structure from the checkpoint file:  "JID_3630.chk"
 Charge =  0 Multiplicity = 1

 SCF Done:  E(RB3LYP) =  -587.849865805     A.U. after   14 cycles
 Normal termination of Gaussian 16 at Sun Dec 13 20:16:52 2020.

 ----------------------------------------------------------------------
 # B3LYP/6-311++G(d,p) empiricaldispersion=gd3bj scf=xqc pop=npa geom=c
 heck
 ----------------------------------------------------------------------

 ------------------------------------
 CID_82568058_JID_3630_Energie_kation
 ------------------------------------
 Structure from the checkpoint file:  "JID_3630.chk"
 Charge =  1 Multiplicity = 2

 SCF Done:  E(UB3LYP) =  -587.545587695     A.U. after   24 cycles
 Normal termination of Gaussian 16 at Sun Dec 13 20:23:53 2020.
 Gaussian 16:  ES64L-G16RevA.03 25-Dec-2016

 -----------------------------------
 CID_82568058_JID_3630_Energie_anion
 -----------------------------------
 Structure from the checkpoint file:  "JID_3630.chk"
 Charge = -1 Multiplicity = 2

                         Standard orientation:
 ---------------------------------------------------------------------
 Center     Atomic      Atomic             Coordinates (Angstroms)
 Number     Number       Type             X           Y           Z
 ---------------------------------------------------------------------
      1          6           0       -2.029179    1.107433    0.347883
      2          6           0       -0.796290    1.876836   -0.154739
      3          6           0        0.432157    1.034250   -0.038503
      4          7           0        1.706000    1.405683   -0.070988
      5          6           0        2.377141    0.221223    0.050113
      6          7           0        1.599226   -0.850389    0.160866
      7          7           0        0.351496   -0.310127    0.091748
      8          6           0       -0.850206   -1.118199    0.211232
      9          6           0       -2.078171   -0.313859   -0.237379
     10          6           0       -3.355759   -1.069292    0.148127
     11          7           0       -4.546312   -0.409518   -0.394747
     12          6           0        3.871712    0.128548    0.110426
     13          7           0        4.335527   -1.167426   -0.391743
     14          1           0       -2.933293    1.657031    0.067806
     15          1           0       -2.007631    1.046078    1.445572
     16          1           0       -0.939393    2.158869   -1.206770
     17          1           0       -0.649490    2.808972    0.399772
     18          1           0       -0.958048   -1.437391    1.256671
     19          1           0       -0.717486   -2.016550   -0.398453
     20          1           0       -2.064932   -0.231040   -1.332053
     21          1           0       -3.308845   -2.076719   -0.282969
     22          1           0       -3.375717   -1.197722    1.246539
     23          1           0       -5.341611   -1.042513   -0.346183
     24          1           0       -4.793840    0.392395    0.181045
     25          1           0        4.285584    0.932846   -0.507802
     26          1           0        4.181680    0.347841    1.150088
     27          1           0        5.298125   -1.319305   -0.098256
     28          1           0        3.774901   -1.901994    0.036077
 ---------------------------------------------------------------------

 SCF Done:  E(UB3LYP) =  -587.839640055     A.U. after   30 cycles

 The electronic state is 2-A.
 Alpha  occ. eigenvalues --  -14.29788 -14.23590 -14.20479 -14.20468 -14.18821
 Alpha  occ. eigenvalues --  -10.14549 -10.12717 -10.12328 -10.11089 -10.09552
 Alpha  occ. eigenvalues --  -10.09386 -10.08783 -10.08094  -0.98198  -0.81600
 Alpha  occ. eigenvalues --   -0.79620  -0.78545  -0.76370  -0.69246  -0.67371
 Alpha  occ. eigenvalues --   -0.61049  -0.57287  -0.55675  -0.51599  -0.47946
 Alpha  occ. eigenvalues --   -0.45900  -0.42387  -0.40404  -0.39326  -0.38515
 Alpha  occ. eigenvalues --   -0.37700  -0.36426  -0.36046  -0.34972  -0.32759
 Alpha  occ. eigenvalues --   -0.32333  -0.30657  -0.29478  -0.27995  -0.27835
 Alpha  occ. eigenvalues --   -0.25380  -0.24981  -0.24094  -0.22663  -0.19072
 Alpha  occ. eigenvalues --   -0.18557  -0.16345  -0.15197  -0.14295   0.04240
 Alpha virt. eigenvalues --    0.05519   0.07398   0.07886   0.08215   0.08875
 Alpha virt. eigenvalues --    0.09142   0.09815   0.10495   0.10985   0.11043
 Alpha virt. eigenvalues --    0.11419   0.12672   0.13071   0.13818   0.14135

  Beta  occ. eigenvalues --  -14.29775 -14.23569 -14.20480 -14.20450 -14.18754
  Beta  occ. eigenvalues --  -10.14545 -10.12715 -10.12315 -10.11079 -10.09544
  Beta  occ. eigenvalues --  -10.09347 -10.08780 -10.08058  -0.98177  -0.81580
  Beta  occ. eigenvalues --   -0.79594  -0.78463  -0.76323  -0.69200  -0.67340
  Beta  occ. eigenvalues --   -0.60999  -0.57237  -0.55597  -0.51548  -0.47895
  Beta  occ. eigenvalues --   -0.45856  -0.42359  -0.40361  -0.39268  -0.38478
  Beta  occ. eigenvalues --   -0.37646  -0.36386  -0.36008  -0.34922  -0.32702
  Beta  occ. eigenvalues --   -0.32255  -0.30627  -0.29432  -0.27968  -0.27797
  Beta  occ. eigenvalues --   -0.25336  -0.24925  -0.24052  -0.22627  -0.19038
  Beta  occ. eigenvalues --   -0.18542  -0.16298  -0.15159  -0.14224
  Beta virt. eigenvalues --    0.06050   0.07087   0.07962   0.08486   0.08737
  Beta virt. eigenvalues --    0.09112   0.09263   0.10046   0.10990   0.11263
  Beta virt. eigenvalues --    0.11527   0.11808   0.13145   0.13348   0.14008

 Mulliken charges and spin densities:
               1          2
     1  C    0.185243  -0.504664
     2  C    0.107664  -0.529608
     3  C   -0.239934   0.233758
     4  N   -0.133287   0.030235
     5  C   -0.013675  -0.002032
     6  N   -0.023957   0.137388
     7  N    0.005705  -0.058710
     8  C    0.664132  -1.279437
     9  C   -1.916681   2.294799
    10  C    2.348513  -3.046955
    11  N   -0.457302   0.113488
    12  C    0.108687  -0.529125
    13  N   -0.403961   0.009396
    14  H   -0.000481   0.136802
    15  H   -0.260162   0.448129
    16  H    0.135337   0.046544
    17  H    0.012731   0.185107
    18  H   -0.099684   0.317686
    19  H    0.223039  -0.038093
    20  H    0.069996   0.134359
    21  H   -0.521575   0.690624
    22  H   -0.327907   0.464841
    23  H   -0.284617   0.537028
    24  H   -0.352997   0.577186
    25  H    0.090983   0.086535
    26  H   -0.121077   0.273525
    27  H    0.005356   0.217182
    28  H    0.199913   0.054011
 Sum of Mulliken charges =  -1.00000   1.00000

 Dipole moment (field-independent basis, Debye):
    X=              6.9994    Y=              1.6676    Z=             -1.3371  Tot=              7.3184
 Quadrupole moment (field-independent basis, Debye-Ang):
   XX=           -193.0001   YY=           -111.3386   ZZ=           -109.1232
   XY=             -5.1558   XZ=              7.0944   YZ=             -0.9739

 Summary of Natural Population Analysis:

                                       Natural Population
                Natural  -----------------------------------------------
    Atom  No    Charge         Core      Valence    Rydberg      Total
 -----------------------------------------------------------------------
      C    1   -0.18988      0.99961     2.18074    0.00952     3.18988
      C    2   -0.20897      0.99960     2.20018    0.00919     3.20897
      C    3    0.20774      0.99959     1.77725    0.01541     2.79226
      N    4   -0.27309      0.99968     2.76476    0.00865     3.77309
      C    5    0.17451      0.99966     1.80767    0.01816     2.82549
      N    6   -0.17175      0.99969     2.66180    0.01027     3.67175
      N    7   -0.11219      0.99959     2.60132    0.01128     3.61219
      C    8   -0.07720      0.99959     2.06670    0.01091     3.07720
      C    9   -0.11826      0.99959     2.10784    0.01083     3.11826
      C   10   -0.08438      0.99960     2.07204    0.01274     3.08438
      N   11   -0.42401      0.99977     2.91320    0.01104     3.92401
      C   12   -0.10690      0.99959     2.09553    0.01178     3.10690
      N   13   -0.42005      0.99978     2.90973    0.01053     3.92005
      H   14    0.10790      0.00000     0.39085    0.00125     0.39210
      H   15    0.09925      0.00000     0.39892    0.00183     0.40075
      H   16    0.10713      0.00000     0.39165    0.00122     0.39287
      H   17    0.11203      0.00000     0.38682    0.00115     0.38797
      H   18    0.10092      0.00000     0.39750    0.00158     0.39908
      H   19    0.10513      0.00000     0.39367    0.00120     0.39487
      H   20    0.09893      0.00000     0.39892    0.00214     0.40107
      H   21    0.09222      0.00000     0.40642    0.00136     0.40778
      H   22    0.08283      0.00000     0.41347    0.00371     0.41717
      H   23    0.18195      0.00000     0.31295    0.00511     0.31805
      H   24    0.17710      0.00000     0.31799    0.00491     0.32290
      H   25    0.09796      0.00000     0.40055    0.00149     0.40204
      H   26    0.08820      0.00000     0.41020    0.00160     0.41180
      H   27    0.17193      0.00000     0.32635    0.00172     0.32807
      H   28    0.18091      0.00000     0.31695    0.00213     0.31909
 =======================================================================
   * Total *   -0.00000     12.99533    35.82196    0.18271    49.00000

 Normal termination of Gaussian 16 at Sun Dec 13 20:32:39 2020.
