 Gaussian 16, Revision A.03,

 -----------------------------------------------------------
 # opt freq B3LYP/6-31G(d) empiricaldispersion=gd3bj scf=xqc
 -----------------------------------------------------------

 -------------------------------
 CID_81243984_JID_10218_neutraal
 -------------------------------
 Symbolic Z-matrix:
 Charge =  0 Multiplicity = 1

 SCF Done:  E(RB3LYP) =  -880.596282676     A.U. after   15 cycles
 SCF Done:  E(RB3LYP) =  -880.598395141     A.U. after   13 cycles
 SCF Done:  E(RB3LYP) =  -880.603067443     A.U. after   12 cycles
 SCF Done:  E(RB3LYP) =  -880.605078041     A.U. after   13 cycles
 SCF Done:  E(RB3LYP) =  -880.606030110     A.U. after   13 cycles
 SCF Done:  E(RB3LYP) =  -880.607299282     A.U. after   13 cycles
 SCF Done:  E(RB3LYP) =  -880.607571564     A.U. after   12 cycles
 SCF Done:  E(RB3LYP) =  -880.607671104     A.U. after   11 cycles
 SCF Done:  E(RB3LYP) =  -880.607718956     A.U. after   10 cycles
 SCF Done:  E(RB3LYP) =  -880.607783226     A.U. after   11 cycles
 SCF Done:  E(RB3LYP) =  -880.608313584     A.U. after   10 cycles
 SCF Done:  E(RB3LYP) =  -880.608315586     A.U. after   10 cycles
 SCF Done:  E(RB3LYP) =  -880.608316110     A.U. after    9 cycles
 SCF Done:  E(RB3LYP) =  -880.608316183     A.U. after    7 cycles
 SCF Done:  E(RB3LYP) =  -880.608316194     A.U. after    6 cycles
 Optimization completed.
    -- Stationary point found.
 Normal termination of Gaussian 16 at Mon Dec 14 17:49:01 2020.

 --------------------------------------------------------------------
 #N Geom=AllCheck Guess=TCheck SCRF=Check GenChk RB3LYP/6-31G(d) Freq
 --------------------------------------------------------------------

 Structure from the checkpoint file:  "JID_10218.chk"
 -------------------------------
 CID_81243984_JID_10218_neutraal
 -------------------------------
 Charge =  0 Multiplicity = 1

 SCF Done:  E(RB3LYP) =  -880.608316194     A.U. after    1 cycles

  Exact polarizability: 210.170  17.328 196.518  12.447   7.687 144.098
 Approx polarizability: 306.593  31.072 306.025  31.924  20.716 239.524

                      1                      2                      3
                      A                      A                      A
 Frequencies --     20.2508                30.3824                46.6342
 Red. masses --      5.6791                 5.0206                 3.8168
 Frc consts  --      0.0014                 0.0027                 0.0049
 IR Inten    --      0.0325                 0.2599                 0.0565

                      4                      5                      6
                      A                      A                      A
 Frequencies --     54.5815                67.5304                82.2398
 Red. masses --      8.8969                 3.2359                 1.0920
 Frc consts  --      0.0156                 0.0087                 0.0044
 IR Inten    --      1.7601                 0.2000                 0.5329

                      7                      8                      9
                      A                      A                      A
 Frequencies --     95.0959               105.1907               131.0320
 Red. masses --      3.7967                 3.4019                 2.0403
 Frc consts  --      0.0202                 0.0222                 0.0206
 IR Inten    --      0.3387                 0.2585                 0.5199

                     10                     11                     12
                      A                      A                      A
 Frequencies --    180.7808               195.8892               211.9637
 Red. masses --      3.8310                 4.6422                 3.7883
 Frc consts  --      0.0738                 0.1050                 0.1003
 IR Inten    --      0.1727                 0.2928                 0.6724

                     13                     14                     15
                      A                      A                      A
 Frequencies --    245.6337               253.0830               271.5156
 Red. masses --      4.2645                 1.4457                 3.2092
 Frc consts  --      0.1516                 0.0546                 0.1394
 IR Inten    --      1.6893                 0.7641                 0.7945

                     16                     17                     18
                      A                      A                      A
 Frequencies --    290.9157               324.5929               370.2990
 Red. masses --      5.1602                 4.7889                 5.4475
 Frc consts  --      0.2573                 0.2973                 0.4401
 IR Inten    --      5.5198                 2.8921                 2.2658

                     19                     20                     21
                      A                      A                      A
 Frequencies --    379.8997               398.7514               417.1651
 Red. masses --      4.2045                 3.3348                 2.9966
 Frc consts  --      0.3575                 0.3124                 0.3073
 IR Inten    --      0.9300                 0.6579                 0.1051

                     22                     23                     24
                      A                      A                      A
 Frequencies --    454.0538               480.8804               486.0948
 Red. masses --      2.6295                 1.3455                 2.7595
 Frc consts  --      0.3194                 0.1833                 0.3842
 IR Inten    --      4.9922                58.2341                31.0087

                     25                     26                     27
                      A                      A                      A
 Frequencies --    550.2368               583.2754               590.9351
 Red. masses --      3.5931                 1.5051                 3.3087
 Frc consts  --      0.6409                 0.3017                 0.6807
 IR Inten    --     18.7176                36.4956                17.6571

                     28                     29                     30
                      A                      A                      A
 Frequencies --    601.7811               625.9340               632.6862
 Red. masses --      5.0136                 4.5438                 3.5801
 Frc consts  --      1.0697                 1.0489                 0.8444
 IR Inten    --      6.9511                10.9343                18.2604

                     31                     32                     33
                      A                      A                      A
 Frequencies --    636.5265               658.9033               717.5371
 Red. masses --      5.3461                 4.1430                 1.8193
 Frc consts  --      1.2762                 1.0598                 0.5519
 IR Inten    --      3.9721                 6.6830                34.2423

                     34                     35                     36
                      A                      A                      A
 Frequencies --    734.4918               741.2170               762.8790
 Red. masses --      3.9656                 3.6460                 2.2467
 Frc consts  --      1.2605                 1.1802                 0.7704
 IR Inten    --     15.6841                24.8068                 2.8146

                     37                     38                     39
                      A                      A                      A
 Frequencies --    776.1574               785.2220               802.3819
 Red. masses --      2.0560                 5.5163                 5.5221
 Frc consts  --      0.7297                 2.0039                 2.0947
 IR Inten    --     18.8201                27.5510                 2.1857

                     40                     41                     42
                      A                      A                      A
 Frequencies --    851.4782               859.2018               863.8555
 Red. masses --      1.4642                 1.5152                 1.2566
 Frc consts  --      0.6255                 0.6591                 0.5525
 IR Inten    --      2.3353                21.0717                 0.3865

                     43                     44                     45
                      A                      A                      A
 Frequencies --    922.9388               945.4076               971.0003
 Red. masses --      1.5012                 1.6977                 1.3478
 Frc consts  --      0.7534                 0.8940                 0.7487
 IR Inten    --      3.0416                 0.6793                 0.0447

                     46                     47                     48
                      A                      A                      A
 Frequencies --    986.7788               987.5929               997.6245
 Red. masses --      2.5982                 1.4231                 1.2508
 Frc consts  --      1.4906                 0.8178                 0.7335
 IR Inten    --     35.1676                 0.4372                 0.4805

                     49                     50                     51
                      A                      A                      A
 Frequencies --   1022.9695              1050.0155              1056.3941
 Red. masses --      6.1486                 1.9799                 2.1413
 Frc consts  --      3.7910                 1.2862                 1.4079
 IR Inten    --      1.6552                 2.4851                12.7784

                     52                     53                     54
                      A                      A                      A
 Frequencies --   1064.0119              1074.8936              1076.2501
 Red. masses --      2.1037                 1.6017                 3.7686
 Frc consts  --      1.4033                 1.0904                 2.5719
 IR Inten    --     10.5581                 6.9137                73.6334

                     55                     56                     57
                      A                      A                      A
 Frequencies --   1094.8274              1113.8189              1135.1995
 Red. masses --      3.1026                 1.6711                 2.2372
 Frc consts  --      2.1912                 1.2215                 1.6986
 IR Inten    --     54.5766                 2.4783                19.4252

                     58                     59                     60
                      A                      A                      A
 Frequencies --   1155.3426              1191.3614              1194.2488
 Red. masses --      2.5438                 2.4028                 1.1074
 Frc consts  --      2.0006                 2.0094                 0.9305
 IR Inten    --     37.9217               193.0583                 3.6565

                     61                     62                     63
                      A                      A                      A
 Frequencies --   1211.8177              1236.0101              1242.9526
 Red. masses --      1.1432                 2.6272                 1.9448
 Frc consts  --      0.9891                 2.3648                 1.7703
 IR Inten    --      8.2135                41.0912                 4.4365

                     64                     65                     66
                      A                      A                      A
 Frequencies --   1290.2182              1306.7260              1317.0160
 Red. masses --      1.4094                 1.9830                 3.4110
 Frc consts  --      1.3823                 1.9950                 3.4858
 IR Inten    --      4.1779                25.3541               123.8521

                     67                     68                     69
                      A                      A                      A
 Frequencies --   1334.2410              1349.0462              1352.2276
 Red. masses --      1.5727                 1.4071                 1.7297
 Frc consts  --      1.6496                 1.5088                 1.8635
 IR Inten    --     15.5334                11.2082                33.8165

                     70                     71                     72
                      A                      A                      A
 Frequencies --   1368.2049              1380.8548              1393.0293
 Red. masses --      2.5045                 2.6927                 1.4978
 Frc consts  --      2.7623                 3.0251                 1.7125
 IR Inten    --      0.7661                 7.8488                 2.3879

                     73                     74                     75
                      A                      A                      A
 Frequencies --   1412.9327              1435.9738              1444.3115
 Red. masses --      1.4396                 1.2795                 1.2569
 Frc consts  --      1.6933                 1.5545                 1.5448
 IR Inten    --     52.6568                 5.9899                 2.7784

                     76                     77                     78
                      A                      A                      A
 Frequencies --   1488.4822              1503.0811              1505.1961
 Red. masses --      2.3856                 1.0475                 2.1159
 Frc consts  --      3.1141                 1.3943                 2.8245
 IR Inten    --     50.4847                 4.5067                17.5668

                     79                     80                     81
                      A                      A                      A
 Frequencies --   1511.5568              1519.2070              1522.0355
 Red. masses --      1.7876                 1.5261                 1.3616
 Frc consts  --      2.4064                 2.0752                 1.8584
 IR Inten    --     14.2990                 7.9437                 0.8636

                     82                     83                     84
                      A                      A                      A
 Frequencies --   1529.0132              1538.5061              1546.1811
 Red. masses --      1.0429                 1.0785                 2.4505
 Frc consts  --      1.4365                 1.5041                 3.4516
 IR Inten    --      5.0712                 2.9237               107.0721

                     85                     86                     87
                      A                      A                      A
 Frequencies --   1547.3625              1639.0525              1649.5150
 Red. masses --      2.1637                 2.4453                 5.4273
 Frc consts  --      3.0524                 3.8705                 8.7006
 IR Inten    --      5.7575               375.9137                17.9583

                     88                     89                     90
                      A                      A                      A
 Frequencies --   1661.3612              1668.1077              1813.5933
 Red. masses --      5.7843                 5.5409                 9.1719
 Frc consts  --      9.4066                 9.0840                17.7741
 IR Inten    --    354.3498                24.7739               459.0281

                     91                     92                     93
                      A                      A                      A
 Frequencies --   3007.8252              3035.5132              3054.1303
 Red. masses --      1.0832                 1.0594                 1.0392
 Frc consts  --      5.7739                 5.7517                 5.7113
 IR Inten    --     21.0952                25.5867                24.0280

                     94                     95                     96
                      A                      A                      A
 Frequencies --   3056.5591              3075.3184              3115.7042
 Red. masses --      1.0359                 1.1022                 1.1004
 Frc consts  --      5.7023                 6.1419                 6.2935
 IR Inten    --     14.6422                27.6634                10.6500

                     97                     98                     99
                      A                      A                      A
 Frequencies --   3119.2832              3137.4936              3140.9141
 Red. masses --      1.1007                 1.1022                 1.1034
 Frc consts  --      6.3102                 6.3927                 6.4132
 IR Inten    --     32.8614                31.0220                17.9369

                    100                    101                    102
                      A                      A                      A
 Frequencies --   3173.4653              3185.8678              3194.8117
 Red. masses --      1.0872                 1.0860                 1.0899
 Frc consts  --      6.4510                 6.4942                 6.5542
 IR Inten    --      9.0566                 0.2052                11.5265

                    103                    104                    105
                      A                      A                      A
 Frequencies --   3198.4656              3203.2399              3212.7265
 Red. masses --      1.0904                 1.0936                 1.0979
 Frc consts  --      6.5723                 6.6111                 6.6768
 IR Inten    --      6.0351                29.7649                20.2282

                    106                    107                    108
                      A                      A                      A
 Frequencies --   3245.1143              3615.0576              3692.1964
 Red. masses --      1.0898                 1.0771                 1.0641
 Frc consts  --      6.7620                 8.2936                 8.5464
 IR Inten    --      6.0687               120.8670                69.7000

 - Thermochemistry -
 -------------------
 Temperature   298.150 Kelvin.  Pressure   1.00000 Atm.
 Atom     1 has atomic number  6 and mass  12.00000

 Molecular mass:   270.13683 amu.
 Principal axes and moments of inertia in atomic units:
                           1         2         3
     Eigenvalues --  3991.387127455.366679422.61473
           X            0.99977  -0.02101   0.00503
           Y            0.02105   0.99975  -0.00818
           Z           -0.00486   0.00828   0.99995
 This molecule is an asymmetric top.
 Rotational symmetry number  1.
 Warning -- assumption of classical behavior for rotation
           may cause significant error
 Rotational temperatures (Kelvin)      0.02170     0.01162     0.00919
 Rotational constants (GHZ):           0.45216     0.24207     0.19153
 Zero-point vibrational energy     828960.3 (Joules/Mol)
                                  198.12626 (Kcal/Mol)
 Warning -- explicit consideration of  28 degrees of freedom as
           vibrations may cause significant error
 Vibrational temperatures:     29.14    43.71    67.10    78.53    97.16
          (Kelvin)            118.32   136.82   151.35   188.53   260.10
                              281.84   304.97   353.41   364.13   390.65
                              418.56   467.02   532.78   546.59   573.71
                              600.21   653.28   691.88   699.38   791.67
                              839.20   850.22   865.83   900.58   910.29
                              915.82   948.01  1032.38  1056.77  1066.45
                             1097.61  1116.72  1129.76  1154.45  1225.09
                             1236.20  1242.90  1327.90  1360.23  1397.05
                             1419.75  1420.93  1435.36  1471.82  1510.74
                             1519.92  1530.88  1546.53  1548.48  1575.21
                             1602.54  1633.30  1662.28  1714.10  1718.26
                             1743.54  1778.34  1788.33  1856.34  1880.09
                             1894.89  1919.68  1940.98  1945.55  1968.54
                             1986.74  2004.26  2032.90  2066.05  2078.04
                             2141.59  2162.60  2165.64  2174.79  2185.80
                             2189.87  2199.91  2213.57  2224.61  2226.31
                             2358.23  2373.28  2390.33  2400.03  2609.36
                             4327.59  4367.43  4394.21  4397.71  4424.70
                             4482.80  4487.95  4514.15  4519.07  4565.91
                             4583.75  4596.62  4601.88  4608.75  4622.40
                             4669.00  5201.26  5312.25

 Zero-point correction=                           0.315734 (Hartree/Particle)
 Thermal correction to Energy=                    0.334514
 Thermal correction to Enthalpy=                  0.335459
 Thermal correction to Gibbs Free Energy=         0.266718
 Sum of electronic and zero-point Energies=           -880.292582
 Sum of electronic and thermal Energies=              -880.273802
 Sum of electronic and thermal Enthalpies=            -880.272858
 Sum of electronic and thermal Free Energies=         -880.341599

                     E (Thermal)             CV                S
                      KCal/Mol        Cal/Mol-Kelvin    Cal/Mol-Kelvin
 Total                  209.911             71.183            144.678
 Electronic               0.000              0.000              0.000
 Translational            0.889              2.981             42.680
 Rotational               0.889              2.981             33.994
 Vibrational            208.133             65.222             68.004
 Vibration     1          0.593              1.986              6.609
 Vibration     2          0.594              1.984              5.804
 Vibration     3          0.595              1.979              4.955
 Vibration     4          0.596              1.976              4.644
 Vibration     5          0.598              1.970              4.224
 Vibration     6          0.600              1.961              3.837
 Vibration     7          0.603              1.953              3.552
 Vibration     8          0.605              1.945              3.356
 Vibration     9          0.612              1.922              2.931
 Vibration    10          0.630              1.866              2.320
 Vibration    11          0.636              1.846              2.171
 Vibration    12          0.643              1.823              2.027
 Vibration    13          0.660              1.770              1.762
 Vibration    14          0.664              1.758              1.709
 Vibration    15          0.675              1.726              1.587
 Vibration    16          0.687              1.691              1.469
 Vibration    17          0.709              1.626              1.287
 Vibration    18          0.742              1.533              1.079
 Vibration    19          0.750              1.513              1.040
 Vibration    20          0.765              1.473              0.967
 Vibration    21          0.780              1.433              0.902
 Vibration    22          0.812              1.352              0.784
 Vibration    23          0.837              1.292              0.708
 Vibration    24          0.842              1.281              0.694
 Vibration    25          0.906              1.139              0.544
 Vibration    26          0.940              1.068              0.479
 Vibration    27          0.948              1.051              0.466
 Vibration    28          0.960              1.028              0.447

 Optimization completed.
    -- Stationary point found.
 Normal termination of Gaussian 16 at Mon Dec 14 18:08:41 2020.

 ----------------------------------------------------------------------
 # B3LYP/6-311++G(d,p) empiricaldispersion=gd3bj scf=xqc pop=npa geom=c
 heck
 ----------------------------------------------------------------------

 ---------------------------------------
 CID_81243984_JID_10218_Energie_neutraal
 ---------------------------------------
 Structure from the checkpoint file:  "JID_10218.chk"
 Charge =  0 Multiplicity = 1

 SCF Done:  E(RB3LYP) =  -880.854267720     A.U. after   16 cycles
 Normal termination of Gaussian 16 at Mon Dec 14 18:17:58 2020.

 ----------------------------------------------------------------------
 # B3LYP/6-311++G(d,p) empiricaldispersion=gd3bj scf=xqc pop=npa geom=c
 heck
 ----------------------------------------------------------------------

 -------------------------------------
 CID_81243984_JID_10218_Energie_kation
 -------------------------------------
 Structure from the checkpoint file:  "JID_10218.chk"
 Charge =  1 Multiplicity = 2

 SCF Done:  E(UB3LYP) =  -880.562308038     A.U. after   28 cycles
 Normal termination of Gaussian 16 at Mon Dec 14 18:41:43 2020.
 Gaussian 16:  ES64L-G16RevA.03 25-Dec-2016

 ----------------------------------------------------------------------
 # B3LYP/6-311++G(d,p) empiricaldispersion=gd3bj scf=xqc pop=npa geom=c
 heck
 ----------------------------------------------------------------------

 ------------------------------------
 CID_81243984_JID_10218_Energie_anion
 ------------------------------------
 Structure from the checkpoint file:  "JID_10218.chk"
 Charge = -1 Multiplicity = 2

                         Standard orientation:
 ---------------------------------------------------------------------
 Center     Atomic      Atomic             Coordinates (Angstroms)
 Number     Number       Type             X           Y           Z
 ---------------------------------------------------------------------
      1          6           0        3.084457   -2.456693    1.652444
      2          6           0        1.691410   -2.398178    1.027819
      3          6           0        1.133827   -0.968380    0.878369
      4          6           0        2.010842   -0.115087   -0.028297
      5          6           0        2.981107    0.729897    0.518646
      6          6           0        3.816622    1.483180   -0.306928
      7          6           0        3.685417    1.400454   -1.693241
      8          6           0        2.714831    0.562769   -2.246559
      9          6           0        1.883307   -0.189309   -1.418546
     10          7           0       -0.234294   -1.081660    0.395881
     11          6           0       -1.130092   -0.061242    0.329584
     12          6           0       -2.469150   -0.232035   -0.134047
     13          6           0       -3.307113    0.897265   -0.142723
     14          7           0       -2.965837    2.120335    0.238153
     15          6           0       -1.692793    2.281773    0.670348
     16          6           0       -0.772832    1.246553    0.730325
     17          6           0       -1.317804    3.677518    1.089754
     18          6           0       -3.079281   -1.479942   -0.613084
     19          8           0       -4.225586   -1.610453   -0.996035
     20          8           0       -2.234438   -2.566516   -0.611212
     21          1           0        3.821002   -1.933178    1.035945
     22          1           0        3.411198   -3.495564    1.763555
     23          1           0        3.090822   -1.996312    2.647622
     24          1           0        1.709123   -2.866266    0.034227
     25          1           0        0.984935   -2.971542    1.642151
     26          1           0        1.122827   -0.506229    1.876719
     27          1           0        3.079018    0.801679    1.599644
     28          1           0        4.563214    2.138474    0.132950
     29          1           0        4.329641    1.990419   -2.338814
     30          1           0        2.601149    0.500397   -3.325229
     31          1           0        1.114484   -0.825568   -1.847403
     32          1           0       -0.561115   -1.993585    0.110643
     33          1           0       -4.326712    0.759209   -0.493728
     34          1           0        0.234556    1.452317    1.065948
     35          1           0       -1.475916    4.373078    0.258148
     36          1           0       -1.964961    4.010235    1.909158
     37          1           0       -0.274887    3.742432    1.412305
     38          1           0       -2.773814   -3.306226   -0.947294
 ---------------------------------------------------------------------

 SCF Done:  E(UB3LYP) =  -880.856935272     A.U. after   33 cycles
 SCF Done:  E(UB3LYP) =  -880.856935272     a.u. after    1 cycles

 The electronic state is 2-A.
 Alpha  occ. eigenvalues --  -19.04901 -18.96979 -14.21296 -14.16440 -10.15912
 Alpha  occ. eigenvalues --  -10.11696 -10.10393 -10.08505 -10.08480 -10.08462
 Alpha  occ. eigenvalues --  -10.08322 -10.08250 -10.07908 -10.07857 -10.07432
 Alpha  occ. eigenvalues --  -10.06935 -10.06531 -10.04840 -10.04646 -10.03786
 Alpha  occ. eigenvalues --   -0.98116  -0.88514  -0.83974  -0.80246  -0.76509
 Alpha  occ. eigenvalues --   -0.70955  -0.66238  -0.65661  -0.65539  -0.65123
 Alpha  occ. eigenvalues --   -0.59340  -0.58559  -0.52902  -0.52316  -0.51522
 Alpha  occ. eigenvalues --   -0.49726  -0.47994  -0.46818  -0.42898  -0.41725
 Alpha  occ. eigenvalues --   -0.40103  -0.38329  -0.36755  -0.35851  -0.35605
 Alpha  occ. eigenvalues --   -0.35269  -0.34396  -0.33271  -0.32962  -0.32349
 Alpha  occ. eigenvalues --   -0.31466  -0.31207  -0.30923  -0.30680  -0.28176
 Alpha  occ. eigenvalues --   -0.28027  -0.27627  -0.26898  -0.26725  -0.26150
 Alpha  occ. eigenvalues --   -0.25508  -0.24723  -0.24235  -0.22678  -0.21073
 Alpha  occ. eigenvalues --   -0.20185  -0.16472  -0.15828  -0.15563  -0.13045
 Alpha  occ. eigenvalues --   -0.12621  -0.10214   0.04011
 Alpha virt. eigenvalues --    0.05803   0.06483   0.07171   0.07359   0.07560
 Alpha virt. eigenvalues --    0.08106   0.08633   0.09094   0.09429   0.10223
 Alpha virt. eigenvalues --    0.11024   0.11193   0.11460   0.11916   0.12149

  Beta  occ. eigenvalues --  -19.04838 -18.96775 -14.21265 -14.16554 -10.15669
  Beta  occ. eigenvalues --  -10.11686 -10.10278 -10.08500 -10.08466 -10.08460
  Beta  occ. eigenvalues --  -10.08293 -10.08219 -10.07912 -10.07809 -10.07414
  Beta  occ. eigenvalues --  -10.06595 -10.06341 -10.04863 -10.04610 -10.03828
  Beta  occ. eigenvalues --   -0.97872  -0.88196  -0.83859  -0.80090  -0.76448
  Beta  occ. eigenvalues --   -0.70884  -0.66025  -0.65559  -0.65413  -0.64964
  Beta  occ. eigenvalues --   -0.59108  -0.58515  -0.52810  -0.52027  -0.51442
  Beta  occ. eigenvalues --   -0.49612  -0.47888  -0.46633  -0.42838  -0.41574
  Beta  occ. eigenvalues --   -0.40026  -0.38275  -0.36579  -0.35792  -0.35534
  Beta  occ. eigenvalues --   -0.35023  -0.34310  -0.33133  -0.32554  -0.31889
  Beta  occ. eigenvalues --   -0.31375  -0.31055  -0.30656  -0.30388  -0.28101
  Beta  occ. eigenvalues --   -0.27868  -0.27553  -0.26809  -0.26675  -0.25875
  Beta  occ. eigenvalues --   -0.25470  -0.24635  -0.24066  -0.22547  -0.20486
  Beta  occ. eigenvalues --   -0.19521  -0.16319  -0.15663  -0.15375  -0.12668
  Beta  occ. eigenvalues --   -0.12003  -0.09905
  Beta virt. eigenvalues --    0.05984   0.06671   0.07326   0.07514   0.07587
  Beta virt. eigenvalues --    0.08178   0.08733   0.08964   0.09220   0.09522
  Beta virt. eigenvalues --    0.10231   0.11054   0.11278   0.11828   0.11945

 Mulliken charges and spin densities:
               1          2
     1  C   -0.008213  -0.725790
     2  C   -0.840763   0.591367
     3  C    0.316788  -0.644545
     4  C    1.006545   0.035529
     5  C   -0.119998  -0.013832
     6  C   -0.026112  -0.273344
     7  C   -0.093448  -0.305508
     8  C   -0.450348   0.074742
     9  C   -0.322298   0.112843
    10  N   -0.047196   0.025499
    11  C    0.387877   0.078611
    12  C   -0.220293  -0.021899
    13  C    0.192674   0.180613
    14  N   -0.016984  -0.059893
    15  C   -1.506113   0.303282
    16  C    0.823749  -0.090804
    17  C   -0.511162  -0.162919
    18  C   -0.424124   0.179734
    19  O   -0.396515   0.073446
    20  O   -0.332748   0.008963
    21  H    0.141779   0.012440
    22  H   -0.100107   0.242368
    23  H   -0.040683   0.190053
    24  H    0.117701   0.020165
    25  H    0.037199   0.109853
    26  H   -0.024309   0.253372
    27  H   -0.124779   0.301197
    28  H   -0.137415   0.311678
    29  H    0.066680   0.066436
    30  H    0.105318   0.053387
    31  H    0.205393  -0.009651
    32  H    0.460600  -0.003505
    33  H    0.208280  -0.007354
    34  H    0.061604  -0.020884
    35  H    0.144806   0.003895
    36  H    0.102204   0.046438
    37  H    0.062469   0.049776
    38  H    0.301942   0.014238
 Sum of Mulliken charges =  -1.00000   1.00000

 Dipole moment (field-independent basis, Debye):
    X=              5.2766    Y=             -2.5365    Z=             -1.4802  Tot=              6.0388
 Quadrupole moment (field-independent basis, Debye-Ang):
   XX=           -196.8222   YY=           -147.2251   ZZ=           -140.1076
   XY=              5.0948   XZ=             -8.6013   YZ=              1.0630

 Summary of Natural Population Analysis:

                                       Natural Population
                Natural  -----------------------------------------------
    Atom  No    Charge         Core      Valence    Rydberg      Total
 -----------------------------------------------------------------------
      C    1   -0.28807      0.99966     2.28361    0.00480     3.28807
      C    2   -0.18665      0.99962     2.17797    0.00907     3.18665
      C    3   -0.01323      0.99955     2.00049    0.01320     3.01323
      C    4   -0.01399      0.99949     2.00249    0.01201     3.01399
      C    5   -0.09705      0.99950     2.08769    0.00986     3.09705
      C    6   -0.10404      0.99957     2.09411    0.01037     3.10404
      C    7   -0.10364      0.99957     2.09478    0.00929     3.10364
      C    8   -0.09635      0.99957     2.08715    0.00963     3.09635
      C    9   -0.09874      0.99950     2.09133    0.00791     3.09874
      N   10   -0.30784      0.99965     2.79874    0.00946     3.80784
      C   11    0.14959      0.99951     1.83972    0.01118     2.85041
      C   12   -0.13589      0.99943     2.12556    0.01090     3.13589
      C   13    0.10077      0.99958     1.88700    0.01265     2.89923
      N   14   -0.28673      0.99968     2.77620    0.01085     3.78673
      C   15    0.17279      0.99955     1.81316    0.01449     2.82721
      C   16   -0.17444      0.99948     2.16755    0.00741     3.17444
      C   17   -0.29871      0.99964     2.29363    0.00544     3.29871
      C   18    0.42526      0.99965     1.55159    0.02350     2.57474
      O   19   -0.30972      0.99987     3.30410    0.00574     4.30972
      O   20   -0.36884      0.99987     3.36244    0.00653     4.36884
      H   21    0.10234      0.00000     0.39673    0.00093     0.39766
      H   22    0.09805      0.00000     0.40128    0.00066     0.40195
      H   23    0.09821      0.00000     0.40078    0.00101     0.40179
      H   24    0.09551      0.00000     0.40335    0.00114     0.40449
      H   25    0.09969      0.00000     0.39920    0.00111     0.40031
      H   26    0.09811      0.00000     0.39974    0.00216     0.40189
      H   27    0.10109      0.00000     0.39711    0.00180     0.39891
      H   28    0.09957      0.00000     0.39956    0.00086     0.40043
      H   29    0.09774      0.00000     0.40151    0.00075     0.40226
      H   30    0.09791      0.00000     0.40133    0.00076     0.40209
      H   31    0.10565      0.00000     0.39287    0.00147     0.39435
      H   32    0.20618      0.00000     0.29131    0.00251     0.29382
      H   33    0.09324      0.00000     0.40564    0.00112     0.40676
      H   34    0.10268      0.00000     0.39555    0.00177     0.39732
      H   35    0.10419      0.00000     0.39464    0.00117     0.39581
      H   36    0.10372      0.00000     0.39455    0.00173     0.39628
      H   37    0.09584      0.00000     0.40338    0.00078     0.40416
      H   38    0.23581      0.00000     0.25964    0.00455     0.26419
 =======================================================================
   * Total *    0.00000     19.99195    51.77748    0.23057    72.00000

 Normal termination of Gaussian 16 at Mon Dec 14 19:10:48 2020.
