 Gaussian 16, Revision A.03,

 -----------------------------------------------------------
 # opt freq B3LYP/6-31G(d) empiricaldispersion=gd3bj scf=xqc
 -----------------------------------------------------------

 ------------------------------
 CID_64200287_JID_4195_neutraal
 ------------------------------
 Symbolic Z-matrix:
 Charge =  0 Multiplicity = 1

 SCF Done:  E(RB3LYP) =  -582.481097989     A.U. after   13 cycles
 SCF Done:  E(RB3LYP) =  -582.484865234     A.U. after   11 cycles
 SCF Done:  E(RB3LYP) =  -582.484021418     A.U. after   10 cycles
 SCF Done:  E(RB3LYP) =  -582.485532889     A.U. after   10 cycles
 SCF Done:  E(RB3LYP) =  -582.485534424     A.U. after   11 cycles
 SCF Done:  E(RB3LYP) =  -582.485736642     A.U. after   10 cycles
 SCF Done:  E(RB3LYP) =  -582.485736159     A.U. after    9 cycles
 SCF Done:  E(RB3LYP) =  -582.485747301     A.U. after    9 cycles
 SCF Done:  E(RB3LYP) =  -582.485770585     A.U. after    9 cycles
 SCF Done:  E(RB3LYP) =  -582.485771940     A.U. after    7 cycles
 SCF Done:  E(RB3LYP) =  -582.485772368     A.U. after    7 cycles
 SCF Done:  E(RB3LYP) =  -582.485772612     A.U. after    7 cycles
 SCF Done:  E(RB3LYP) =  -582.485772643     A.U. after    6 cycles
 Optimization completed.
    -- Stationary point found.
 Normal termination of Gaussian 16 at Thu Dec 10 09:22:10 2020.

 --------------------------------------------------------------------
 #N Geom=AllCheck Guess=TCheck SCRF=Check GenChk RB3LYP/6-31G(d) Freq
 --------------------------------------------------------------------

 Structure from the checkpoint file:  "JID_4195.chk"
 ------------------------------
 CID_64200287_JID_4195_neutraal
 ------------------------------
 Charge =  0 Multiplicity = 1

 SCF Done:  E(RB3LYP) =  -582.485772643     A.U. after    1 cycles

  Exact polarizability: 159.228  -1.183 132.822   2.635   1.547 120.832
 Approx polarizability: 193.985  -0.584 185.514   4.084   2.469 188.479

                      1                      2                      3
                      A                      A                      A
 Frequencies --     46.1245                56.4858                68.6143
 Red. masses --      3.0959                 2.7249                 2.9930
 Frc consts  --      0.0039                 0.0051                 0.0083
 IR Inten    --      0.0356                 0.1180                 0.0597

                      4                      5                      6
                      A                      A                      A
 Frequencies --    103.8729               122.2706               139.7728
 Red. masses --      3.0468                 1.9690                 2.0147
 Frc consts  --      0.0194                 0.0173                 0.0232
 IR Inten    --      0.5658                 0.1541                 1.6793

                      7                      8                      9
                      A                      A                      A
 Frequencies --    166.5571               185.6956               215.8389
 Red. masses --      2.1837                 3.3389                 1.2874
 Frc consts  --      0.0357                 0.0678                 0.0353
 IR Inten    --      3.1108                 0.5898                 0.1991

                     10                     11                     12
                      A                      A                      A
 Frequencies --    218.5746               243.2888               245.9118
 Red. masses --      1.4166                 2.3775                 1.5062
 Frc consts  --      0.0399                 0.0829                 0.0537
 IR Inten    --      0.1450                 0.7090                 0.9680

                     13                     14                     15
                      A                      A                      A
 Frequencies --    267.3200               305.1613               320.3013
 Red. masses --      1.2583                 1.4594                 2.0695
 Frc consts  --      0.0530                 0.0801                 0.1251
 IR Inten    --      0.6411                 0.5504                 4.6864

                     16                     17                     18
                      A                      A                      A
 Frequencies --    324.8666               345.7160               363.7071
 Red. masses --      2.1281                 1.8908                 2.5721
 Frc consts  --      0.1323                 0.1331                 0.2005
 IR Inten    --      0.3377                 0.8275                 2.6369

                     19                     20                     21
                      A                      A                      A
 Frequencies --    388.3985               430.6813               451.9374
 Red. masses --      1.9581                 3.3370                 2.6317
 Frc consts  --      0.1740                 0.3647                 0.3167
 IR Inten    --      2.4456                 0.1315                 4.5446

                     22                     23                     24
                      A                      A                      A
 Frequencies --    483.2308               508.7696               539.0969
 Red. masses --      2.6226                 2.8432                 2.7045
 Frc consts  --      0.3608                 0.4336                 0.4631
 IR Inten    --      1.9804                 1.4734                 4.1411

                     25                     26                     27
                      A                      A                      A
 Frequencies --    590.4172               638.4014               750.5309
 Red. masses --      2.2515                 2.4568                 1.5418
 Frc consts  --      0.4624                 0.5899                 0.5117
 IR Inten    --      1.2878                 0.5650                 5.8290

                     28                     29                     30
                      A                      A                      A
 Frequencies --    770.8110               801.0356               833.5601
 Red. masses --      1.9856                 2.0012                 1.9324
 Frc consts  --      0.6951                 0.7566                 0.7911
 IR Inten    --     34.4862                 4.1520               115.8959

                     31                     32                     33
                      A                      A                      A
 Frequencies --    860.2216               870.0631               874.8724
 Red. masses --      1.8654                 2.1246                 1.8931
 Frc consts  --      0.8133                 0.9476                 0.8537
 IR Inten    --      3.7896                 1.6061                 0.1679

                     34                     35                     36
                      A                      A                      A
 Frequencies --    896.9227               915.8826               932.1216
 Red. masses --      1.6532                 1.6571                 1.7116
 Frc consts  --      0.7836                 0.8190                 0.8762
 IR Inten    --     10.1467                 3.4216                17.7291

                     37                     38                     39
                      A                      A                      A
 Frequencies --    965.4261               981.0389              1009.2828
 Red. masses --      1.7183                 1.8339                 2.0782
 Frc consts  --      0.9436                 1.0399                 1.2473
 IR Inten    --      2.7725                 2.9289                 1.6615

                     40                     41                     42
                      A                      A                      A
 Frequencies --   1021.3563              1032.0509              1044.2760
 Red. masses --      1.3333                 1.5448                 1.7983
 Frc consts  --      0.8195                 0.9694                 1.1554
 IR Inten    --      1.5738                 2.5496                45.7317

                     43                     44                     45
                      A                      A                      A
 Frequencies --   1073.0483              1082.0601              1122.4577
 Red. masses --      1.9736                 2.3385                 2.1198
 Frc consts  --      1.3389                 1.6132                 1.5736
 IR Inten    --     11.7199                12.6844                 3.8794

                     46                     47                     48
                      A                      A                      A
 Frequencies --   1131.7467              1136.2758              1140.8999
 Red. masses --      1.8834                 3.3177                 2.0132
 Frc consts  --      1.4213                 2.5238                 1.5440
 IR Inten    --     28.5261                 4.9101                 5.8017

                     49                     50                     51
                      A                      A                      A
 Frequencies --   1154.8991              1162.9996              1168.9394
 Red. masses --      1.4902                 1.6823                 1.4857
 Frc consts  --      1.1710                 1.3406                 1.1961
 IR Inten    --      7.7614                10.4152                 6.2139

                     52                     53                     54
                      A                      A                      A
 Frequencies --   1190.0363              1212.5591              1234.4033
 Red. masses --      2.0906                 1.7704                 2.1721
 Frc consts  --      1.7444                 1.5337                 1.9500
 IR Inten    --     12.6506                 9.9891                26.5490

                     55                     56                     57
                      A                      A                      A
 Frequencies --   1258.9980              1284.6327              1288.3502
 Red. masses --      1.7300                 1.6821                 1.4416
 Frc consts  --      1.6157                 1.6355                 1.4098
 IR Inten    --      8.4903                48.8050                 6.0748

                     58                     59                     60
                      A                      A                      A
 Frequencies --   1319.9894              1337.4990              1344.0772
 Red. masses --      1.3773                 1.3353                 1.2300
 Frc consts  --      1.4139                 1.4074                 1.3092
 IR Inten    --      5.6450                 3.1633                 0.7393

                     61                     62                     63
                      A                      A                      A
 Frequencies --   1353.0764              1366.5862              1382.6942
 Red. masses --      1.2907                 1.2702                 1.3684
 Frc consts  --      1.3923                 1.3976                 1.5414
 IR Inten    --      0.6059                 6.2532                 1.1041

                     64                     65                     66
                      A                      A                      A
 Frequencies --   1388.9404              1396.4741              1399.5439
 Red. masses --      1.4404                 1.3349                 1.3873
 Frc consts  --      1.6372                 1.5338                 1.6010
 IR Inten    --      7.8583                 8.9591                 0.8850

                     67                     68                     69
                      A                      A                      A
 Frequencies --   1405.9416              1417.5480              1427.9215
 Red. masses --      1.3477                 1.4125                 1.2628
 Frc consts  --      1.5696                 1.6723                 1.5170
 IR Inten    --      2.6767                 5.3070                10.4740

                     70                     71                     72
                      A                      A                      A
 Frequencies --   1434.5941              1443.0355              1447.3661
 Red. masses --      1.2534                 1.2708                 1.2807
 Frc consts  --      1.5198                 1.5592                 1.5807
 IR Inten    --      2.5402                 8.3129                 3.8426

                     73                     74                     75
                      A                      A                      A
 Frequencies --   1463.7535              1494.2938              1500.4205
 Red. masses --      1.2777                 1.1315                 1.1040
 Frc consts  --      1.6129                 1.4887                 1.4643
 IR Inten    --     14.1831                 3.3175                 5.7964

                     76                     77                     78
                      A                      A                      A
 Frequencies --   1509.8246              1512.3477              1515.3245
 Red. masses --      1.0628                 1.0823                 1.1314
 Frc consts  --      1.4275                 1.4585                 1.5306
 IR Inten    --      5.1034                 3.3444                 9.8567

                     79                     80                     81
                      A                      A                      A
 Frequencies --   1518.4136              1522.1276              1525.3924
 Red. masses --      1.0857                 1.0715                 1.0816
 Frc consts  --      1.4748                 1.4627                 1.4828
 IR Inten    --      1.6521                 2.8732                 7.1664

                     82                     83                     84
                      A                      A                      A
 Frequencies --   1528.9810              1533.6917              1536.8102
 Red. masses --      1.0579                 1.0549                 1.0752
 Frc consts  --      1.4572                 1.4620                 1.4962
 IR Inten    --      4.7735                 2.2179                10.4671

                     85                     86                     87
                      A                      A                      A
 Frequencies --   1539.2415              1539.9800              1545.2923
 Red. masses --      1.0598                 1.0664                 1.0649
 Frc consts  --      1.4794                 1.4901                 1.4982
 IR Inten    --      4.7190                 2.1744                 3.4232

                     88                     89                     90
                      A                      A                      A
 Frequencies --   1555.3260              2952.8807              2981.8317
 Red. masses --      1.0554                 1.0630                 1.0825
 Frc consts  --      1.5043                 5.4611                 5.6707
 IR Inten    --      5.6322                95.8774                21.4636

                     91                     92                     93
                      A                      A                      A
 Frequencies --   3010.8983              3032.7364              3041.8442
 Red. masses --      1.0704                 1.0631                 1.0622
 Frc consts  --      5.7172                 5.7610                 5.7906
 IR Inten    --     41.4751                29.0293                19.3116

                     94                     95                     96
                      A                      A                      A
 Frequencies --   3042.4221              3046.8296              3049.4481
 Red. masses --      1.0589                 1.0552                 1.0491
 Frc consts  --      5.7751                 5.7713                 5.7481
 IR Inten    --     16.1017                19.2485                 9.1553

                     97                     98                     99
                      A                      A                      A
 Frequencies --   3050.8582              3052.2878              3055.8931
 Red. masses --      1.0498                 1.0555                 1.0565
 Frc consts  --      5.7569                 5.7939                 5.8127
 IR Inten    --      6.4130                50.3389                61.4754

                    100                    101                    102
                      A                      A                      A
 Frequencies --   3060.7260              3064.4267              3067.6475
 Red. masses --      1.0805                 1.0781                 1.0965
 Frc consts  --      5.9637                 5.9649                 6.0794
 IR Inten    --     48.6804                30.5510                20.9385

                    103                    104                    105
                      A                      A                      A
 Frequencies --   3083.7694              3089.8276              3095.3480
 Red. masses --      1.1003                 1.1026                 1.1005
 Frc consts  --      6.1646                 6.2018                 6.2126
 IR Inten    --     56.4732                49.5308                22.5584

                    106                    107                    108
                      A                      A                      A
 Frequencies --   3097.9756              3109.5599              3112.3696
 Red. masses --      1.0957                 1.1018                 1.1004
 Frc consts  --      6.1956                 6.2771                 6.2801
 IR Inten    --     62.4597                49.6821               126.3751

                    109                    110                    111
                      A                      A                      A
 Frequencies --   3114.7844              3117.1417              3127.1753
 Red. masses --      1.1008                 1.0990                 1.1016
 Frc consts  --      6.2926                 6.2918                 6.3474
 IR Inten    --     20.0970                17.7795                21.8565

                    112                    113                    114
                      A                      A                      A
 Frequencies --   3140.8511              3149.3980              3460.1667
 Red. masses --      1.1000                 1.0917                 1.0735
 Frc consts  --      6.3937                 6.3798                 7.5725
 IR Inten    --     38.1108                29.2607                 3.9355

 - Thermochemistry -
 -------------------
 Temperature   298.150 Kelvin.  Pressure   1.00000 Atm.
 Atom     1 has atomic number  6 and mass  12.00000

 Molecular mass:   198.20960 amu.
 Principal axes and moments of inertia in atomic units:
                           1         2         3
     Eigenvalues --  1479.800754791.765515362.27872
           X            0.99998  -0.00660   0.00206
           Y            0.00659   0.99997   0.00460
           Z           -0.00209  -0.00459   0.99999
 This molecule is an asymmetric top.
 Rotational symmetry number  1.
 Warning -- assumption of classical behavior for rotation
           may cause significant error
 Rotational temperatures (Kelvin)      0.05853     0.01808     0.01615
 Rotational constants (GHZ):           1.21958     0.37663     0.33656
 Zero-point vibrational energy     989242.2 (Joules/Mol)
                                  236.43456 (Kcal/Mol)
 Warning -- explicit consideration of  25 degrees of freedom as
           vibrations may cause significant error
 Vibrational temperatures:     66.36    81.27    98.72   149.45   175.92
          (Kelvin)            201.10   239.64   267.17   310.54   314.48
                              350.04   353.81   384.61   439.06   460.84
                              467.41   497.41   523.29   558.82   619.65
                              650.24   695.26   732.01   775.64   849.48
                              918.52  1079.85  1109.03  1152.51  1199.31
                             1237.67  1251.83  1258.75  1290.47  1317.75
                             1341.12  1389.03  1411.50  1452.13  1469.50
                             1484.89  1502.48  1543.88  1556.84  1614.97
                             1628.33  1634.85  1641.50  1661.64  1673.30
                             1681.84  1712.20  1744.60  1776.03  1811.42
                             1848.30  1853.65  1899.17  1924.36  1933.83
                             1946.78  1966.21  1989.39  1998.38  2009.21
                             2013.63  2022.84  2039.54  2054.46  2064.06
                             2076.21  2082.44  2106.01  2149.96  2158.77
                             2172.30  2175.93  2180.21  2184.66  2190.00
                             2194.70  2199.86  2206.64  2211.13  2214.63
                             2215.69  2223.33  2237.77  4248.54  4290.19
                             4332.01  4363.43  4376.54  4377.37  4383.71
                             4387.48  4389.50  4391.56  4396.75  4403.70
                             4409.03  4413.66  4436.86  4445.57  4453.52
                             4457.30  4473.96  4478.01  4481.48  4484.87
                             4499.31  4518.98  4531.28  4978.41

 Zero-point correction=                           0.376782 (Hartree/Particle)
 Thermal correction to Energy=                    0.392961
 Thermal correction to Enthalpy=                  0.393905
 Thermal correction to Gibbs Free Energy=         0.334151
 Sum of electronic and zero-point Energies=           -582.108990
 Sum of electronic and thermal Energies=              -582.092812
 Sum of electronic and thermal Enthalpies=            -582.091868
 Sum of electronic and thermal Free Energies=         -582.151622

                     E (Thermal)             CV                S
                      KCal/Mol        Cal/Mol-Kelvin    Cal/Mol-Kelvin
 Total                  246.587             62.431            125.763
 Electronic               0.000              0.000              0.000
 Translational            0.889              2.981             41.757
 Rotational               0.889              2.981             32.008
 Vibrational            244.809             56.470             51.997
 Vibration     1          0.595              1.979              4.977
 Vibration     2          0.596              1.975              4.576
 Vibration     3          0.598              1.969              4.193
 Vibration     4          0.605              1.946              3.380
 Vibration     5          0.610              1.931              3.064
 Vibration     6          0.615              1.914              2.807
 Vibration     7          0.624              1.884              2.474
 Vibration     8          0.632              1.859              2.270
 Vibration     9          0.645              1.817              1.994
 Vibration    10          0.646              1.813              1.971
 Vibration    11          0.659              1.774              1.779
 Vibration    12          0.660              1.770              1.760
 Vibration    13          0.672              1.733              1.613
 Vibration    14          0.696              1.664              1.388
 Vibration    15          0.706              1.635              1.309
 Vibration    16          0.709              1.626              1.285
 Vibration    17          0.724              1.584              1.186
 Vibration    18          0.737              1.547              1.106
 Vibration    19          0.757              1.495              1.006
 Vibration    20          0.792              1.403              0.856
 Vibration    21          0.811              1.357              0.790
 Vibration    22          0.839              1.287              0.701
 Vibration    23          0.864              1.231              0.637
 Vibration    24          0.894              1.164              0.567
 Vibration    25          0.948              1.052              0.466

                           ! Non-Optimized Parameters !
 Normal termination of Gaussian 16 at Thu Dec 10 09:35:16 2020.

 ----------------------------------------------------------------------
 # B3LYP/6-311++G(d,p) empiricaldispersion=gd3bj scf=xqc pop=npa geom=c
 heck
 ----------------------------------------------------------------------

 --------------------------------------
 CID_64200287_JID_4195_Energie_neutraal
 --------------------------------------
 Structure from the checkpoint file:  "JID_4195.chk"
 Charge =  0 Multiplicity = 1

 SCF Done:  E(RB3LYP) =  -582.649343000     A.U. after   14 cycles
 Normal termination of Gaussian 16 at Thu Dec 10 09:41:07 2020.

 ----------------------------------------------------------------------
 # B3LYP/6-311++G(d,p) empiricaldispersion=gd3bj scf=xqc pop=npa geom=c
 heck
 ----------------------------------------------------------------------

 ------------------------------------
 CID_64200287_JID_4195_Energie_kation
 ------------------------------------
 Structure from the checkpoint file:  "JID_4195.chk"
 Charge =  1 Multiplicity = 2

 SCF Done:  E(UB3LYP) =  -582.387193178     A.U. after   21 cycles
 Normal termination of Gaussian 16 at Thu Dec 10 09:52:42 2020.
 Gaussian 16:  ES64L-G16RevA.03 25-Dec-2016

 ----------------------------------------------------------------------
 # B3LYP/6-311++G(d,p) empiricaldispersion=gd3bj scf=xqc pop=npa geom=c
 heck
 ----------------------------------------------------------------------

 -----------------------------------
 CID_64200287_JID_4195_Energie_anion
 -----------------------------------
 Structure from the checkpoint file:  "JID_4195.chk"
 Charge = -1 Multiplicity = 2

                         Standard orientation:
 ---------------------------------------------------------------------
 Center     Atomic      Atomic             Coordinates (Angstroms)
 Number     Number       Type             X           Y           Z
 ---------------------------------------------------------------------
      1          6           0        4.580815   -0.552168    0.532583
      2          6           0        3.761523   -0.590214   -0.761262
      3          6           0        2.249632   -0.758790   -0.544651
      4          6           0        1.580146    0.332840    0.312527
      5          6           0        1.792592    1.744529   -0.262886
      6          7           0        0.179910   -0.004944    0.596364
      7          6           0       -0.287884    0.437748    1.893010
      8          6           0       -0.730704   -0.127481   -0.554922
      9          6           0       -1.237815   -1.582044   -0.711287
     10          6           0       -2.389612   -1.901917    0.250278
     11          7           0       -3.534354   -0.991415    0.123913
     12          6           0       -3.138390    0.416434    0.232113
     13          6           0       -1.956434    0.827210   -0.671610
     14          6           0       -1.631030    2.317436   -0.553460
     15          1           0        4.351268    0.333767    1.135260
     16          1           0        5.655158   -0.533250    0.318441
     17          1           0        4.378171   -1.434656    1.151995
     18          1           0        3.958181    0.317007   -1.346775
     19          1           0        4.110570   -1.426883   -1.380349
     20          1           0        1.763414   -0.806985   -1.527684
     21          1           0        2.057573   -1.722239   -0.055137
     22          1           0        2.073700    0.310013    1.291654
     23          1           0        1.412968    1.819904   -1.288491
     24          1           0        1.274189    2.491702    0.345841
     25          1           0        2.855242    2.009911   -0.284289
     26          1           0       -0.458313    1.525147    1.994200
     27          1           0       -1.216813   -0.065532    2.164908
     28          1           0        0.456024    0.159449    2.649470
     29          1           0       -0.118741    0.091965   -1.436008
     30          1           0       -1.595026   -1.728005   -1.742551
     31          1           0       -0.400566   -2.270024   -0.554081
     32          1           0       -2.032202   -1.857717    1.286320
     33          1           0       -2.750821   -2.924559    0.090676
     34          1           0       -3.951971   -1.135290   -0.795844
     35          1           0       -2.913405    0.627063    1.283258
     36          1           0       -4.010900    1.032135   -0.019367
     37          1           0       -2.313460    0.662162   -1.701389
     38          1           0       -0.840256    2.607606   -1.252393
     39          1           0       -2.518260    2.919444   -0.784799
     40          1           0       -1.301645    2.590877    0.452595
 ---------------------------------------------------------------------

 SCF Done:  E(UB3LYP) =  -582.634864755     A.U. after   28 cycles

 The electronic state is 2-A.
 Alpha  occ. eigenvalues --  -14.19674 -14.19622 -10.09869 -10.09764 -10.09090
 Alpha  occ. eigenvalues --  -10.09015 -10.08885 -10.07180 -10.06808 -10.06236
 Alpha  occ. eigenvalues --  -10.06176 -10.05912 -10.05778 -10.05610  -0.82427
 Alpha  occ. eigenvalues --   -0.80512  -0.70380  -0.68588  -0.66211  -0.64280
 Alpha  occ. eigenvalues --   -0.59772  -0.58319  -0.56925  -0.53603  -0.50563
 Alpha  occ. eigenvalues --   -0.50144  -0.47558  -0.43284  -0.40370  -0.38685
 Alpha  occ. eigenvalues --   -0.37050  -0.36763  -0.35107  -0.34236  -0.33250
 Alpha  occ. eigenvalues --   -0.32799  -0.32633  -0.32206  -0.30889  -0.30012
 Alpha  occ. eigenvalues --   -0.29529  -0.28592  -0.27729  -0.27385  -0.27201
 Alpha  occ. eigenvalues --   -0.26361  -0.25545  -0.24806  -0.24014  -0.23688
 Alpha  occ. eigenvalues --   -0.22976  -0.21904  -0.21503  -0.21400  -0.12457
 Alpha  occ. eigenvalues --   -0.09943   0.04305
 Alpha virt. eigenvalues --    0.05942   0.06916   0.07239   0.07954   0.08270
 Alpha virt. eigenvalues --    0.08793   0.09263   0.09965   0.10114   0.10826
 Alpha virt. eigenvalues --    0.11108   0.11573   0.11890   0.12504   0.12700

  Beta  occ. eigenvalues --  -14.19659 -14.19622 -10.09862 -10.09758 -10.09078
  Beta  occ. eigenvalues --  -10.09008 -10.08874 -10.07164 -10.06790 -10.06206
  Beta  occ. eigenvalues --  -10.06165 -10.05889 -10.05762 -10.05584  -0.82412
  Beta  occ. eigenvalues --   -0.80488  -0.70351  -0.68557  -0.66183  -0.64248
  Beta  occ. eigenvalues --   -0.59739  -0.58272  -0.56887  -0.53560  -0.50517
  Beta  occ. eigenvalues --   -0.50094  -0.47507  -0.43243  -0.40328  -0.38654
  Beta  occ. eigenvalues --   -0.37021  -0.36730  -0.35080  -0.34215  -0.33217
  Beta  occ. eigenvalues --   -0.32760  -0.32602  -0.32183  -0.30860  -0.29988
  Beta  occ. eigenvalues --   -0.29505  -0.28561  -0.27698  -0.27355  -0.27174
  Beta  occ. eigenvalues --   -0.26328  -0.25508  -0.24775  -0.23979  -0.23649
  Beta  occ. eigenvalues --   -0.22947  -0.21867  -0.21475  -0.21370  -0.12436
  Beta  occ. eigenvalues --   -0.09934
  Beta virt. eigenvalues --    0.06297   0.06952   0.07368   0.07611   0.08468
  Beta virt. eigenvalues --    0.08718   0.09174   0.09518   0.10183   0.10514
  Beta virt. eigenvalues --    0.11171   0.11344   0.11934   0.12200   0.12760

 Mulliken charges and spin densities:
               1          2
     1  C    0.755690  -1.373953
     2  C   -0.457730   0.127820
     3  C   -0.184821   0.240363
     4  C   -1.344535   0.718466
     5  C    0.747926  -1.261391
     6  N    0.313711   0.091444
     7  C    0.258603  -0.473102
     8  C    0.563253  -0.624840
     9  C    0.070484  -0.276163
    10  C    0.081561  -0.624885
    11  N   -0.136054   0.101813
    12  C    0.039088  -0.681187
    13  C   -1.057767   1.102299
    14  C    0.769995  -1.424305
    15  H   -0.225864   0.359744
    16  H   -0.418306   0.565031
    17  H   -0.050429   0.188231
    18  H    0.017149   0.124851
    19  H   -0.270811   0.426819
    20  H   -0.245466   0.393049
    21  H    0.119177   0.029349
    22  H    0.276637  -0.132173
    23  H   -0.321936   0.493977
    24  H    0.020408   0.109106
    25  H   -0.002491   0.159342
    26  H   -0.073969   0.211636
    27  H    0.256218  -0.142450
    28  H   -0.026487   0.152589
    29  H    0.592939  -0.438545
    30  H   -0.318173   0.470562
    31  H    0.066133   0.063082
    32  H    0.067344   0.066380
    33  H   -0.131511   0.325652
    34  H    0.085562   0.141898
    35  H    0.037361   0.124604
    36  H   -0.091294   0.256653
    37  H   -0.570978   0.782073
    38  H   -0.012441   0.151296
    39  H   -0.326056   0.483468
    40  H    0.127881  -0.008601
 Sum of Mulliken charges =  -1.00000   1.00000

 Dipole moment (field-independent basis, Debye):
    X=             -1.2848    Y=             -0.2659    Z=              3.1415  Tot=              3.4045
 Quadrupole moment (field-independent basis, Debye-Ang):
   XX=           -188.7239   YY=           -134.9156   ZZ=           -129.7011
   XY=              1.6180   XZ=             -5.1682   YZ=              1.6433

 Summary of Natural Population Analysis:

                                       Natural Population
                Natural  -----------------------------------------------
    Atom  No    Charge         Core      Valence    Rydberg      Total
 -----------------------------------------------------------------------
      C    1   -0.28786      0.99967     2.28294    0.00524     3.28786
      C    2   -0.19058      0.99964     2.18316    0.00778     3.19058
      C    3   -0.19161      0.99960     2.18223    0.00977     3.19161
      C    4    0.00165      0.99957     1.98697    0.01180     2.99835
      C    5   -0.29813      0.99964     2.29228    0.00622     3.29813
      N    6   -0.29313      0.99969     2.78013    0.01332     3.79313
      C    7   -0.16949      0.99963     2.16335    0.00651     3.16949
      C    8   -0.00086      0.99954     1.98499    0.01633     3.00086
      C    9   -0.19949      0.99960     2.19039    0.00951     3.19949
      C   10   -0.08899      0.99962     2.07810    0.01127     3.08899
      N   11   -0.33824      0.99976     2.82598    0.01250     3.83824
      C   12   -0.08678      0.99959     2.07523    0.01196     3.08678
      C   13   -0.12613      0.99957     2.11418    0.01238     3.12613
      C   14   -0.28425      0.99964     2.27785    0.00676     3.28425
      H   15    0.09547      0.00000     0.40345    0.00108     0.40453
      H   16    0.09972      0.00000     0.39916    0.00112     0.40028
      H   17    0.09532      0.00000     0.40367    0.00101     0.40468
      H   18    0.09453      0.00000     0.40418    0.00129     0.40547
      H   19    0.09610      0.00000     0.40282    0.00108     0.40390
      H   20    0.09782      0.00000     0.40076    0.00142     0.40218
      H   21    0.09847      0.00000     0.40004    0.00150     0.40153
      H   22    0.09212      0.00000     0.40567    0.00221     0.40788
      H   23    0.09781      0.00000     0.40095    0.00124     0.40219
      H   24    0.10036      0.00000     0.39874    0.00090     0.39964
      H   25    0.10037      0.00000     0.39866    0.00097     0.39963
      H   26    0.07663      0.00000     0.42188    0.00149     0.42337
      H   27    0.09313      0.00000     0.40560    0.00127     0.40687
      H   28    0.09251      0.00000     0.40646    0.00103     0.40749
      H   29    0.09955      0.00000     0.39781    0.00265     0.40045
      H   30    0.09311      0.00000     0.40526    0.00163     0.40689
      H   31    0.10248      0.00000     0.39612    0.00140     0.39752
      H   32    0.08756      0.00000     0.41109    0.00136     0.41244
      H   33    0.09402      0.00000     0.40509    0.00089     0.40598
      H   34    0.16882      0.00000     0.32852    0.00266     0.33118
      H   35    0.08719      0.00000     0.41139    0.00142     0.41281
      H   36    0.09575      0.00000     0.40326    0.00098     0.40425
      H   37    0.09785      0.00000     0.39964    0.00251     0.40215
      H   38    0.10242      0.00000     0.39643    0.00115     0.39758
      H   39    0.09908      0.00000     0.39997    0.00095     0.40092
      H   40    0.09570      0.00000     0.40299    0.00131     0.40430
 =======================================================================
   * Total *    0.00000     13.99475    41.82740    0.17785    56.00000

 Normal termination of Gaussian 16 at Thu Dec 10 10:07:56 2020.
