 Gaussian 16, Revision A.03,

 -----------------------------------------------------------
 # opt freq B3LYP/6-31G(d) empiricaldispersion=gd3bj scf=xqc
 -----------------------------------------------------------

 -----------------------------
 CID_153348563_JID_90_neutraal
 -----------------------------
 Symbolic Z-matrix:
 Charge =  0 Multiplicity = 1

 SCF Done:  E(RB3LYP) =  -421.507898257     A.U. after   15 cycles
 SCF Done:  E(RB3LYP) =  -421.511261001     A.U. after   13 cycles
 SCF Done:  E(RB3LYP) =  -421.512197206     A.U. after   12 cycles
 SCF Done:  E(RB3LYP) =  -421.512810579     A.U. after   12 cycles
 SCF Done:  E(RB3LYP) =  -421.513181123     A.U. after   12 cycles
 SCF Done:  E(RB3LYP) =  -421.513274659     A.U. after   12 cycles
 SCF Done:  E(RB3LYP) =  -421.513298161     A.U. after   10 cycles
 SCF Done:  E(RB3LYP) =  -421.513313857     A.U. after   10 cycles
 SCF Done:  E(RB3LYP) =  -421.513320380     A.U. after   10 cycles
 SCF Done:  E(RB3LYP) =  -421.513323689     A.U. after    9 cycles
 SCF Done:  E(RB3LYP) =  -421.513327786     A.U. after   10 cycles
 SCF Done:  E(RB3LYP) =  -421.513331530     A.U. after   10 cycles
 SCF Done:  E(RB3LYP) =  -421.513332333     A.U. after    9 cycles
 SCF Done:  E(RB3LYP) =  -421.513332636     A.U. after    8 cycles
 Optimization completed.
    -- Stationary point found.

 1\1\GINC-NODE310\FOpt\RB3LYP\6-31G(d)\C8H12N2\VSC10255\08-Dec-2020\0\\
 # opt freq B3LYP/6-31G(d) empiricaldispersion=gd3bj scf=xqc\\CID_15334
 8563_JID_90_neutraal\\0,1\C,0.8861603028,-0.0662719745,-0.1088202605\C
 ,0.5278935055,-1.4208367691,0.4148175401\N,0.7330635079,-2.4715205815,
 -0.2858626242\N,0.4298905138,-3.6757675459,0.2771593839\C,0.2652225779
 ,-4.8292116022,-0.5027114893\C,-0.6729531392,-5.7356780145,-0.09900118
 63\C,-0.8916499092,-7.0633295662,-0.6232011167\C,-1.8493314365,-7.8986
 654174,-0.1821396393\C,1.1517735772,-5.0606376689,-1.6428838755\C,2.25

 Normal termination of Gaussian 16 at Tue Dec  8 10:17:14 2020.

 --------------------------------------------------------------------
 #N Geom=AllCheck Guess=TCheck SCRF=Check GenChk RB3LYP/6-31G(d) Freq
 --------------------------------------------------------------------

 Structure from the checkpoint file:  "JID_90.chk"
 -----------------------------
 CID_153348563_JID_90_neutraal
 -----------------------------
 Charge =  0 Multiplicity = 1

 SCF Done:  E(RB3LYP) =  -421.513332636     A.U. after    1 cycles

  Exact polarizability: 212.876  25.000 114.567  -7.750   2.916  46.928
 Approx polarizability: 315.175  63.100 182.284 -17.223   1.816  69.988

                      1                      2                      3
                      A                      A                      A
 Frequencies --     41.5206                87.9868               103.9659
 Red. masses --      3.3513                 2.1307                 3.2923
 Frc consts  --      0.0034                 0.0097                 0.0210
 IR Inten    --      0.8498                 4.1752                 0.3292

                      4                      5                      6
                      A                      A                      A
 Frequencies --    120.3959               146.6910               192.4206
 Red. masses --      1.7223                 2.1022                 1.5883
 Frc consts  --      0.0147                 0.0267                 0.0346
 IR Inten    --      3.9983                 1.3334                 0.8354

                      7                      8                      9
                      A                      A                      A
 Frequencies --    201.9379               216.2082               280.0251
 Red. masses --      2.6718                 2.2720                 3.4655
 Frc consts  --      0.0642                 0.0626                 0.1601
 IR Inten    --      1.8649                 0.6887                 6.4484

                     10                     11                     12
                      A                      A                      A
 Frequencies --    297.4460               382.7514               398.1179
 Red. masses --      3.3381                 4.5695                 2.7728
 Frc consts  --      0.1740                 0.3944                 0.2589
 IR Inten    --     16.8553                 3.5849                 5.7746

                     13                     14                     15
                      A                      A                      A
 Frequencies --    405.4913               475.8905               560.0964
 Red. masses --      2.8084                 2.0884                 2.6417
 Frc consts  --      0.2721                 0.2787                 0.4883
 IR Inten    --      6.6384                 4.1647                12.8907

                     16                     17                     18
                      A                      A                      A
 Frequencies --    599.0957               668.8200               708.4786
 Red. masses --      1.4549                 1.4685                 2.7670
 Frc consts  --      0.3077                 0.3870                 0.8183
 IR Inten    --     45.6920                25.0735                11.5395

                     19                     20                     21
                      A                      A                      A
 Frequencies --    767.2173               838.1001               869.9470
 Red. masses --      2.7091                 2.6479                 1.4036
 Frc consts  --      0.9395                 1.0958                 0.6259
 IR Inten    --      0.7561                 1.5372                 0.9692

                     22                     23                     24
                      A                      A                      A
 Frequencies --    890.0124               894.0100               938.3664
 Red. masses --      1.2976                 1.5107                 1.3640
 Frc consts  --      0.6056                 0.7114                 0.7076
 IR Inten    --     21.4984                53.1659                33.6924

                     25                     26                     27
                      A                      A                      A
 Frequencies --    962.6164               996.2642              1019.0761
 Red. masses --      1.6393                 1.6618                 1.1085
 Frc consts  --      0.8950                 0.9718                 0.6783
 IR Inten    --      0.5713                 4.5183                 4.5484

                     28                     29                     30
                      A                      A                      A
 Frequencies --   1027.0345              1078.1290              1081.4982
 Red. masses --      1.0957                 1.4970                 1.7204
 Frc consts  --      0.6810                 1.0252                 1.1856
 IR Inten    --     29.3630                 1.2607                 2.5122

                     31                     32                     33
                      A                      A                      A
 Frequencies --   1141.0465              1177.1755              1241.5629
 Red. masses --      2.6103                 2.5046                 2.8444
 Frc consts  --      2.0024                 2.0449                 2.5833
 IR Inten    --     90.0361                62.2788                62.1253

                     34                     35                     36
                      A                      A                      A
 Frequencies --   1291.9319              1335.4009              1373.0212
 Red. masses --      1.5168                 1.3504                 1.3767
 Frc consts  --      1.4916                 1.4188                 1.5292
 IR Inten    --    142.0129                15.3575                 9.1867

                     37                     38                     39
                      A                      A                      A
 Frequencies --   1379.1326              1413.8120              1441.7025
 Red. masses --      1.2589                 1.6982                 1.3065
 Frc consts  --      1.4107                 1.9999                 1.5999
 IR Inten    --      0.1166                62.8019                 9.5627

                     40                     41                     42
                      A                      A                      A
 Frequencies --   1459.1224              1489.7002              1506.8580
 Red. masses --      1.3284                 1.5969                 1.0453
 Frc consts  --      1.6663                 2.0880                 1.3984
 IR Inten    --      8.6957                39.6803                 6.5255

                     43                     44                     45
                      A                      A                      A
 Frequencies --   1511.5418              1554.4126              1644.3753
 Red. masses --      1.0644                 1.4586                 3.6567
 Frc consts  --      1.4328                 2.0765                 5.8256
 IR Inten    --      4.8545                12.1694               104.8235

                     46                     47                     48
                      A                      A                      A
 Frequencies --   1696.7153              1714.4997              1725.2055
 Red. masses --      4.0730                 4.2749                 6.8525
 Frc consts  --      6.9085                 7.4038                12.0165
 IR Inten    --     95.5597                23.5440                 3.0710

                     49                     50                     51
                      A                      A                      A
 Frequencies --   3023.0702              3037.7071              3081.8873
 Red. masses --      1.0790                 1.0444                 1.1003
 Frc consts  --      5.8100                 5.6783                 6.1572
 IR Inten    --     54.6129                44.1927                21.7496

                     52                     53                     54
                      A                      A                      A
 Frequencies --   3134.9479              3148.8328              3162.4145
 Red. masses --      1.0871                 1.0992                 1.0588
 Frc consts  --      6.2947                 6.4214                 6.2387
 IR Inten    --     16.2470                12.2913                13.0773

                     55                     56                     57
                      A                      A                      A
 Frequencies --   3174.2774              3182.1001              3205.4638
 Red. masses --      1.0864                 1.0658                 1.0889
 Frc consts  --      6.4493                 6.3587                 6.5923
 IR Inten    --     10.2965                 4.0680                17.2810

                     58                     59                     60
                      A                      A                      A
 Frequencies --   3248.7413              3283.8032              3453.4536
 Red. masses --      1.1151                 1.1122                 1.0742
 Frc consts  --      6.9340                 7.0660                 7.5482
 IR Inten    --     19.4990                 6.8835                 6.0506

 - Thermochemistry -
 -------------------
 Temperature   298.150 Kelvin.  Pressure   1.00000 Atm.
 Atom     1 has atomic number  6 and mass  12.00000

 Molecular mass:   136.10005 amu.
 Principal axes and moments of inertia in atomic units:
                           1         2         3
     Eigenvalues --   669.800153051.522273642.72690
           X            1.00000  -0.00101   0.00069
           Y            0.00100   0.99996   0.00892
           Z           -0.00069  -0.00892   0.99996
 This molecule is an asymmetric top.
 Rotational symmetry number  1.
 Warning -- assumption of classical behavior for rotation
           may cause significant error
 Rotational temperatures (Kelvin)      0.12931     0.02838     0.02378
 Rotational constants (GHZ):           2.69445     0.59142     0.49544
 Zero-point vibrational energy     487379.7 (Joules/Mol)
                                  116.48655 (Kcal/Mol)
 Warning -- explicit consideration of  16 degrees of freedom as
           vibrations may cause significant error
 Vibrational temperatures:     59.74   126.59   149.58   173.22   211.06
          (Kelvin)            276.85   290.54   311.08   402.89   427.96
                              550.69   572.80   583.41   684.70   805.85
                              861.97   962.28  1019.34  1103.85  1205.84
                             1251.66  1280.53  1286.28  1350.10  1384.99
                             1433.40  1466.22  1477.67  1551.19  1556.03
                             1641.71  1693.69  1786.33  1858.80  1921.34
                             1975.47  1984.26  2034.16  2074.29  2099.35
                             2143.35  2168.03  2174.77  2236.45  2365.89
                             2441.19  2466.78  2482.19  4349.52  4370.58
                             4434.15  4510.49  4530.47  4550.01  4567.08
                             4578.33  4611.95  4674.21  4724.66  4968.75

 Zero-point correction=                           0.185633 (Hartree/Particle)
 Thermal correction to Energy=                    0.197161
 Thermal correction to Enthalpy=                  0.198105
 Thermal correction to Gibbs Free Energy=         0.147989
 Sum of electronic and zero-point Energies=           -421.327700
 Sum of electronic and thermal Energies=              -421.316171
 Sum of electronic and thermal Enthalpies=            -421.315227
 Sum of electronic and thermal Free Energies=         -421.365344

                     E (Thermal)             CV                S
                      KCal/Mol        Cal/Mol-Kelvin    Cal/Mol-Kelvin
 Total                  123.721             41.461            105.480
 Electronic               0.000              0.000              0.000
 Translational            0.889              2.981             40.637
 Rotational               0.889              2.981             30.388
 Vibrational            121.943             35.500             34.455
 Vibration     1          0.594              1.981              5.185
 Vibration     2          0.601              1.958              3.704
 Vibration     3          0.605              1.946              3.379
 Vibration     4          0.609              1.932              3.094
 Vibration     5          0.617              1.906              2.715
 Vibration     6          0.634              1.850              2.204
 Vibration     7          0.639              1.837              2.115
 Vibration     8          0.645              1.816              1.991
 Vibration     9          0.680              1.711              1.534
 Vibration    10          0.691              1.678              1.431
 Vibration    11          0.752              1.507              1.028
 Vibration    12          0.764              1.474              0.970
 Vibration    13          0.770              1.458              0.943
 Vibration    14          0.833              1.304              0.721
 Vibration    15          0.916              1.118              0.524
 Vibration    16          0.957              1.034              0.451

 Optimization completed.
    -- Stationary point found.

 1\1\GINC-NODE310\Freq\RB3LYP\6-31G(d)\C8H12N2\VSC10255\08-Dec-2020\0\\
 #N Geom=AllCheck Guess=TCheck SCRF=Check GenChk RB3LYP/6-31G(d) Freq\\
 CID_153348563_JID_90_neutraal\\0,1\C,0.8861603028,-0.0662719745,-0.108
 8202605\C,0.5278935055,-1.4208367691,0.4148175401\N,0.7330635079,-2.47
 15205815,-0.2858626242\N,0.4298905138,-3.6757675459,0.2771593839\C,0.2
 652225779,-4.8292116022,-0.5027114893\C,-0.6729531392,-5.7356780145,-0
 .0990011863\C,-0.8916499092,-7.0633295662,-0.6232011167\C,-1.849331436
 5,-7.8986654174,-0.1821396393\C,1.1517735772,-5.0606376689,-1.64288387

 Normal termination of Gaussian 16 at Tue Dec  8 10:20:24 2020.

 ----------------------------------------------------------------------
 # B3LYP/6-311++G(d,p) empiricaldispersion=gd3bj scf=xqc pop=npa geom=c
 heck
 ----------------------------------------------------------------------

 -------------------------------------
 CID_153348563_JID_90_Energie_neutraal
 -------------------------------------
 Structure from the checkpoint file:  "JID_90.chk"
 Charge =  0 Multiplicity = 1

 SCF Done:  E(RB3LYP) =  -421.635810783     A.U. after   15 cycles
 Normal termination of Gaussian 16 at Tue Dec  8 10:21:35 2020.

 ----------------------------------------------------------------------
 # B3LYP/6-311++G(d,p) empiricaldispersion=gd3bj scf=xqc pop=npa geom=c
 heck
 ----------------------------------------------------------------------

 -----------------------------------
 CID_153348563_JID_90_Energie_kation
 -----------------------------------
 Structure from the checkpoint file:  "JID_90.chk"
 Charge =  1 Multiplicity = 2

 SCF Done:  E(UB3LYP) =  -421.377746687     A.U. after   21 cycles
 Normal termination of Gaussian 16 at Tue Dec  8 10:23:48 2020.
 Gaussian 16:  ES64L-G16RevA.03 25-Dec-2016

 ----------------------------------
 CID_153348563_JID_90_Energie_anion
 ----------------------------------
 Structure from the checkpoint file:  "JID_90.chk"
 Charge = -1 Multiplicity = 2

                         Standard orientation:
 ---------------------------------------------------------------------
 Center     Atomic      Atomic             Coordinates (Angstroms)
 Number     Number       Type             X           Y           Z
 ---------------------------------------------------------------------
      1          6           0        4.112908   -0.582191    0.403532
      2          6           0        2.749318   -0.933060   -0.101357
      3          7           0        1.771549   -0.117782    0.026213
      4          7           0        0.570091   -0.483880   -0.504435
      5          6           0       -0.624209    0.137937   -0.113619
      6          6           0       -1.748768   -0.634641   -0.055929
      7          6           0       -3.109140   -0.189597    0.135371
      8          6           0       -4.169865   -1.014663    0.195395
      9          6           0       -0.641621    1.581631    0.120834
     10          6           0        0.326696    2.466008   -0.152782
     11          1           0        4.847976   -0.574806   -0.412536
     12          1           0        4.462651   -1.316071    1.141472
     13          1           0        4.095240    0.405950    0.870122
     14          1           0        2.615040   -1.911329   -0.587907
     15          1           0        0.472913   -1.465462   -0.765697
     16          1           0       -1.625860   -1.709131   -0.198873
     17          1           0       -3.285976    0.879459    0.230475
     18          1           0       -5.176425   -0.637212    0.342996
     19          1           0       -4.059948   -2.092258    0.096481
     20          1           0       -1.565250    1.949410    0.556623
     21          1           0        0.173248    3.521621    0.051907
     22          1           0        1.282997    2.172905   -0.566185
 ---------------------------------------------------------------------

 SCF Done:  E(UB3LYP) =  -421.631357504     A.U. after   33 cycles
 SCF Done:  E(UB3LYP) =  -421.631357504     a.u. after    1 cycles

 The electronic state is 2-A.
 Alpha  occ. eigenvalues --  -14.22674 -14.21840 -10.07647 -10.06041 -10.05764
 Alpha  occ. eigenvalues --  -10.02917 -10.02529 -10.01121 -10.00944 -10.00844
 Alpha  occ. eigenvalues --   -0.88348  -0.73135  -0.65681  -0.62718  -0.60942
 Alpha  occ. eigenvalues --   -0.56048  -0.48251  -0.47351  -0.43757  -0.40472
 Alpha  occ. eigenvalues --   -0.39616  -0.35231  -0.32638  -0.31525  -0.30087
 Alpha  occ. eigenvalues --   -0.28970  -0.27841  -0.27273  -0.26643  -0.24422
 Alpha  occ. eigenvalues --   -0.22923  -0.20157  -0.19615  -0.15930  -0.14863
 Alpha  occ. eigenvalues --   -0.11366  -0.05776   0.05162
 Alpha virt. eigenvalues --    0.07049   0.08777   0.09528   0.10144   0.10298
 Alpha virt. eigenvalues --    0.10983   0.11271   0.12731   0.13077   0.13631
 Alpha virt. eigenvalues --    0.14028   0.14654   0.15053   0.15960   0.16815

  Beta  occ. eigenvalues --  -14.22699 -14.21815 -10.07554 -10.06030 -10.05521
  Beta  occ. eigenvalues --  -10.02903 -10.02503 -10.00961 -10.00676 -10.00579
  Beta  occ. eigenvalues --   -0.88277  -0.72918  -0.65356  -0.62345  -0.60768
  Beta  occ. eigenvalues --   -0.55705  -0.47938  -0.46819  -0.43492  -0.40265
  Beta  occ. eigenvalues --   -0.39474  -0.35023  -0.32453  -0.31399  -0.29967
  Beta  occ. eigenvalues --   -0.28805  -0.27747  -0.27052  -0.26477  -0.24264
  Beta  occ. eigenvalues --   -0.22730  -0.19992  -0.18649  -0.15742  -0.13811
  Beta  occ. eigenvalues --   -0.10711  -0.04356
  Beta virt. eigenvalues --    0.07520   0.09054   0.09496   0.09926   0.10268
  Beta virt. eigenvalues --    0.10579   0.11184   0.11457   0.12740   0.12992
  Beta virt. eigenvalues --    0.13858   0.14045   0.14910   0.15157   0.15996

 Mulliken charges and spin densities:
               1          2
     1  C    0.541052  -1.081927
     2  C   -0.257513   0.244901
     3  N   -0.053906   0.088002
     4  N    0.022283  -0.001130
     5  C   -0.015695  -0.062727
     6  C   -0.206680   0.357517
     7  C    0.093413  -0.109628
     8  C   -0.619014   0.283305
     9  C    0.009713  -0.031017
    10  C   -0.567397   0.246664
    11  H   -0.242363   0.382821
    12  H   -0.055790   0.187686
    13  H    0.131079   0.005396
    14  H   -0.332792   0.371623
    15  H    0.076789   0.116476
    16  H    0.014953   0.034904
    17  H    0.063973  -0.002259
    18  H    0.094379  -0.013109
    19  H    0.059754  -0.010323
    20  H    0.060479  -0.001638
    21  H    0.104317  -0.013564
    22  H    0.078965   0.008027
 Sum of Mulliken charges =  -1.00000   1.00000

 Dipole moment (field-independent basis, Debye):
    X=              0.6812    Y=              0.2055    Z=              0.5278  Tot=              0.8859
 Quadrupole moment (field-independent basis, Debye-Ang):
   XX=           -120.0580   YY=            -81.0719   ZZ=            -78.3398
   XY=             -0.9590   XZ=              2.3549   YZ=              1.9625

 Summary of Natural Population Analysis:

                                       Natural Population
                Natural  -----------------------------------------------
    Atom  No    Charge         Core      Valence    Rydberg      Total
 -----------------------------------------------------------------------
      C    1   -0.30582      0.99966     2.30021    0.00595     3.30582
      C    2    0.02932      0.99966     1.95602    0.01500     2.97068
      N    3   -0.12292      0.99963     2.60951    0.01378     3.62292
      N    4   -0.21094      0.99966     2.69841    0.01287     3.71094
      C    5    0.11559      0.99945     1.87212    0.01283     2.88441
      C    6   -0.11101      0.99951     2.10136    0.01014     3.11101
      C    7   -0.10367      0.99957     2.09547    0.00863     3.10367
      C    8   -0.16555      0.99960     2.15654    0.00940     3.16555
      C    9   -0.11724      0.99955     2.10859    0.00910     3.11724
      C   10   -0.13111      0.99960     2.12405    0.00746     3.13111
      H   11    0.09975      0.00000     0.39839    0.00186     0.40025
      H   12    0.09741      0.00000     0.40146    0.00113     0.40259
      H   13    0.10629      0.00000     0.39277    0.00094     0.39371
      H   14    0.06188      0.00000     0.43509    0.00303     0.43812
      H   15    0.16701      0.00000     0.32961    0.00338     0.33299
      H   16    0.08173      0.00000     0.41646    0.00181     0.41827
      H   17    0.08690      0.00000     0.41160    0.00149     0.41310
      H   18    0.08092      0.00000     0.41806    0.00102     0.41908
      H   19    0.07902      0.00000     0.41990    0.00108     0.42098
      H   20    0.08947      0.00000     0.40905    0.00148     0.41053
      H   21    0.07910      0.00000     0.41991    0.00099     0.42090
      H   22    0.09386      0.00000     0.40493    0.00120     0.40614
 =======================================================================
   * Total *    0.00000      9.99589    26.87952    0.12459    37.00000

 Normal termination of Gaussian 16 at Tue Dec  8 10:27:15 2020.
