 Gaussian 16, Revision A.03,

 -----------------------------------------------------------
 # opt freq B3LYP/6-31G(d) empiricaldispersion=gd3bj scf=xqc
 -----------------------------------------------------------

 -------------------------------
 CID_130016720_JID_5514_neutraal
 -------------------------------
 Symbolic Z-matrix:
 Charge =  0 Multiplicity = 1

 SCF Done:  E(RB3LYP) =  -702.427470431     A.U. after   14 cycles
 SCF Done:  E(RB3LYP) =  -702.437011227     A.U. after   12 cycles
 SCF Done:  E(RB3LYP) =  -702.438038059     A.U. after   11 cycles
 SCF Done:  E(RB3LYP) =  -702.438232448     A.U. after   10 cycles
 SCF Done:  E(RB3LYP) =  -702.438303473     A.U. after   11 cycles
 SCF Done:  E(RB3LYP) =  -702.438328666     A.U. after   10 cycles
 SCF Done:  E(RB3LYP) =  -702.438341892     A.U. after   10 cycles
 SCF Done:  E(RB3LYP) =  -702.438355820     A.U. after   10 cycles
 SCF Done:  E(RB3LYP) =  -702.438363158     A.U. after   10 cycles
 SCF Done:  E(RB3LYP) =  -702.438365832     A.U. after    9 cycles
 SCF Done:  E(RB3LYP) =  -702.438366355     A.U. after    8 cycles
 SCF Done:  E(RB3LYP) =  -702.438366397     A.U. after    7 cycles
 Optimization completed.
    -- Stationary point found.
 Normal termination of Gaussian 16 at Thu Dec 10 16:22:10 2020.

 --------------------------------------------------------------------
 #N Geom=AllCheck Guess=TCheck SCRF=Check GenChk RB3LYP/6-31G(d) Freq
 --------------------------------------------------------------------

 Structure from the checkpoint file:  "JID_5514.chk"
 -------------------------------
 CID_130016720_JID_5514_neutraal
 -------------------------------
 Charge =  0 Multiplicity = 1

 SCF Done:  E(RB3LYP) =  -702.438366397     A.U. after    1 cycles

  Exact polarizability: 204.974   0.447 141.837  -3.725   3.365  59.825
 Approx polarizability: 321.896  -1.051 236.522 -11.402  12.190  92.681

                      1                      2                      3
                      A                      A                      A
 Frequencies --     53.7138                80.7818                92.9794
 Red. masses --      2.9921                 3.7645                 3.6484
 Frc consts  --      0.0051                 0.0145                 0.0186
 IR Inten    --      2.6734                 1.6419                 2.3296

                      4                      5                      6
                      A                      A                      A
 Frequencies --    147.0320               156.2383               163.3026
 Red. masses --      4.5467                 1.5834                 1.8296
 Frc consts  --      0.0579                 0.0228                 0.0287
 IR Inten    --      1.0040                 0.2956                 0.9225

                      7                      8                      9
                      A                      A                      A
 Frequencies --    183.2125               191.0596               269.2848
 Red. masses --      1.4560                 2.1665                 4.9681
 Frc consts  --      0.0288                 0.0466                 0.2123
 IR Inten    --      0.1482                 3.7098                 6.1580

                     10                     11                     12
                      A                      A                      A
 Frequencies --    280.3633               315.6017               321.9138
 Red. masses --      5.8475                 3.4199                 4.0403
 Frc consts  --      0.2708                 0.2007                 0.2467
 IR Inten    --      2.0710                 2.2116                12.0071

                     13                     14                     15
                      A                      A                      A
 Frequencies --    369.1153               406.6253               430.6664
 Red. masses --      6.1770                 2.9080                 1.3853
 Frc consts  --      0.4959                 0.2833                 0.1514
 IR Inten    --      2.9364                 9.3999                24.5524

                     16                     17                     18
                      A                      A                      A
 Frequencies --    440.6211               495.2494               513.9517
 Red. masses --      4.0572                 4.5433                 4.4408
 Frc consts  --      0.4641                 0.6565                 0.6911
 IR Inten    --      3.4005                14.8631                18.2889

                     19                     20                     21
                      A                      A                      A
 Frequencies --    569.1914               595.6447               627.4274
 Red. masses --      4.1790                 3.9579                 2.4413
 Frc consts  --      0.7977                 0.8273                 0.5662
 IR Inten    --     14.7094                32.1248               195.0433

                     22                     23                     24
                      A                      A                      A
 Frequencies --    641.9353               680.6849               701.1792
 Red. masses --      2.4733                 8.2546                 4.7143
 Frc consts  --      0.6005                 2.2534                 1.3656
 IR Inten    --    119.8502                19.0330                10.7063

                     25                     26                     27
                      A                      A                      A
 Frequencies --    748.5039               760.5034               798.7206
 Red. masses --      4.4408                 6.2376                 5.9412
 Frc consts  --      1.4659                 2.1255                 2.2331
 IR Inten    --     24.5266                10.8570                 5.0332

                     28                     29                     30
                      A                      A                      A
 Frequencies --    835.3238               869.6723               904.1685
 Red. masses --      3.7718                 1.5739                 6.9937
 Frc consts  --      1.5506                 0.7014                 3.3687
 IR Inten    --     23.9510                27.2801                28.9883

                     31                     32                     33
                      A                      A                      A
 Frequencies --    908.7273               977.1453              1003.1837
 Red. masses --      1.4258                 1.4478                 4.9402
 Frc consts  --      0.6937                 0.8144                 2.9292
 IR Inten    --     12.1913                 2.6927                30.6593

                     34                     35                     36
                      A                      A                      A
 Frequencies --   1036.2076              1120.7094              1127.5276
 Red. masses --      6.5616                 1.4947                 3.7202
 Frc consts  --      4.1510                 1.1061                 2.7866
 IR Inten    --     63.4166                10.9062               132.7688

                     37                     38                     39
                      A                      A                      A
 Frequencies --   1170.6503              1184.7521              1187.3973
 Red. masses --      3.6703                 1.2661                 1.2583
 Frc consts  --      2.9635                 1.0470                 1.0452
 IR Inten    --     27.4514                 0.7359                 2.5173

                     40                     41                     42
                      A                      A                      A
 Frequencies --   1204.6915              1214.6257              1241.4824
 Red. masses --      1.5858                 1.6557                 2.1337
 Frc consts  --      1.3560                 1.4391                 1.9376
 IR Inten    --      7.2431                32.7351                81.7876

                     43                     44                     45
                      A                      A                      A
 Frequencies --   1267.0728              1294.6780              1346.4926
 Red. masses --      1.9686                 2.2593                 6.0838
 Frc consts  --      1.8621                 2.2312                 6.4988
 IR Inten    --    134.1716                14.7517                16.1429

                     46                     47                     48
                      A                      A                      A
 Frequencies --   1368.1902              1406.2583              1430.1307
 Red. masses --      3.0179                 4.1123                 2.3291
 Frc consts  --      3.3285                 4.7914                 2.8067
 IR Inten    --     39.4584                10.8395               245.0824

                     49                     50                     51
                      A                      A                      A
 Frequencies --   1453.7210              1494.5910              1504.2796
 Red. masses --      3.0002                 1.2133                 2.9695
 Frc consts  --      3.7356                 1.5968                 3.9591
 IR Inten    --    196.3812                26.2892                58.8872

                     52                     53                     54
                      A                      A                      A
 Frequencies --   1508.3670              1517.3810              1521.5319
 Red. masses --      1.0488                 1.0635                 1.4368
 Frc consts  --      1.4059                 1.4427                 1.9597
 IR Inten    --      5.2970                12.9914               165.0729

                     55                     56                     57
                      A                      A                      A
 Frequencies --   1526.9625              1534.9767              1560.3329
 Red. masses --      1.2829                 1.0559                 4.0494
 Frc consts  --      1.7623                 1.4659                 5.8086
 IR Inten    --     40.5240                 5.1449               164.1413

                     58                     59                     60
                      A                      A                      A
 Frequencies --   1614.6122              1635.2011              1658.0217
 Red. masses --      7.7104                 4.6884                 1.8078
 Frc consts  --     11.8431                 7.3861                 2.9281
 IR Inten    --    130.1576               128.8930                19.9580

                     61                     62                     63
                      A                      A                      A
 Frequencies --   1694.8917              3036.3380              3073.2566
 Red. masses --      2.8515                 1.0315                 1.0290
 Frc consts  --      4.8263                 5.6030                 5.7260
 IR Inten    --    208.3047                54.1585                51.1505

                     64                     65                     66
                      A                      A                      A
 Frequencies --   3101.7202              3147.8194              3153.1339
 Red. masses --      1.1074                 1.1073                 1.1031
 Frc consts  --      6.2770                 6.4645                 6.4615
 IR Inten    --     26.7788                21.3517                36.8870

                     67                     68                     69
                      A                      A                      A
 Frequencies --   3176.5864              3180.6349              3207.1690
 Red. masses --      1.1073                 1.0906                 1.0909
 Frc consts  --      6.5831                 6.5003                 6.6111
 IR Inten    --     25.1910                40.2148                 7.9680

                     70                     71                     72
                      A                      A                      A
 Frequencies --   3231.5052              3556.8449              3664.7494
 Red. masses --      1.0913                 1.0469                 1.0994
 Frc consts  --      6.7141                 7.8035                 8.6995
 IR Inten    --      2.1940                38.3387                22.5402

 - Thermochemistry -
 -------------------
 Temperature   298.150 Kelvin.  Pressure   1.00000 Atm.
 Atom     1 has atomic number  6 and mass  12.00000

 Molecular mass:   205.08513 amu.
 Principal axes and moments of inertia in atomic units:
                           1         2         3
     Eigenvalues --  1667.427724260.613545779.11813
           X            0.99992   0.01170   0.00561
           Y           -0.01164   0.99986  -0.01199
           Z           -0.00575   0.01192   0.99991
 This molecule is an asymmetric top.
 Rotational symmetry number  1.
 Warning -- assumption of classical behavior for rotation
           may cause significant error
 Rotational temperatures (Kelvin)      0.05194     0.02033     0.01499
 Rotational constants (GHZ):           1.08235     0.42359     0.31229
 Zero-point vibrational energy     543638.3 (Joules/Mol)
                                  129.93266 (Kcal/Mol)
 Warning -- explicit consideration of  20 degrees of freedom as
           vibrations may cause significant error
 Vibrational temperatures:     77.28   116.23   133.78   211.55   224.79
          (Kelvin)            234.96   263.60   274.89   387.44   403.38
                              454.08   463.16   531.07   585.04   619.63
                              633.96   712.55   739.46   818.94   857.00
                              902.73   923.60   979.35  1008.84  1076.93
                             1094.19  1149.18  1201.84  1251.26  1300.90
                             1307.46  1405.89  1443.36  1490.87  1612.45
                             1622.26  1684.30  1704.59  1708.40  1733.28
                             1747.58  1786.22  1823.04  1862.75  1937.30
                             1968.52  2023.29  2057.64  2091.58  2150.38
                             2164.32  2170.20  2183.17  2189.15  2196.96
                             2208.49  2244.97  2323.07  2352.69  2385.52
                             2438.57  4368.61  4421.73  4462.68  4529.01
                             4536.66  4570.40  4576.22  4614.40  4649.42
                             5117.51  5272.76

 Zero-point correction=                           0.207061 (Hartree/Particle)
 Thermal correction to Energy=                    0.220361
 Thermal correction to Enthalpy=                  0.221305
 Thermal correction to Gibbs Free Energy=         0.167246
 Sum of electronic and zero-point Energies=           -702.231306
 Sum of electronic and thermal Energies=              -702.218006
 Sum of electronic and thermal Enthalpies=            -702.217061
 Sum of electronic and thermal Free Energies=         -702.271121

                     E (Thermal)             CV                S
                      KCal/Mol        Cal/Mol-Kelvin    Cal/Mol-Kelvin
 Total                  138.279             50.658            113.778
 Electronic               0.000              0.000              0.000
 Translational            0.889              2.981             41.859
 Rotational               0.889              2.981             32.085
 Vibrational            136.501             44.697             39.834
 Vibration     1          0.596              1.976              4.676
 Vibration     2          0.600              1.962              3.872
 Vibration     3          0.602              1.954              3.596
 Vibration     4          0.617              1.906              2.710
 Vibration     5          0.620              1.896              2.595
 Vibration     6          0.623              1.887              2.511
 Vibration     7          0.631              1.863              2.295
 Vibration     8          0.634              1.852              2.218
 Vibration     9          0.674              1.730              1.601
 Vibration    10          0.680              1.710              1.531
 Vibration    11          0.703              1.644              1.333
 Vibration    12          0.707              1.632              1.300
 Vibration    13          0.741              1.536              1.083
 Vibration    14          0.771              1.456              0.939
 Vibration    15          0.792              1.403              0.856
 Vibration    16          0.801              1.382              0.825
 Vibration    17          0.851              1.261              0.670
 Vibration    18          0.869              1.219              0.624
 Vibration    19          0.925              1.098              0.506
 Vibration    20          0.953              1.041              0.457

 Optimization completed.
    -- Stationary point found.
 Normal termination of Gaussian 16 at Thu Dec 10 16:29:31 2020.

 ----------------------------------------------------------------------
 # B3LYP/6-311++G(d,p) empiricaldispersion=gd3bj scf=xqc pop=npa geom=c
 heck
 ----------------------------------------------------------------------

 ---------------------------------------
 CID_130016720_JID_5514_Energie_neutraal
 ---------------------------------------
 Structure from the checkpoint file:  "JID_5514.chk"
 Charge =  0 Multiplicity = 1

 SCF Done:  E(RB3LYP) =  -702.633237167     A.U. after   15 cycles
 Normal termination of Gaussian 16 at Thu Dec 10 16:33:44 2020.

 ----------------------------------------------------------------------
 # B3LYP/6-311++G(d,p) empiricaldispersion=gd3bj scf=xqc pop=npa geom=c
 heck
 ----------------------------------------------------------------------

 -------------------------------------
 CID_130016720_JID_5514_Energie_kation
 -------------------------------------
 Structure from the checkpoint file:  "JID_5514.chk"
 Charge =  1 Multiplicity = 2

 SCF Done:  E(UB3LYP) =  -702.339063953     A.U. after   28 cycles
 Normal termination of Gaussian 16 at Thu Dec 10 16:47:09 2020.
 Gaussian 16:  ES64L-G16RevA.03 25-Dec-2016

 ----------------------------------------------------------------------
 # B3LYP/6-311++G(d,p) empiricaldispersion=gd3bj scf=xqc pop=npa geom=c
 heck
 ----------------------------------------------------------------------

 ------------------------------------
 CID_130016720_JID_5514_Energie_anion
 ------------------------------------
 Structure from the checkpoint file:  "JID_5514.chk"
 Charge = -1 Multiplicity = 2

                         Standard orientation:
 ---------------------------------------------------------------------
 Center     Atomic      Atomic             Coordinates (Angstroms)
 Number     Number       Type             X           Y           Z
 ---------------------------------------------------------------------
      1          6           0        3.324925   -1.898545    0.783767
      2          8           0        2.809185   -1.372060   -0.444277
      3          6           0        1.755449   -0.495087   -0.263632
      4          6           0        2.070560    0.896865   -0.151884
      5          6           0        1.039088    1.812132   -0.000614
      6          6           0       -0.302617    1.383113    0.046834
      7          6           0       -0.594631   -0.006068   -0.072652
      8          6           0        0.457579   -0.936923   -0.229050
      9          6           0       -1.976120   -0.346878   -0.022735
     10          7           0       -2.931527    0.546626    0.123567
     11          6           0       -2.526065    1.841488    0.225900
     12          7           0       -1.302028    2.311891    0.198008
     13          8           0       -2.283053   -1.650877   -0.131575
     14          6           0       -3.673699   -1.993543   -0.084115
     15          7           0        3.408583    1.254366   -0.162104
     16          1           0        4.156407   -2.553477    0.514199
     17          1           0        2.556647   -2.477527    1.310560
     18          1           0        3.683238   -1.094109    1.437735
     19          1           0        1.239220    2.875592    0.085597
     20          1           0        0.244710   -1.994997   -0.330394
     21          1           0       -3.329457    2.566159    0.345562
     22          1           0       -3.703945   -3.078704   -0.189500
     23          1           0       -4.116112   -1.684386    0.866544
     24          1           0       -4.219129   -1.510289   -0.898966
     25          1           0        3.603579    2.217334   -0.402186
     26          1           0        4.003775    0.588393   -0.639557
 ---------------------------------------------------------------------

 SCF Done:  E(UB3LYP) =  -702.631403190     A.U. after   31 cycles

 The electronic state is 2-A.
 Alpha  occ. eigenvalues --  -19.03682 -19.02088 -14.19733 -14.16621 -14.15431
 Alpha  occ. eigenvalues --  -10.11898 -10.11576 -10.10581 -10.08621 -10.08298
 Alpha  occ. eigenvalues --  -10.08088 -10.07380 -10.04484 -10.02954 -10.02234
 Alpha  occ. eigenvalues --   -0.96127  -0.93417  -0.83144  -0.79675  -0.74184
 Alpha  occ. eigenvalues --   -0.70273  -0.63598  -0.61723  -0.59452  -0.57116
 Alpha  occ. eigenvalues --   -0.51094  -0.50140  -0.47561  -0.42651  -0.41575
 Alpha  occ. eigenvalues --   -0.40601  -0.38154  -0.36817  -0.36298  -0.34610
 Alpha  occ. eigenvalues --   -0.34348  -0.32384  -0.31467  -0.31302  -0.29645
 Alpha  occ. eigenvalues --   -0.29258  -0.27356  -0.25031  -0.24729  -0.23720
 Alpha  occ. eigenvalues --   -0.23209  -0.22370  -0.18568  -0.16648  -0.15805
 Alpha  occ. eigenvalues --   -0.15486  -0.11848  -0.09863  -0.08952   0.04839
 Alpha virt. eigenvalues --    0.07162   0.07790   0.08101   0.10077   0.10389
 Alpha virt. eigenvalues --    0.11080   0.11489   0.11858   0.12021   0.12345
 Alpha virt. eigenvalues --    0.13218   0.13974   0.14384   0.14865   0.16210

  Beta  occ. eigenvalues --  -19.03612 -19.02102 -14.19684 -14.16666 -14.15245
  Beta  occ. eigenvalues --  -10.11579 -10.11543 -10.10539 -10.08492 -10.08197
  Beta  occ. eigenvalues --  -10.08001 -10.07417 -10.04569 -10.02692 -10.02082
  Beta  occ. eigenvalues --   -0.95916  -0.93370  -0.82905  -0.79554  -0.73971
  Beta  occ. eigenvalues --   -0.69992  -0.63374  -0.61482  -0.59289  -0.56953
  Beta  occ. eigenvalues --   -0.50695  -0.49965  -0.47335  -0.42513  -0.41476
  Beta  occ. eigenvalues --   -0.40428  -0.38014  -0.36713  -0.35970  -0.34483
  Beta  occ. eigenvalues --   -0.34256  -0.32322  -0.31332  -0.31185  -0.29479
  Beta  occ. eigenvalues --   -0.28678  -0.27202  -0.24629  -0.24535  -0.23631
  Beta  occ. eigenvalues --   -0.22900  -0.21844  -0.18111  -0.16581  -0.15708
  Beta  occ. eigenvalues --   -0.14753  -0.11718  -0.08804  -0.08185
  Beta virt. eigenvalues --    0.07521   0.07819   0.08698   0.09706   0.10047
  Beta virt. eigenvalues --    0.10657   0.11043   0.11634   0.12045   0.12152
  Beta virt. eigenvalues --    0.12286   0.13249   0.14255   0.14840   0.15200

 Mulliken charges and spin densities:
               1          2
     1  C    0.216920  -0.528551
     2  O   -0.227167   0.026753
     3  C   -0.399830   0.011114
     4  C    0.283877  -0.051670
     5  C   -0.758864  -0.029998
     6  C   -0.533679  -0.228401
     7  C    1.179645  -0.047297
     8  C   -0.685878   0.373550
     9  C    0.341820   0.174589
    10  N   -0.222371  -0.022138
    11  C    0.054564   0.093244
    12  N   -0.094087   0.075709
    13  O   -0.168332   0.016679
    14  C   -0.287756  -0.003234
    15  N   -0.365359  -0.003378
    16  H   -0.340875   0.483580
    17  H    0.130174  -0.011211
    18  H    0.064588   0.081014
    19  H    0.115074   0.015019
    20  H    0.129025   0.028573
    21  H    0.162986  -0.008938
    22  H    0.119999   0.000767
    23  H    0.163006   0.003801
    24  H    0.166406   0.001864
    25  H   -0.056859   0.295851
    26  H    0.012971   0.252709
 Sum of Mulliken charges =  -1.00000   1.00000

 Dipole moment (field-independent basis, Debye):
    X=             -3.2338    Y=             -2.6262    Z=              0.8481  Tot=              4.2514
 Quadrupole moment (field-independent basis, Debye-Ang):
   XX=           -136.6701   YY=           -114.9220   ZZ=           -100.4271
   XY=             11.5410   XZ=              3.4828   YZ=             -1.9745

 Summary of Natural Population Analysis:

                                       Natural Population
                Natural  -----------------------------------------------
    Atom  No    Charge         Core      Valence    Rydberg      Total
 -----------------------------------------------------------------------
      C    1   -0.09553      0.99959     2.08674    0.00919     3.09553
      O    2   -0.30133      0.99987     3.29010    0.01136     4.30133
      C    3    0.14518      0.99933     1.84185    0.01364     2.85482
      C    4    0.09271      0.99946     1.89653    0.01130     2.90729
      C    5   -0.11209      0.99950     2.10155    0.01105     3.11209
      C    6    0.08828      0.99949     1.89703    0.01521     2.91172
      C    7   -0.10013      0.99945     2.09198    0.00869     3.10013
      C    8   -0.05714      0.99949     2.04716    0.01049     3.05714
      C    9    0.34605      0.99944     1.63671    0.01780     2.65395
      N   10   -0.31095      0.99966     2.80251    0.00878     3.81095
      C   11    0.15941      0.99968     1.82204    0.01887     2.84059
      N   12   -0.24094      0.99969     2.73185    0.00941     3.74094
      O   13   -0.26659      0.99985     3.25868    0.00806     4.26659
      C   14   -0.10168      0.99961     2.09388    0.00820     3.10168
      N   15   -0.39801      0.99971     2.88813    0.01017     3.89801
      H   16    0.08595      0.00000     0.41226    0.00179     0.41405
      H   17    0.08025      0.00000     0.41862    0.00113     0.41975
      H   18    0.08432      0.00000     0.41452    0.00116     0.41568
      H   19    0.09608      0.00000     0.40146    0.00246     0.40392
      H   20    0.10323      0.00000     0.39539    0.00137     0.39677
      H   21    0.07001      0.00000     0.42872    0.00127     0.42999
      H   22    0.08239      0.00000     0.41682    0.00079     0.41761
      H   23    0.08799      0.00000     0.41079    0.00122     0.41201
      H   24    0.08811      0.00000     0.41067    0.00122     0.41189
      H   25    0.18416      0.00000     0.31391    0.00193     0.31584
      H   26    0.19028      0.00000     0.30727    0.00245     0.30972
 =======================================================================
   * Total *    0.00000     14.99382    38.81716    0.18902    54.00000

 Normal termination of Gaussian 16 at Thu Dec 10 16:59:23 2020.
