 Gaussian 16, Revision A.03,

 -----------------------------------------------------------
 # opt freq B3LYP/6-31G(d) empiricaldispersion=gd3bj scf=xqc
 -----------------------------------------------------------

 ------------------------------
 CID_57637036_JID_5265_neutraal
 ------------------------------
 Symbolic Z-matrix:
 Charge =  0 Multiplicity = 1

 SCF Done:  E(RB3LYP) =  -1081.17286980     A.U. after   15 cycles
 SCF Done:  E(RB3LYP) =  -1081.18276914     A.U. after   13 cycles
 SCF Done:  E(RB3LYP) =  -1081.18045045     A.U. after   14 cycles
 SCF Done:  E(RB3LYP) =  -1081.18459709     A.U. after   12 cycles
 SCF Done:  E(RB3LYP) =  -1081.18474245     A.U. after   11 cycles
 SCF Done:  E(RB3LYP) =  -1081.18486113     A.U. after   12 cycles
 SCF Done:  E(RB3LYP) =  -1081.18489260     A.U. after   11 cycles
 SCF Done:  E(RB3LYP) =  -1081.18491015     A.U. after   11 cycles
 SCF Done:  E(RB3LYP) =  -1081.18491586     A.U. after    9 cycles
 SCF Done:  E(RB3LYP) =  -1081.18491650     A.U. after    8 cycles
 SCF Done:  E(RB3LYP) =  -1081.18491703     A.U. after    8 cycles
 SCF Done:  E(RB3LYP) =  -1081.18491742     A.U. after    8 cycles
 SCF Done:  E(RB3LYP) =  -1081.18491760     A.U. after    8 cycles
 SCF Done:  E(RB3LYP) =  -1081.18491765     A.U. after    8 cycles
 Optimization completed.
    -- Stationary point found.
 Normal termination of Gaussian 16 at Thu Dec 10 15:21:57 2020.

 --------------------------------------------------------------------
 #N Geom=AllCheck Guess=TCheck SCRF=Check GenChk RB3LYP/6-31G(d) Freq
 --------------------------------------------------------------------

 Structure from the checkpoint file:  "JID_5265.chk"
 ------------------------------
 CID_57637036_JID_5265_neutraal
 ------------------------------
 Charge =  0 Multiplicity = 1

 SCF Done:  E(RB3LYP) =  -1081.18491765     A.U. after    1 cycles

  Exact polarizability: 209.270 -10.328 127.363   4.543   2.919  73.356
 Approx polarizability: 291.726 -38.746 257.002   6.861   3.451 120.275

                      1                      2                      3
                      A                      A                      A
 Frequencies --     31.5899                47.8250                60.8321
 Red. masses --      6.6640                 3.9994                11.8859
 Frc consts  --      0.0039                 0.0054                 0.0259
 IR Inten    --      0.9103                 1.7604                 2.1041

                      4                      5                      6
                      A                      A                      A
 Frequencies --    104.0983               123.0163               124.6726
 Red. masses --      6.3450                 9.9614                 4.9138
 Frc consts  --      0.0405                 0.0888                 0.0450
 IR Inten    --      5.9033                 1.0826                 2.5084

                      7                      8                      9
                      A                      A                      A
 Frequencies --    181.2739               227.6088               234.1500
 Red. masses --      6.6361                 3.5374                 1.0458
 Frc consts  --      0.1285                 0.1080                 0.0338
 IR Inten    --      3.4908                 7.1911                 0.1543

                     10                     11                     12
                      A                      A                      A
 Frequencies --    251.7202               272.2621               298.0822
 Red. masses --      4.9103                 4.9834                 6.9037
 Frc consts  --      0.1833                 0.2176                 0.3614
 IR Inten    --      1.6646                 2.2236                 0.2378

                     13                     14                     15
                      A                      A                      A
 Frequencies --    316.2074               361.2584               497.8648
 Red. masses --      4.6784                 7.4829                 4.8534
 Frc consts  --      0.2756                 0.5754                 0.7088
 IR Inten    --      6.8005                26.6364                12.6977

                     16                     17                     18
                      A                      A                      A
 Frequencies --    517.2136               525.5869               538.2157
 Red. masses --      7.4638                 3.9740                 2.8536
 Frc consts  --      1.1764                 0.6468                 0.4870
 IR Inten    --      8.8193                 8.4321                 2.7010

                     19                     20                     21
                      A                      A                      A
 Frequencies --    577.8523               633.4191               643.6856
 Red. masses --      3.7641                 6.5996                 5.2396
 Frc consts  --      0.7405                 1.5601                 1.2791
 IR Inten    --      1.4068                18.1293                14.1422

                     22                     23                     24
                      A                      A                      A
 Frequencies --    650.9530               655.8012               694.5130
 Red. masses --      7.2833                 7.5174                 5.3537
 Frc consts  --      1.8183                 1.9049                 1.5215
 IR Inten    --     56.3579                 3.7277                 8.7618

                     25                     26                     27
                      A                      A                      A
 Frequencies --    724.9863               727.2640               752.3670
 Red. masses --      1.6120                 2.4728                 5.3389
 Frc consts  --      0.4992                 0.7706                 1.7806
 IR Inten    --     74.6303                28.4428                 5.5274

                     28                     29                     30
                      A                      A                      A
 Frequencies --    847.6840               871.9628               938.7595
 Red. masses --      3.3632                 4.0260                 1.9909
 Frc consts  --      1.4239                 1.8035                 1.0337
 IR Inten    --      9.5383                 0.8354                34.7397

                     31                     32                     33
                      A                      A                      A
 Frequencies --    986.8355              1034.4893              1040.3751
 Red. masses --      3.1341                 1.8641                 2.2203
 Frc consts  --      1.7983                 1.1754                 1.4160
 IR Inten    --     24.8853                84.0620                13.1480

                     34                     35                     36
                      A                      A                      A
 Frequencies --   1068.7957              1072.2233              1088.3807
 Red. masses --      1.7189                 3.6853                 2.1558
 Frc consts  --      1.1569                 2.4963                 1.5046
 IR Inten    --      6.6607                17.3748                41.4272

                     37                     38                     39
                      A                      A                      A
 Frequencies --   1190.3280              1195.0688              1271.3473
 Red. masses --      1.3283                 1.3901                 2.9080
 Frc consts  --      1.1089                 1.1697                 2.7693
 IR Inten    --     32.1509                 7.0594                13.3300

                     40                     41                     42
                      A                      A                      A
 Frequencies --   1293.5374              1313.2618              1324.7872
 Red. masses --      2.7848                 2.1852                 2.5522
 Frc consts  --      2.7454                 2.2205                 2.6391
 IR Inten    --    574.8692               232.0039                62.1107

                     43                     44                     45
                      A                      A                      A
 Frequencies --   1328.8409              1398.3434              1422.8878
 Red. masses --      4.6081                 1.8679                 1.2303
 Frc consts  --      4.7942                 2.1520                 1.4676
 IR Inten    --     27.5086                10.4637                29.0446

                     46                     47                     48
                      A                      A                      A
 Frequencies --   1425.2972              1441.8573              1498.7406
 Red. masses --      1.4067                 5.7544                 1.1084
 Frc consts  --      1.6837                 7.0485                 1.4668
 IR Inten    --    110.8894               194.6540                27.7856

                     49                     50                     51
                      A                      A                      A
 Frequencies --   1500.4738              1511.8435              1552.2803
 Red. masses --      1.1704                 1.0438                 4.5088
 Frc consts  --      1.5526                 1.4057                 6.4010
 IR Inten    --     35.4166                15.7680               302.9375

                     52                     53                     54
                      A                      A                      A
 Frequencies --   1580.1391              1800.9000              1815.9055
 Red. masses --      4.4979                12.2557                 8.8692
 Frc consts  --      6.6168                23.4189                17.2315
 IR Inten    --    217.5093               573.1497               367.9385

                     55                     56                     57
                      A                      A                      A
 Frequencies --   1830.9676              2971.3740              3060.3245
 Red. masses --     10.1170                 1.0865                 1.0830
 Frc consts  --     19.9831                 5.6521                 5.9762
 IR Inten    --    122.6725                78.8763                 8.9614

                     58                     59                     60
                      A                      A                      A
 Frequencies --   3064.2691              3077.1566              3117.6178
 Red. masses --      1.0385                 1.0613                 1.1032
 Frc consts  --      5.7454                 5.9210                 6.3178
 IR Inten    --      2.1415                 8.3560                 3.5828

                     61                     62                     63
                      A                      A                      A
 Frequencies --   3128.1906              3182.1336              3561.2434
 Red. masses --      1.1011                 1.1007                 1.0754
 Frc consts  --      6.3483                 6.5667                 8.0359
 IR Inten    --      2.5390                 4.4214                71.3344

 - Thermochemistry -
 -------------------
 Temperature   298.150 Kelvin.  Pressure   1.00000 Atm.
 Atom     1 has atomic number  6 and mass  12.00000

 Molecular mass:   224.02556 amu.
 Principal axes and moments of inertia in atomic units:
                           1         2         3
     Eigenvalues --  1241.907666727.440747568.51861
           X            0.99991   0.01209   0.00582
           Y           -0.01222   0.99966   0.02322
           Z           -0.00554  -0.02329   0.99971
 This molecule is an asymmetric top.
 Rotational symmetry number  1.
 Warning -- assumption of classical behavior for rotation
           may cause significant error
 Rotational temperatures (Kelvin)      0.06974     0.01287     0.01144
 Rotational constants (GHZ):           1.45320     0.26827     0.23845
 Zero-point vibrational energy     434142.4 (Joules/Mol)
                                  103.76253 (Kcal/Mol)
 Warning -- explicit consideration of  19 degrees of freedom as
           vibrations may cause significant error
 Vibrational temperatures:     45.45    68.81    87.52   149.77   176.99
          (Kelvin)            179.38   260.81   327.48   336.89   362.17
                              391.72   428.87   454.95   519.77   716.32
                              744.16   756.20   774.37   831.40   911.35
                              926.12   936.58   943.55   999.25  1043.09
                             1046.37  1082.49  1219.63  1254.56  1350.67
                             1419.84  1488.40  1496.87  1537.76  1542.69
                             1565.94  1712.62  1719.44  1829.19  1861.11
                             1889.49  1906.07  1911.91  2011.90  2047.22
                             2050.68  2074.51  2156.35  2158.85  2175.21
                             2233.39  2273.47  2591.09  2612.68  2634.35
                             4275.14  4403.12  4408.80  4427.34  4485.56
                             4500.77  4578.38  5123.83

 Zero-point correction=                           0.165356 (Hartree/Particle)
 Thermal correction to Energy=                    0.179023
 Thermal correction to Enthalpy=                  0.179967
 Thermal correction to Gibbs Free Energy=         0.123328
 Sum of electronic and zero-point Energies=          -1081.019562
 Sum of electronic and thermal Energies=             -1081.005895
 Sum of electronic and thermal Enthalpies=           -1081.004950
 Sum of electronic and thermal Free Energies=        -1081.061589

                     E (Thermal)             CV                S
                      KCal/Mol        Cal/Mol-Kelvin    Cal/Mol-Kelvin
 Total                  112.339             49.778            119.207
 Electronic               0.000              0.000              0.000
 Translational            0.889              2.981             42.122
 Rotational               0.889              2.981             32.514
 Vibrational            110.561             43.816             44.571
 Vibration     1          0.594              1.983              5.727
 Vibration     2          0.595              1.978              4.905
 Vibration     3          0.597              1.973              4.430
 Vibration     4          0.605              1.946              3.376
 Vibration     5          0.610              1.930              3.052
 Vibration     6          0.610              1.928              3.027
 Vibration     7          0.630              1.865              2.315
 Vibration     8          0.651              1.799              1.898
 Vibration     9          0.654              1.789              1.847
 Vibration    10          0.664              1.760              1.719
 Vibration    11          0.675              1.724              1.582
 Vibration    12          0.691              1.677              1.428
 Vibration    13          0.703              1.643              1.330
 Vibration    14          0.735              1.552              1.117
 Vibration    15          0.853              1.255              0.663
 Vibration    16          0.872              1.212              0.616
 Vibration    17          0.881              1.193              0.597
 Vibration    18          0.893              1.166              0.569
 Vibration    19          0.934              1.079              0.489

                           ! Non-Optimized Parameters !
 Normal termination of Gaussian 16 at Thu Dec 10 15:28:04 2020.

 ----------------------------------------------------------------------
 # B3LYP/6-311++G(d,p) empiricaldispersion=gd3bj scf=xqc pop=npa geom=c
 heck
 ----------------------------------------------------------------------

 --------------------------------------
 CID_57637036_JID_5265_Energie_neutraal
 --------------------------------------
 Structure from the checkpoint file:  "JID_5265.chk"
 Charge =  0 Multiplicity = 1

 SCF Done:  E(RB3LYP) =  -1081.40824930     A.U. after   16 cycles
 Normal termination of Gaussian 16 at Thu Dec 10 15:30:25 2020.

 ----------------------------------------------------------------------
 # B3LYP/6-311++G(d,p) empiricaldispersion=gd3bj scf=xqc pop=npa geom=c
 heck
 ----------------------------------------------------------------------

 ------------------------------------
 CID_57637036_JID_5265_Energie_kation
 ------------------------------------
 Structure from the checkpoint file:  "JID_5265.chk"
 Charge =  1 Multiplicity = 2

 SCF Done:  E(UB3LYP) =  -1081.08860581     A.U. after   27 cycles
 Normal termination of Gaussian 16 at Thu Dec 10 15:38:35 2020.
 Gaussian 16:  ES64L-G16RevA.03 25-Dec-2016

 ----------------------------------------------------------------------
 # B3LYP/6-311++G(d,p) empiricaldispersion=gd3bj scf=xqc pop=npa geom=c
 heck
 ----------------------------------------------------------------------

 -----------------------------------
 CID_57637036_JID_5265_Energie_anion
 -----------------------------------
 Structure from the checkpoint file:  "JID_5265.chk"
 Charge = -1 Multiplicity = 2

                         Standard orientation:
 ---------------------------------------------------------------------
 Center     Atomic      Atomic             Coordinates (Angstroms)
 Number     Number       Type             X           Y           Z
 ---------------------------------------------------------------------
      1          6           0        3.903097    1.225281    0.384339
      2          6           0        3.915656   -0.269263    0.181403
      3          8           0        4.927983   -0.942004    0.202761
      4          7           0        2.696024   -0.924603   -0.044817
      5          6           0        1.388441   -0.520226   -0.135819
      6          7           0        0.451579   -1.420462   -0.364393
      7          6           0       -0.760753   -0.809037   -0.414390
      8          6           0       -0.786935    0.550924   -0.230737
      9         16           0        0.822517    1.158345    0.032757
     10          6           0       -2.126585    1.099235   -0.308766
     11          8           0       -2.524730    2.243106   -0.202060
     12          6           0       -3.044452   -0.148750   -0.550609
     13          6           0       -2.126405   -1.387559   -0.644181
     14          6           0       -4.068478   -0.210768    0.571747
     15          8           0       -4.235107   -1.166654    1.294606
     16          1           0        4.933321    1.545027    0.542200
     17          1           0        3.301235    1.504787    1.255900
     18          1           0        3.494438    1.743795   -0.489793
     19          1           0        2.806013   -1.927751   -0.167046
     20          1           0       -3.599131    0.049122   -1.477380
     21          1           0       -2.390278   -2.125492    0.120360
     22          1           0       -2.190287   -1.883190   -1.618707
     23          1           0       -4.655488    0.721041    0.694436
 ---------------------------------------------------------------------

 SCF Done:  E(UB3LYP) =  -1081.44295338     A.U. after   24 cycles

 The electronic state is 2-A.
 Alpha  occ. eigenvalues --  -88.74970 -19.01333 -18.98003 -18.95085 -14.24338
 Alpha  occ. eigenvalues --  -14.18076 -10.16446 -10.14815 -10.12888 -10.10598
 Alpha  occ. eigenvalues --  -10.07728 -10.07085 -10.07017 -10.06048 -10.05125
 Alpha  occ. eigenvalues --   -7.83595  -5.79912  -5.79571  -5.79127  -0.94357
 Alpha  occ. eigenvalues --   -0.93901  -0.89224  -0.86102  -0.79889  -0.71065
 Alpha  occ. eigenvalues --   -0.66949  -0.64530  -0.60719  -0.55975  -0.53769
 Alpha  occ. eigenvalues --   -0.46989  -0.46144  -0.42286  -0.40439  -0.38350
 Alpha  occ. eigenvalues --   -0.37983  -0.36606  -0.35688  -0.34144  -0.32744
 Alpha  occ. eigenvalues --   -0.31287  -0.30753  -0.30435  -0.29490  -0.28461
 Alpha  occ. eigenvalues --   -0.27887  -0.26746  -0.26270  -0.25512  -0.23733
 Alpha  occ. eigenvalues --   -0.22434  -0.19012  -0.16641  -0.15706  -0.15638
 Alpha  occ. eigenvalues --   -0.15316  -0.11062  -0.10045   0.02360
 Alpha virt. eigenvalues --    0.07448   0.08185   0.08882   0.10363   0.10638
 Alpha virt. eigenvalues --    0.10949   0.11511   0.11950   0.12146   0.13324
 Alpha virt. eigenvalues --    0.13588   0.13988   0.14789   0.15052   0.15778

  Beta  occ. eigenvalues --  -88.74931 -19.01298 -18.97756 -18.94695 -14.24417
  Beta  occ. eigenvalues --  -14.18222 -10.16264 -10.14763 -10.12287 -10.10344
  Beta  occ. eigenvalues --  -10.07738 -10.07046 -10.06790 -10.06063 -10.05119
  Beta  occ. eigenvalues --   -7.83559  -5.79903  -5.79558  -5.78985  -0.94286
  Beta  occ. eigenvalues --   -0.93486  -0.88525  -0.85719  -0.79743  -0.70853
  Beta  occ. eigenvalues --   -0.66830  -0.64380  -0.60332  -0.55672  -0.53259
  Beta  occ. eigenvalues --   -0.46729  -0.45938  -0.41989  -0.40100  -0.38155
  Beta  occ. eigenvalues --   -0.37769  -0.36392  -0.35108  -0.34011  -0.32459
  Beta  occ. eigenvalues --   -0.31020  -0.30321  -0.29930  -0.29255  -0.28134
  Beta  occ. eigenvalues --   -0.27515  -0.26060  -0.25740  -0.25007  -0.22445
  Beta  occ. eigenvalues --   -0.22153  -0.18058  -0.16645  -0.15525  -0.15243
  Beta  occ. eigenvalues --   -0.15119  -0.10737  -0.08618
  Beta virt. eigenvalues --    0.07626   0.08196   0.08657   0.08998   0.10446
  Beta virt. eigenvalues --    0.10950   0.11460   0.11707   0.12031   0.12805
  Beta virt. eigenvalues --    0.13429   0.14005   0.14027   0.14853   0.15784

 Mulliken charges and spin densities:
               1          2
     1  C   -0.429316  -0.010576
     2  C    0.051475   0.113094
     3  O   -0.366643   0.083368
     4  N   -0.193432  -0.040780
     5  C   -0.002834   0.318524
     6  N   -0.022687  -0.080552
     7  C   -1.251263   0.195517
     8  C    1.467977   0.045339
     9  S   -0.397344   0.067128
    10  C   -0.062432   0.111212
    11  O   -0.409051   0.138531
    12  C    0.637295   0.020411
    13  C   -0.932084  -0.053470
    14  C   -0.202171   0.007356
    15  O   -0.282692   0.007707
    16  H    0.193495  -0.000082
    17  H    0.156682   0.001792
    18  H    0.156211   0.003044
    19  H    0.294578   0.000833
    20  H    0.109910   0.066522
    21  H    0.211336   0.008246
    22  H    0.134806   0.001990
    23  H    0.138185  -0.005153
 Sum of Mulliken charges =  -1.00000   1.00000

 Dipole moment (field-independent basis, Debye):
    X=              0.5707    Y=              0.1129    Z=             -1.4518  Tot=              1.5641
 Quadrupole moment (field-independent basis, Debye-Ang):
   XX=           -159.4556   YY=           -117.2575   ZZ=           -100.8159
   XY=             13.8067   XZ=              7.0660   YZ=              4.4310

 Summary of Natural Population Analysis:

                                       Natural Population
                Natural  -----------------------------------------------
    Atom  No    Charge         Core      Valence    Rydberg      Total
 -----------------------------------------------------------------------
      C    1   -0.34037      0.99963     2.33690    0.00384     3.34037
      C    2    0.36495      0.99973     1.61413    0.02118     2.63505
      O    3   -0.29538      0.99987     3.28845    0.00706     4.29538
      N    4   -0.32296      0.99961     2.81380    0.00954     3.82296
      C    5    0.24167      0.99962     1.74026    0.01846     2.75833
      N    6   -0.30446      0.99963     2.79285    0.01197     3.80446
      C    7    0.16170      0.99941     1.82536    0.01353     2.83830
      C    8   -0.18237      0.99923     2.17230    0.01083     3.18237
      S    9    0.17356      4.99946     2.80688    0.02010     7.82644
      C   10    0.29276      0.99954     1.68350    0.02420     2.70724
      O   11   -0.27350      0.99987     3.26709    0.00654     4.27350
      C   12   -0.18964      0.99957     2.17989    0.01018     3.18964
      C   13   -0.20522      0.99960     2.19794    0.00768     3.20522
      C   14    0.23890      0.99971     1.74069    0.02069     2.76110
      O   15   -0.28384      0.99988     3.27626    0.00770     4.28384
      H   16    0.10873      0.00000     0.39018    0.00109     0.39127
      H   17    0.11253      0.00000     0.38622    0.00126     0.38747
      H   18    0.11228      0.00000     0.38646    0.00126     0.38772
      H   19    0.20420      0.00000     0.29353    0.00227     0.29580
      H   20    0.11518      0.00000     0.38305    0.00177     0.38482
      H   21    0.11513      0.00000     0.38338    0.00149     0.38487
      H   22    0.10192      0.00000     0.39690    0.00118     0.39808
      H   23    0.05424      0.00000     0.44334    0.00242     0.44576
 =======================================================================
   * Total *    0.00000     18.99437    38.79937    0.20626    58.00000

 Normal termination of Gaussian 16 at Thu Dec 10 15:45:14 2020.
