 Gaussian 16, Revision A.03,

 -----------------------------------------------------------
 # opt freq B3LYP/6-31G(d) empiricaldispersion=gd3bj scf=xqc
 -----------------------------------------------------------

 ------------------------------
 CID_147333212_JID_110_neutraal
 ------------------------------
 Symbolic Z-matrix:
 Charge =  0 Multiplicity = 1

 SCF Done:  E(RB3LYP) =  -390.689656466     A.U. after   14 cycles
 SCF Done:  E(RB3LYP) =  -390.699204179     A.U. after   13 cycles
 SCF Done:  E(RB3LYP) =  -390.699523968     A.U. after   10 cycles
 SCF Done:  E(RB3LYP) =  -390.697584629     A.U. after   11 cycles
 SCF Done:  E(RB3LYP) =  -390.699560805     A.U. after   10 cycles
 SCF Done:  E(RB3LYP) =  -390.699585772     A.U. after    9 cycles
 SCF Done:  E(RB3LYP) =  -390.699588502     A.U. after    8 cycles
 SCF Done:  E(RB3LYP) =  -390.699588700     A.U. after    8 cycles
 SCF Done:  E(RB3LYP) =  -390.699588850     A.U. after    7 cycles
 Optimization completed.
    -- Stationary point found.
 Normal termination of Gaussian 16 at Tue Dec  8 10:16:58 2020.

 --------------------------------------------------------------------
 #N Geom=AllCheck Guess=TCheck SCRF=Check GenChk RB3LYP/6-31G(d) Freq
 --------------------------------------------------------------------

 Structure from the checkpoint file:  "JID_110.chk"
 ------------------------------
 CID_147333212_JID_110_neutraal
 ------------------------------
 Charge =  0 Multiplicity = 1

 SCF Done:  E(RB3LYP) =  -390.699588850     A.U. after    1 cycles

  Exact polarizability: 131.188  17.256 103.393  -6.376  -2.575  82.322
 Approx polarizability: 179.113  31.207 138.279 -14.355  -6.492 122.538

                      1                      2                      3
                      A                      A                      A
 Frequencies --     60.5611                74.3226               137.0202
 Red. masses --      2.6910                 2.3707                 2.7838
 Frc consts  --      0.0058                 0.0077                 0.0308
 IR Inten    --      0.0050                 0.0572                 0.0275

                      4                      5                      6
                      A                      A                      A
 Frequencies --    155.5728               190.7149               246.9828
 Red. masses --      2.3223                 2.1672                 1.2982
 Frc consts  --      0.0331                 0.0464                 0.0467
 IR Inten    --      0.2560                 0.0195                 0.1826

                      7                      8                      9
                      A                      A                      A
 Frequencies --    294.2858               309.9506               340.7014
 Red. masses --      2.3093                 2.4913                 2.3346
 Frc consts  --      0.1178                 0.1410                 0.1597
 IR Inten    --      0.2042                 1.9797                 1.1488

                     10                     11                     12
                      A                      A                      A
 Frequencies --    394.3626               400.2388               463.1534
 Red. masses --      3.3371                 2.2315                 2.2141
 Frc consts  --      0.3058                 0.2106                 0.2798
 IR Inten    --      0.3874                 0.0307                 0.2941

                     13                     14                     15
                      A                      A                      A
 Frequencies --    565.4953               588.1108               628.0588
 Red. masses --      2.4756                 3.9648                 1.3044
 Frc consts  --      0.4664                 0.8080                 0.3032
 IR Inten    --      1.3125                 4.6329                 0.5519

                     16                     17                     18
                      A                      A                      A
 Frequencies --    641.3851               730.1970               786.9384
 Red. masses --      2.1462                 2.3601                 1.5277
 Frc consts  --      0.5202                 0.7414                 0.5574
 IR Inten    --      0.3375                 1.7543                 2.0243

                     19                     20                     21
                      A                      A                      A
 Frequencies --    820.2517               845.8406               864.0079
 Red. masses --      1.6163                 2.3316                 1.3193
 Frc consts  --      0.6407                 0.9829                 0.5803
 IR Inten    --      1.1092                 0.7862                48.4138

                     22                     23                     24
                      A                      A                      A
 Frequencies --    876.2803               924.1889               929.8249
 Red. masses --      1.7533                 1.6813                 1.7634
 Frc consts  --      0.7932                 0.8461                 0.8983
 IR Inten    --      2.6739                 4.5205                 0.3639

                     25                     26                     27
                      A                      A                      A
 Frequencies --    984.0797              1032.5472              1039.6499
 Red. masses --      2.0592                 1.6715                 1.4872
 Frc consts  --      1.1749                 1.0500                 0.9471
 IR Inten    --      6.8328                 0.0867                 0.3724

                     28                     29                     30
                      A                      A                      A
 Frequencies --   1052.9280              1064.5567              1081.9818
 Red. masses --      2.4436                 1.6546                 2.0059
 Frc consts  --      1.5962                 1.1048                 1.3836
 IR Inten    --      0.5789                 3.4395                 2.2072

                     31                     32                     33
                      A                      A                      A
 Frequencies --   1106.7848              1130.9544              1166.9413
 Red. masses --      1.3389                 1.6849                 2.3172
 Frc consts  --      0.9663                 1.2698                 1.8591
 IR Inten    --      0.9264                 1.2065                 1.2548

                     34                     35                     36
                      A                      A                      A
 Frequencies --   1199.2132              1232.8248              1244.0131
 Red. masses --      1.6273                 1.7794                 1.9180
 Frc consts  --      1.3788                 1.5934                 1.7489
 IR Inten    --      4.4353                 5.9197                 3.4601

                     37                     38                     39
                      A                      A                      A
 Frequencies --   1289.7084              1303.5178              1317.5577
 Red. masses --      1.2758                 1.2673                 1.2305
 Frc consts  --      1.2503                 1.2687                 1.2586
 IR Inten    --      2.1687                 2.0086                 5.7030

                     40                     41                     42
                      A                      A                      A
 Frequencies --   1347.8253              1365.2301              1379.3097
 Red. masses --      1.3657                 1.2889                 1.5029
 Frc consts  --      1.4617                 1.4154                 1.6846
 IR Inten    --     12.6289                 1.7027                 0.3817

                     43                     44                     45
                      A                      A                      A
 Frequencies --   1383.6604              1398.9742              1409.9312
 Red. masses --      1.3655                 1.4870                 1.4065
 Frc consts  --      1.5403                 1.7146                 1.6474
 IR Inten    --      0.5932                 1.1796                 3.4504

                     46                     47                     48
                      A                      A                      A
 Frequencies --   1414.9239              1440.3851              1508.6051
 Red. masses --      1.4420                 1.2428                 1.1041
 Frc consts  --      1.7009                 1.5192                 1.4806
 IR Inten    --      0.6692                 1.9601                 2.9732

                     49                     50                     51
                      A                      A                      A
 Frequencies --   1512.8939              1514.0531              1517.1567
 Red. masses --      1.2450                 1.2043                 1.1312
 Frc consts  --      1.6789                 1.6266                 1.5341
 IR Inten    --      1.2865                 0.7375                 7.5369

                     52                     53                     54
                      A                      A                      A
 Frequencies --   1523.9118              1532.1311              1533.9288
 Red. masses --      1.0753                 1.0749                 1.0661
 Frc consts  --      1.4712                 1.4867                 1.4779
 IR Inten    --      2.4274                 2.8494                 6.8875

                     55                     56                     57
                      A                      A                      A
 Frequencies --   1543.1880              2076.9034              3022.2738
 Red. masses --      1.0748                10.6048                 1.0702
 Frc consts  --      1.5081                26.9517                 5.7593
 IR Inten    --      3.9479                37.2845                16.8253

                     58                     59                     60
                      A                      A                      A
 Frequencies --   3032.8748              3034.9423              3038.0435
 Red. masses --      1.0683                 1.0615                 1.0635
 Frc consts  --      5.7898                 5.7606                 5.7832
 IR Inten    --     20.0474                26.1891                20.7963

                     61                     62                     63
                      A                      A                      A
 Frequencies --   3045.7096              3048.8286              3052.3992
 Red. masses --      1.0402                 1.0623                 1.0788
 Frc consts  --      5.6853                 5.8176                 5.9221
 IR Inten    --     15.5256                 7.5041                45.1633

                     64                     65                     66
                      A                      A                      A
 Frequencies --   3074.4290              3078.0593              3083.7657
 Red. masses --      1.0956                 1.1026                 1.0980
 Frc consts  --      6.1016                 6.1549                 6.1520
 IR Inten    --     72.9103                15.2989                55.4933

                     67                     68                     69
                      A                      A                      A
 Frequencies --   3086.5620              3103.4952              3111.7532
 Red. masses --      1.1021                 1.0948                 1.1016
 Frc consts  --      6.1862                 6.2129                 6.2848
 IR Inten    --     64.4877                26.9658                51.0730

                     70                     71                     72
                      A                      A                      A
 Frequencies --   3119.1111              3131.9850              3197.1920
 Red. masses --      1.1018                 1.0574                 1.1151
 Frc consts  --      6.3157                 6.1111                 6.7160
 IR Inten    --     47.1051                15.9815                 8.7476

 - Thermochemistry -
 -------------------
 Temperature   298.150 Kelvin.  Pressure   1.00000 Atm.
 Atom     1 has atomic number  6 and mass  12.00000

 Molecular mass:   136.12520 amu.
 Principal axes and moments of inertia in atomic units:
                           1         2         3
     Eigenvalues --  1187.081611632.692892376.71132
           X            0.99935  -0.03596  -0.00106
           Y            0.03596   0.99935   0.00017
           Z            0.00105  -0.00021   1.00000
 This molecule is an asymmetric top.
 Rotational symmetry number  1.
 Warning -- assumption of classical behavior for rotation
           may cause significant error
 Rotational temperatures (Kelvin)      0.07296     0.05305     0.03644
 Rotational constants (GHZ):           1.52032     1.10538     0.75934
 Zero-point vibrational energy     623135.6 (Joules/Mol)
                                  148.93299 (Kcal/Mol)
 Warning -- explicit consideration of  14 degrees of freedom as
           vibrations may cause significant error
 Vibrational temperatures:     87.13   106.93   197.14   223.83   274.40
          (Kelvin)            355.35   423.41   445.95   490.19   567.40
                              575.85   666.37   813.62   846.16   903.64
                              922.81  1050.59  1132.23  1180.16  1216.98
                             1243.11  1260.77  1329.70  1337.81  1415.87
                             1485.61  1495.82  1514.93  1531.66  1556.73
                             1592.42  1627.19  1678.97  1725.40  1773.76
                             1789.86  1855.60  1875.47  1895.67  1939.22
                             1964.26  1984.52  1990.78  2012.81  2028.58
                             2035.76  2072.39  2170.55  2176.72  2178.38
                             2182.85  2192.57  2204.39  2206.98  2220.30
                             2988.20  4348.38  4363.63  4366.61  4371.07
                             4382.10  4386.58  4391.72  4423.42  4428.64
                             4436.85  4440.87  4465.24  4477.12  4487.71
                             4506.23  4600.05

 Zero-point correction=                           0.237340 (Hartree/Particle)
 Thermal correction to Energy=                    0.247822
 Thermal correction to Enthalpy=                  0.248766
 Thermal correction to Gibbs Free Energy=         0.201525
 Sum of electronic and zero-point Energies=           -390.462249
 Sum of electronic and thermal Energies=              -390.451767
 Sum of electronic and thermal Enthalpies=            -390.450823
 Sum of electronic and thermal Free Energies=         -390.498063

                     E (Thermal)             CV                S
                      KCal/Mol        Cal/Mol-Kelvin    Cal/Mol-Kelvin
 Total                  155.510             40.489             99.426
 Electronic               0.000              0.000              0.000
 Translational            0.889              2.981             40.637
 Rotational               0.889              2.981             29.911
 Vibrational            153.733             34.527             28.877
 Vibration     1          0.597              1.973              4.439
 Vibration     2          0.599              1.966              4.035
 Vibration     3          0.614              1.916              2.845
 Vibration     4          0.620              1.896              2.603
 Vibration     5          0.634              1.853              2.221
 Vibration     6          0.661              1.768              1.752
 Vibration     7          0.689              1.684              1.449
 Vibration     8          0.699              1.655              1.363
 Vibration     9          0.720              1.594              1.209
 Vibration    10          0.761              1.482              0.984
 Vibration    11          0.766              1.470              0.962
 Vibration    12          0.821              1.332              0.757
 Vibration    13          0.921              1.106              0.513
 Vibration    14          0.945              1.057              0.471

 Optimization completed.
    -- Stationary point found.
 Normal termination of Gaussian 16 at Tue Dec  8 10:21:58 2020.

 ----------------------------------------------------------------------
 # B3LYP/6-311++G(d,p) empiricaldispersion=gd3bj scf=xqc pop=npa geom=c
 heck
 ----------------------------------------------------------------------

 --------------------------------------
 CID_147333212_JID_110_Energie_neutraal
 --------------------------------------
 Structure from the checkpoint file:  "JID_110.chk"
 Charge =  0 Multiplicity = 1

 SCF Done:  E(RB3LYP) =  -390.805785079     A.U. after   14 cycles
 Normal termination of Gaussian 16 at Tue Dec  8 10:23:48 2020.

 ----------------------------------------------------------------------
 # B3LYP/6-311++G(d,p) empiricaldispersion=gd3bj scf=xqc pop=npa geom=c
 heck
 ----------------------------------------------------------------------

 ------------------------------------
 CID_147333212_JID_110_Energie_kation
 ------------------------------------
 Structure from the checkpoint file:  "JID_110.chk"
 Charge =  1 Multiplicity = 2

 SCF Done:  E(UB3LYP) =  -390.492293145     A.U. after   21 cycles
 Normal termination of Gaussian 16 at Tue Dec  8 10:27:25 2020.
 Gaussian 16:  ES64L-G16RevA.03 25-Dec-2016

 ----------------------------------------------------------------------
 # B3LYP/6-311++G(d,p) empiricaldispersion=gd3bj scf=xqc pop=npa geom=c
 heck
 ----------------------------------------------------------------------

 -----------------------------------
 CID_147333212_JID_110_Energie_anion
 -----------------------------------
 Structure from the checkpoint file:  "JID_110.chk"
 Charge = -1 Multiplicity = 2

                         Standard orientation:
 ---------------------------------------------------------------------
 Center     Atomic      Atomic             Coordinates (Angstroms)
 Number     Number       Type             X           Y           Z
 ---------------------------------------------------------------------
      1          6           0        2.533981   -1.856564   -0.199574
      2          6           0        1.234916   -1.223711   -0.705832
      3          6           0        0.363974   -0.603589    0.410133
      4          6           0        1.048945    0.563492    1.156920
      5          6           0        1.169331    1.828686    0.296223
      6          6           0       -0.203198    2.281847   -0.218263
      7          6           0       -0.911414    1.154508   -0.990312
      8          6           0       -0.966187   -0.112628   -0.154868
      9          6           0       -2.091505   -0.729847    0.101591
     10          6           0       -3.212977   -1.351415    0.360845
     11          1           0        3.220490   -1.109291    0.212636
     12          1           0        3.059171   -2.371444   -1.011666
     13          1           0        2.332549   -2.593249    0.587838
     14          1           0        1.470045   -0.470049   -1.467255
     15          1           0        0.631048   -1.987523   -1.211344
     16          1           0        0.153940   -1.399010    1.135664
     17          1           0        0.448082    0.798106    2.045795
     18          1           0        2.035053    0.252837    1.520739
     19          1           0        1.835357    1.639929   -0.557073
     20          1           0        1.636676    2.630951    0.880307
     21          1           0       -0.101620    3.166246   -0.859448
     22          1           0       -0.829793    2.574495    0.635419
     23          1           0       -0.354636    0.954960   -1.917627
     24          1           0       -1.921488    1.456028   -1.283630
     25          1           0       -3.588152   -2.148656   -0.279473
     26          1           0       -3.821915   -1.098999    1.227939
 ---------------------------------------------------------------------

 SCF Done:  E(UB3LYP) =  -390.787571855     A.U. after   30 cycles

 The electronic state is 2-A.
 Alpha  occ. eigenvalues --  -10.07679 -10.07379 -10.07200 -10.07021 -10.06661
 Alpha  occ. eigenvalues --  -10.05756 -10.05747 -10.05543 -10.05359 -10.05000
 Alpha  occ. eigenvalues --   -0.74183  -0.67740  -0.67061  -0.62752  -0.61371
 Alpha  occ. eigenvalues --   -0.53728  -0.52139  -0.48689  -0.44300  -0.40196
 Alpha  occ. eigenvalues --   -0.37814  -0.35761  -0.34395  -0.33857  -0.32004
 Alpha  occ. eigenvalues --   -0.31330  -0.30056  -0.28890  -0.27875  -0.26340
 Alpha  occ. eigenvalues --   -0.25390  -0.24160  -0.22849  -0.21507  -0.20624
 Alpha  occ. eigenvalues --   -0.20027  -0.15861  -0.13896   0.04923
 Alpha virt. eigenvalues --    0.07320   0.07515   0.07992   0.09420   0.09545
 Alpha virt. eigenvalues --    0.09880   0.10084   0.10522   0.10975   0.11847
 Alpha virt. eigenvalues --    0.12345   0.12645   0.12962   0.13439   0.14101

  Beta  occ. eigenvalues --  -10.07678 -10.07364 -10.07195 -10.07004 -10.06644
  Beta  occ. eigenvalues --  -10.05737 -10.05721 -10.05523 -10.05331 -10.04959
  Beta  occ. eigenvalues --   -0.74153  -0.67700  -0.67021  -0.62708  -0.61325
  Beta  occ. eigenvalues --   -0.53674  -0.52078  -0.48612  -0.44231  -0.40143
  Beta  occ. eigenvalues --   -0.37766  -0.35729  -0.34358  -0.33815  -0.31961
  Beta  occ. eigenvalues --   -0.31294  -0.30013  -0.28850  -0.27834  -0.26300
  Beta  occ. eigenvalues --   -0.25331  -0.24118  -0.22810  -0.21467  -0.20583
  Beta  occ. eigenvalues --   -0.19985  -0.15838  -0.13835
  Beta virt. eigenvalues --    0.07114   0.07992   0.08355   0.08724   0.09765
  Beta virt. eigenvalues --    0.09979   0.10145   0.10596   0.11044   0.11286
  Beta virt. eigenvalues --    0.12253   0.12729   0.13064   0.13578   0.13707

 Mulliken charges and spin densities:
               1          2
     1  C    2.086749  -2.716459
     2  C   -1.424499   0.936815
     3  C    0.142878   0.218276
     4  C    0.352818  -0.929282
     5  C    0.529670  -0.857601
     6  C   -0.171465  -0.265353
     7  C    0.613683  -1.077469
     8  C   -0.180168   0.423924
     9  C   -0.246645   0.724309
    10  C   -0.099533  -0.475569
    11  H   -0.233458   0.371772
    12  H   -0.378363   0.517592
    13  H   -0.333844   0.463923
    14  H   -0.075573   0.208606
    15  H   -0.049862   0.213287
    16  H    0.112817   0.113900
    17  H   -0.132271   0.273689
    18  H   -0.036345   0.202549
    19  H   -0.035753   0.176238
    20  H   -0.469623   0.643050
    21  H   -0.549981   0.714781
    22  H    0.052451   0.075728
    23  H   -0.363010   0.529192
    24  H   -0.037886   0.212041
    25  H    0.070856   0.041603
    26  H   -0.143643   0.260461
 Sum of Mulliken charges =  -1.00000   1.00000

 Dipole moment (field-independent basis, Debye):
    X=             -3.5390    Y=             -1.3729    Z=              0.8492  Tot=              3.8898
 Quadrupole moment (field-independent basis, Debye-Ang):
   XX=           -115.7715   YY=           -114.9975   ZZ=            -97.9177
   XY=              3.4218   XZ=              1.0791   YZ=              1.5119

 Summary of Natural Population Analysis:

                                       Natural Population
                Natural  -----------------------------------------------
    Atom  No    Charge         Core      Valence    Rydberg      Total
 -----------------------------------------------------------------------
      C    1   -0.28499      0.99967     2.28025    0.00507     3.28499
      C    2   -0.18849      0.99961     2.17978    0.00910     3.18849
      C    3   -0.10917      0.99955     2.09787    0.01175     3.10917
      C    4   -0.18780      0.99961     2.17879    0.00940     3.18780
      C    5   -0.19225      0.99963     2.18389    0.00873     3.19225
      C    6   -0.18523      0.99962     2.17721    0.00840     3.18523
      C    7   -0.19306      0.99959     2.18389    0.00958     3.19306
      C    8   -0.04073      0.99942     2.02973    0.01159     3.04073
      C    9    0.04152      0.99943     1.94970    0.00935     2.95848
      C   10   -0.23831      0.99952     2.23358    0.00521     3.23831
      H   11    0.09789      0.00000     0.40074    0.00137     0.40211
      H   12    0.10031      0.00000     0.39842    0.00127     0.39969
      H   13    0.09506      0.00000     0.40364    0.00130     0.40494
      H   14    0.09592      0.00000     0.40236    0.00173     0.40408
      H   15    0.09758      0.00000     0.40114    0.00128     0.40242
      H   16    0.10145      0.00000     0.39687    0.00168     0.39855
      H   17    0.09640      0.00000     0.40220    0.00140     0.40360
      H   18    0.10247      0.00000     0.39628    0.00125     0.39753
      H   19    0.09518      0.00000     0.40291    0.00191     0.40482
      H   20    0.10089      0.00000     0.39756    0.00155     0.39911
      H   21    0.10090      0.00000     0.39730    0.00180     0.39910
      H   22    0.09257      0.00000     0.40594    0.00149     0.40743
      H   23    0.10091      0.00000     0.39744    0.00164     0.39909
      H   24    0.10406      0.00000     0.39485    0.00109     0.39594
      H   25    0.09783      0.00000     0.40035    0.00182     0.40217
      H   26    0.09910      0.00000     0.39878    0.00212     0.40090
 =======================================================================
   * Total *   -0.00000      9.99565    27.89148    0.11288    38.00000

 Normal termination of Gaussian 16 at Tue Dec  8 10:32:45 2020.
