 Gaussian 16, Revision A.03,

 -----------------------------------------------------------
 # opt freq B3LYP/6-31G(d) empiricaldispersion=gd3bj scf=xqc
 -----------------------------------------------------------

 ------------------------------
 CID_148872583_JID_329_neutraal
 ------------------------------
 Symbolic Z-matrix:
 Charge =  0 Multiplicity = 1

 SCF Done:  E(RB3LYP) =  -405.337955439     A.U. after   14 cycles
 SCF Done:  E(RB3LYP) =  -405.360094708     A.U. after   12 cycles
 SCF Done:  E(RB3LYP) =  -405.372954410     A.U. after   12 cycles
 SCF Done:  E(RB3LYP) =  -405.376120040     A.U. after   11 cycles
 SCF Done:  E(RB3LYP) =  -405.376812254     A.U. after   11 cycles
 SCF Done:  E(RB3LYP) =  -405.377304941     A.U. after   11 cycles
 SCF Done:  E(RB3LYP) =  -405.377565463     A.U. after   11 cycles
 SCF Done:  E(RB3LYP) =  -405.377878290     A.U. after   11 cycles
 SCF Done:  E(RB3LYP) =  -405.377982830     A.U. after   10 cycles
 SCF Done:  E(RB3LYP) =  -405.378018336     A.U. after   10 cycles
 SCF Done:  E(RB3LYP) =  -405.380859177     A.U. after   11 cycles
 SCF Done:  E(RB3LYP) =  -405.380893283     A.U. after   11 cycles
 SCF Done:  E(RB3LYP) =  -405.380948611     A.U. after   10 cycles
 SCF Done:  E(RB3LYP) =  -405.380952312     A.U. after    8 cycles
 SCF Done:  E(RB3LYP) =  -405.380953220     A.U. after    8 cycles
 Optimization completed.
    -- Stationary point found.

 1\1\GINC-NODE101\FOpt\RB3LYP\6-31G(d)\C9H13N1\VSC10255\08-Dec-2020\0\\
 # opt freq B3LYP/6-31G(d) empiricaldispersion=gd3bj scf=xqc\\CID_14887
 2583_JID_329_neutraal\\0,1\C,1.1669554148,-0.840090299,0.0120311584\C,
 0.4335989629,-0.2108549081,0.9328305388\C,-1.0505498352,-0.0767479062,
 0.837658707\C,-1.9071402063,-0.4615093867,2.1460145726\C,-1.9120308732
 ,1.0678793648,2.502791168\C,-1.7627002347,1.3326261887,1.0273883246\C,
 -1.8788944672,2.8697715497,1.309219365\C,-2.7415089342,2.3757334278,2.
 5307939222\C,-3.8168100887,2.8549414634,3.1434677471\N,-0.6636990781,1

 Normal termination of Gaussian 16 at Tue Dec  8 10:27:44 2020.

 --------------------------------------------------------------------
 #N Geom=AllCheck Guess=TCheck SCRF=Check GenChk RB3LYP/6-31G(d) Freq
 --------------------------------------------------------------------

 Structure from the checkpoint file:  "JID_329.chk"
 ------------------------------
 CID_148872583_JID_329_neutraal
 ------------------------------
 Charge =  0 Multiplicity = 1

 SCF Done:  E(RB3LYP) =  -405.380953220     A.U. after    1 cycles

  Exact polarizability: 144.843   2.857  80.610  -2.848   0.053  78.238
 Approx polarizability: 190.547   6.425 119.174  -4.255   1.528 118.162

                      1                      2                      3
                      A                      A                      A
 Frequencies --     78.3840               106.5056               155.7779
 Red. masses --      3.0362                 3.3663                 1.5866
 Frc consts  --      0.0110                 0.0225                 0.0227
 IR Inten    --      0.3305                 0.3384                 9.8285

                      4                      5                      6
                      A                      A                      A
 Frequencies --    199.9122               216.8992               279.5361
 Red. masses --      3.3718                 1.4440                 2.8967
 Frc consts  --      0.0794                 0.0400                 0.1334
 IR Inten    --      1.5282                20.9690                 1.6870

                      7                      8                      9
                      A                      A                      A
 Frequencies --    304.6303               325.1649               379.1287
 Red. masses --      2.5779                 2.4364                 2.6977
 Frc consts  --      0.1409                 0.1518                 0.2285
 IR Inten    --      1.5419                 1.7566                 0.5072

                     10                     11                     12
                      A                      A                      A
 Frequencies --    423.6620               477.4085               541.4908
 Red. masses --      2.2579                 2.7500                 2.7765
 Frc consts  --      0.2388                 0.3693                 0.4797
 IR Inten    --      0.8188                 1.7557                 8.0670

                     13                     14                     15
                      A                      A                      A
 Frequencies --    575.0359               616.3963               693.1027
 Red. masses --      2.3305                 2.7818                 1.8608
 Frc consts  --      0.4540                 0.6227                 0.5267
 IR Inten    --      1.9545                 0.3376                 0.4408

                     16                     17                     18
                      A                      A                      A
 Frequencies --    726.1322               749.4333               792.0916
 Red. masses --      2.1553                 1.6117                 2.1402
 Frc consts  --      0.6696                 0.5333                 0.7911
 IR Inten    --      5.5082                 3.6100                 2.7233

                     19                     20                     21
                      A                      A                      A
 Frequencies --    808.1588               845.4862               896.4223
 Red. masses --      3.5208                 2.5694                 2.6647
 Frc consts  --      1.3548                 1.0821                 1.2616
 IR Inten    --     16.0097                11.1050                30.4763

                     22                     23                     24
                      A                      A                      A
 Frequencies --    905.8503               932.9575               934.0591
 Red. masses --      1.3427                 1.4659                 1.5087
 Frc consts  --      0.6492                 0.7518                 0.7755
 IR Inten    --     28.4776                67.3379                47.3661

                     25                     26                     27
                      A                      A                      A
 Frequencies --    956.4418               970.9475              1016.0868
 Red. masses --      2.0311                 2.2050                 1.5973
 Frc consts  --      1.0947                 1.2248                 0.9716
 IR Inten    --      1.0450                 6.7118                15.3135

                     28                     29                     30
                      A                      A                      A
 Frequencies --   1028.3792              1063.4455              1084.6871
 Red. masses --      1.8513                 1.1697                 1.6450
 Frc consts  --      1.1535                 0.7794                 1.1403
 IR Inten    --      2.1754                11.9328                11.4875

                     31                     32                     33
                      A                      A                      A
 Frequencies --   1090.2671              1119.4353              1160.5814
 Red. masses --      1.3068                 1.7209                 2.0240
 Frc consts  --      0.9152                 1.2706                 1.6063
 IR Inten    --      2.0058                 0.4809                 0.9622

                     34                     35                     36
                      A                      A                      A
 Frequencies --   1169.7497              1203.2672              1211.9011
 Red. masses --      1.8774                 1.3551                 2.0883
 Frc consts  --      1.5135                 1.1560                 1.8070
 IR Inten    --      7.5344                 0.3180                 4.2474

                     37                     38                     39
                      A                      A                      A
 Frequencies --   1234.9839              1249.5134              1285.8122
 Red. masses --      1.7064                 1.5013                 1.4155
 Frc consts  --      1.5334                 1.3810                 1.3789
 IR Inten    --      5.9391                 3.1983                 7.6229

                     40                     41                     42
                      A                      A                      A
 Frequencies --   1307.6361              1339.8124              1366.0872
 Red. masses --      1.3307                 1.7434                 1.2750
 Frc consts  --      1.3406                 1.8439                 1.4019
 IR Inten    --      1.1110                 4.3979                15.9641

                     43                     44                     45
                      A                      A                      A
 Frequencies --   1457.5393              1468.3668              1492.9163
 Red. masses --      1.1555                 1.1315                 1.1929
 Frc consts  --      1.4463                 1.4374                 1.5665
 IR Inten    --      0.4499                 0.7306                12.7501

                     46                     47                     48
                      A                      A                      A
 Frequencies --   1506.4482              1518.2791              1699.9957
 Red. masses --      1.1257                 1.1025                 1.0860
 Frc consts  --      1.5051                 1.4974                 1.8492
 IR Inten    --      3.3024                 0.5302                27.7452

                     49                     50                     51
                      A                      A                      A
 Frequencies --   1721.8102              1754.2841              3013.6331
 Red. masses --      4.3902                 6.5089                 1.0828
 Frc consts  --      7.6685                11.8021                 5.7938
 IR Inten    --      3.0379                24.8600                18.6853

                     52                     53                     54
                      A                      A                      A
 Frequencies --   3072.6117              3078.4214              3080.0854
 Red. masses --      1.0763                 1.0581                 1.0674
 Frc consts  --      5.9867                 5.9079                 5.9664
 IR Inten    --     31.6160                63.0330                23.1188

                     55                     56                     57
                      A                      A                      A
 Frequencies --   3131.2059              3144.1331              3149.1457
 Red. masses --      1.1094                 1.1084                 1.0606
 Frc consts  --      6.4087                 6.4560                 6.1970
 IR Inten    --     25.2236                27.2190                17.4690

                     58                     59                     60
                      A                      A                      A
 Frequencies --   3154.6118              3210.9682              3231.7815
 Red. masses --      1.0595                 1.0957                 1.1162
 Frc consts  --      6.2122                 6.6562                 6.8685
 IR Inten    --     13.3263                 1.9721                11.3982

                     61                     62                     63
                      A                      A                      A
 Frequencies --   3233.9009              3460.8883              3541.3722
 Red. masses --      1.1094                 1.0503                 1.0914
 Frc consts  --      6.8359                 7.4123                 8.0642
 IR Inten    --     25.9186                 0.6965                 0.2207

 - Thermochemistry -
 -------------------
 Temperature   298.150 Kelvin.  Pressure   1.00000 Atm.
 Atom     1 has atomic number  6 and mass  12.00000

 Molecular mass:   135.10480 amu.
 Principal axes and moments of inertia in atomic units:
                           1         2         3
     Eigenvalues --   586.116352140.381772225.32793
           X            1.00000  -0.00077   0.00087
           Y            0.00077   1.00000  -0.00117
           Z           -0.00086   0.00117   1.00000
 This molecule is an asymmetric top.
 Rotational symmetry number  1.
 Warning -- assumption of classical behavior for rotation
           may cause significant error
 Rotational temperatures (Kelvin)      0.14778     0.04047     0.03892
 Rotational constants (GHZ):           3.07915     0.84319     0.81100
 Zero-point vibrational energy     526028.3 (Joules/Mol)
                                  125.72378 (Kcal/Mol)
 Warning -- explicit consideration of  14 degrees of freedom as
           vibrations may cause significant error
 Vibrational temperatures:    112.78   153.24   224.13   287.63   312.07
          (Kelvin)            402.19   438.30   467.84   545.48   609.56
                              686.88   779.08   827.35   886.86   997.22
                             1044.74  1078.27  1139.64  1162.76  1216.47
                             1289.75  1303.32  1342.32  1343.90  1376.11
                             1396.98  1461.92  1479.61  1530.06  1560.62
                             1568.65  1610.62  1669.82  1683.01  1731.23
                             1743.66  1776.87  1797.77  1850.00  1881.40
                             1927.69  1965.49  2097.07  2112.65  2147.97
                             2167.44  2184.47  2445.91  2477.30  2524.02
                             4335.95  4420.80  4429.16  4431.56  4505.11
                             4523.71  4530.92  4538.78  4619.87  4649.81
                             4652.86  4979.45  5095.24

 Zero-point correction=                           0.200354 (Hartree/Particle)
 Thermal correction to Energy=                    0.210210
 Thermal correction to Enthalpy=                  0.211154
 Thermal correction to Gibbs Free Energy=         0.165844
 Sum of electronic and zero-point Energies=           -405.180600
 Sum of electronic and thermal Energies=              -405.170743
 Sum of electronic and thermal Enthalpies=            -405.169799
 Sum of electronic and thermal Free Energies=         -405.215109

                     E (Thermal)             CV                S
                      KCal/Mol        Cal/Mol-Kelvin    Cal/Mol-Kelvin
 Total                  131.909             39.004             95.363
 Electronic               0.000              0.000              0.000
 Translational            0.889              2.981             40.615
 Rotational               0.889              2.981             29.414
 Vibrational            130.131             33.043             25.335
 Vibration     1          0.600              1.964              3.931
 Vibration     2          0.605              1.944              3.332
 Vibration     3          0.620              1.896              2.600
 Vibration     4          0.638              1.840              2.134
 Vibration     5          0.646              1.815              1.985
 Vibration     6          0.680              1.711              1.537
 Vibration     7          0.696              1.665              1.391
 Vibration     8          0.709              1.625              1.284
 Vibration     9          0.749              1.515              1.043
 Vibration    10          0.786              1.419              0.880
 Vibration    11          0.834              1.300              0.717
 Vibration    12          0.897              1.158              0.562
 Vibration    13          0.931              1.085              0.495
 Vibration    14          0.976              0.997              0.422

                           ! Non-Optimized Parameters !

 1\1\GINC-NODE101\Freq\RB3LYP\6-31G(d)\C9H13N1\VSC10255\08-Dec-2020\0\\
 #N Geom=AllCheck Guess=TCheck SCRF=Check GenChk RB3LYP/6-31G(d) Freq\\
 CID_148872583_JID_329_neutraal\\0,1\C,1.1669554148,-0.840090299,0.0120
 311584\C,0.4335989629,-0.2108549081,0.9328305388\C,-1.0505498352,-0.07
 67479062,0.837658707\C,-1.9071402063,-0.4615093867,2.1460145726\C,-1.9
 120308732,1.0678793648,2.502791168\C,-1.7627002347,1.3326261887,1.0273
 883246\C,-1.8788944672,2.8697715497,1.309219365\C,-2.7415089342,2.3757
 334278,2.5307939222\C,-3.8168100887,2.8549414634,3.1434677471\N,-0.663

 Normal termination of Gaussian 16 at Tue Dec  8 10:32:10 2020.

 ----------------------------------------------------------------------
 # B3LYP/6-311++G(d,p) empiricaldispersion=gd3bj scf=xqc pop=npa geom=c
 heck
 ----------------------------------------------------------------------

 --------------------------------------
 CID_148872583_JID_329_Energie_neutraal
 --------------------------------------
 Structure from the checkpoint file:  "JID_329.chk"
 Charge =  0 Multiplicity = 1

 SCF Done:  E(RB3LYP) =  -405.498095429     A.U. after   15 cycles
 Normal termination of Gaussian 16 at Tue Dec  8 10:34:52 2020.

 ----------------------------------------------------------------------
 # B3LYP/6-311++G(d,p) empiricaldispersion=gd3bj scf=xqc pop=npa geom=c
 heck
 ----------------------------------------------------------------------

 ------------------------------------
 CID_148872583_JID_329_Energie_kation
 ------------------------------------
 Structure from the checkpoint file:  "JID_329.chk"
 Charge =  1 Multiplicity = 2

 SCF Done:  E(UB3LYP) =  -405.200390033     A.U. after   24 cycles
 Normal termination of Gaussian 16 at Tue Dec  8 10:42:04 2020.
 Gaussian 16:  ES64L-G16RevA.03 25-Dec-2016

 -----------------------------------
 CID_148872583_JID_329_Energie_anion
 -----------------------------------
 Structure from the checkpoint file:  "JID_329.chk"
 Charge = -1 Multiplicity = 2

                         Standard orientation:
 ---------------------------------------------------------------------
 Center     Atomic      Atomic             Coordinates (Angstroms)
 Number     Number       Type             X           Y           Z
 ---------------------------------------------------------------------
      1          6           0       -3.598739   -0.426352    0.189492
      2          6           0       -2.335818   -0.026773    0.353773
      3          6           0       -1.298305   -0.151676   -0.712860
      4          6           0       -0.410738    1.154355   -1.029234
      5          6           0        0.677988    0.557472   -0.067595
      6          6           0        0.121274   -0.800435   -0.407247
      7          6           0        1.257971   -1.460558    0.445925
      8          6           0        2.046326   -0.161648    0.031495
      9          6           0        3.317585    0.081126   -0.262174
     10          7           0        0.290202    1.048019    1.278767
     11          1           0       -3.944726   -0.869549   -0.742929
     12          1           0       -4.336776   -0.327054    0.981157
     13          1           0       -2.006790    0.411808    1.290355
     14          1           0       -1.757356   -0.586193   -1.606970
     15          1           0       -0.108445    1.169270   -2.079285
     16          1           0       -0.840318    2.121889   -0.750522
     17          1           0        0.473433   -0.992176   -1.429527
     18          1           0        1.061588   -1.505412    1.521708
     19          1           0        1.660369   -2.422391    0.115059
     20          1           0        3.633285    1.045790   -0.651134
     21          1           0        4.089121   -0.674315   -0.132764
     22          1           0        0.479132    2.049965    1.293862
     23          1           0        0.900799    0.649158    1.990164
 ---------------------------------------------------------------------

 SCF Done:  E(UB3LYP) =  -405.480597181     A.U. after   33 cycles
 SCF Done:  E(UB3LYP) =  -405.480597181     a.u. after    1 cycles

 The electronic state is 2-A.
 Alpha  occ. eigenvalues --  -14.18131 -10.09191 -10.08109 -10.07935 -10.07444
 Alpha  occ. eigenvalues --  -10.07129 -10.06264 -10.05938 -10.05662 -10.04894
 Alpha  occ. eigenvalues --   -0.80995  -0.71917  -0.69095  -0.64760  -0.60463
 Alpha  occ. eigenvalues --   -0.53659  -0.50857  -0.47448  -0.43623  -0.41386
 Alpha  occ. eigenvalues --   -0.38005  -0.36957  -0.34440  -0.33039  -0.32185
 Alpha  occ. eigenvalues --   -0.31424  -0.30384  -0.28139  -0.25523  -0.25011
 Alpha  occ. eigenvalues --   -0.22826  -0.22160  -0.20926  -0.17479  -0.15153
 Alpha  occ. eigenvalues --   -0.14034  -0.11392   0.05025
 Alpha virt. eigenvalues --    0.07742   0.07873   0.08240   0.09175   0.09425
 Alpha virt. eigenvalues --    0.10317   0.10565   0.10634   0.11008   0.11918
 Alpha virt. eigenvalues --    0.12515   0.13874   0.13888   0.14368   0.15322

  Beta  occ. eigenvalues --  -14.18075 -10.09187 -10.08088 -10.07927 -10.07409
  Beta  occ. eigenvalues --  -10.07107 -10.06257 -10.05924 -10.05647 -10.04841
  Beta  occ. eigenvalues --   -0.80930  -0.71823  -0.69058  -0.64724  -0.60396
  Beta  occ. eigenvalues --   -0.53603  -0.50774  -0.47390  -0.43554  -0.41313
  Beta  occ. eigenvalues --   -0.37940  -0.36904  -0.34388  -0.32999  -0.32145
  Beta  occ. eigenvalues --   -0.31368  -0.30329  -0.28095  -0.25480  -0.24964
  Beta  occ. eigenvalues --   -0.22783  -0.22110  -0.20882  -0.17421  -0.15100
  Beta  occ. eigenvalues --   -0.13939  -0.11338
  Beta virt. eigenvalues --    0.07405   0.08214   0.08770   0.08973   0.09564
  Beta virt. eigenvalues --    0.09785   0.10491   0.11001   0.11226   0.11663
  Beta virt. eigenvalues --    0.12340   0.12778   0.14227   0.14423   0.14922

 Mulliken charges and spin densities:
               1          2
     1  C    0.505679  -1.083647
     2  C   -0.442229   0.335083
     3  C   -2.112743   2.846703
     4  C    2.596113  -3.525950
     5  C   -0.507332   0.706271
     6  C    1.378425  -1.832176
     7  C    1.052216  -1.816046
     8  C   -2.739194   3.169535
     9  C    1.842788  -2.227888
    10  N   -0.213155  -0.136233
    11  H   -0.013530   0.111368
    12  H   -0.040912   0.147368
    13  H   -0.086482   0.328242
    14  H   -0.349716   0.579350
    15  H   -0.409861   0.587378
    16  H    0.079946   0.053424
    17  H   -0.275954   0.455972
    18  H   -0.082966   0.254593
    19  H   -0.372272   0.528638
    20  H   -0.443384   0.590365
    21  H   -0.156729   0.272668
    22  H   -0.214355   0.447657
    23  H    0.005644   0.207324
 Sum of Mulliken charges =  -1.00000   1.00000

 Dipole moment (field-independent basis, Debye):
    X=             -2.9402    Y=             -0.3058    Z=              1.4892  Tot=              3.3100
 Quadrupole moment (field-independent basis, Debye-Ang):
   XX=           -112.0605   YY=            -98.2376   ZZ=            -98.1588
   XY=             -0.6316   XZ=              2.5606   YZ=             -2.8187

 Summary of Natural Population Analysis:

                                       Natural Population
                Natural  -----------------------------------------------
    Atom  No    Charge         Core      Valence    Rydberg      Total
 -----------------------------------------------------------------------
      C    1   -0.19860      0.99957     2.19275    0.00628     3.19860
      C    2   -0.07972      0.99952     2.07019    0.01001     3.07972
      C    3   -0.11014      0.99956     2.09499    0.01559     3.11014
      C    4   -0.17172      0.99958     2.16142    0.01072     3.17172
      C    5    0.04108      0.99942     1.94176    0.01774     2.95892
      C    6   -0.10735      0.99939     2.09494    0.01302     3.10735
      C    7   -0.19094      0.99958     2.18190    0.00946     3.19094
      C    8    0.00021      0.99950     1.98189    0.01839     2.99979
      C    9   -0.19530      0.99943     2.18860    0.00727     3.19530
      N   10   -0.42987      0.99976     2.91813    0.01198     3.92987
      H   11    0.08705      0.00000     0.41157    0.00138     0.41295
      H   12    0.08929      0.00000     0.40970    0.00100     0.41071
      H   13    0.10960      0.00000     0.38870    0.00171     0.39040
      H   14    0.09785      0.00000     0.39996    0.00219     0.40215
      H   15    0.10592      0.00000     0.39181    0.00227     0.39408
      H   16    0.09873      0.00000     0.39985    0.00142     0.40127
      H   17    0.09634      0.00000     0.40029    0.00337     0.40366
      H   18    0.10043      0.00000     0.39799    0.00159     0.39957
      H   19    0.10359      0.00000     0.39473    0.00168     0.39641
      H   20    0.10010      0.00000     0.39809    0.00181     0.39990
      H   21    0.09575      0.00000     0.40278    0.00147     0.40425
      H   22    0.17937      0.00000     0.31731    0.00333     0.32063
      H   23    0.17834      0.00000     0.31915    0.00251     0.32166
 =======================================================================
   * Total *   -0.00000      9.99531    26.85850    0.14619    37.00000

 Normal termination of Gaussian 16 at Tue Dec  8 10:51:14 2020.
