 Gaussian 16, Revision A.03,

 -----------------------------------------------------------
 # opt freq B3LYP/6-31G(d) empiricaldispersion=gd3bj scf=xqc
 -----------------------------------------------------------

 ------------------------------
 CID_60883952_JID_2858_neutraal
 ------------------------------
 Symbolic Z-matrix:
 Charge =  0 Multiplicity = 1

 SCF Done:  E(RB3LYP) =  -522.468712702     A.U. after   12 cycles
 SCF Done:  E(RB3LYP) =  -522.474534132     A.U. after   11 cycles
 SCF Done:  E(RB3LYP) =  -522.475398473     A.U. after   11 cycles
 SCF Done:  E(RB3LYP) =  -522.476282906     A.U. after   11 cycles
 SCF Done:  E(RB3LYP) =  -522.476672360     A.U. after   11 cycles
 SCF Done:  E(RB3LYP) =  -522.476731118     A.U. after   10 cycles
 SCF Done:  E(RB3LYP) =  -522.476873308     A.U. after   10 cycles
 SCF Done:  E(RB3LYP) =  -522.476900381     A.U. after    8 cycles
 SCF Done:  E(RB3LYP) =  -522.476929043     A.U. after    9 cycles
 SCF Done:  E(RB3LYP) =  -522.476946699     A.U. after    9 cycles
 SCF Done:  E(RB3LYP) =  -522.477031132     A.U. after    9 cycles
 SCF Done:  E(RB3LYP) =  -522.477049055     A.U. after    9 cycles
 SCF Done:  E(RB3LYP) =  -522.477053283     A.U. after    8 cycles
 SCF Done:  E(RB3LYP) =  -522.477054776     A.U. after    8 cycles
 SCF Done:  E(RB3LYP) =  -522.477054953     A.U. after    7 cycles
 SCF Done:  E(RB3LYP) =  -522.477055031     A.U. after    6 cycles
 Optimization completed.
    -- Stationary point found.
 Normal termination of Gaussian 16 at Wed Dec  9 18:12:34 2020.

 --------------------------------------------------------------------
 #N Geom=AllCheck Guess=TCheck SCRF=Check GenChk RB3LYP/6-31G(d) Freq
 --------------------------------------------------------------------

 Structure from the checkpoint file:  "JID_2858.chk"
 ------------------------------
 CID_60883952_JID_2858_neutraal
 ------------------------------
 Charge =  0 Multiplicity = 1

 SCF Done:  E(RB3LYP) =  -522.477055031     A.U. after    1 cycles

  Exact polarizability: 130.586   1.576 102.690   2.229  -0.313  97.492
 Approx polarizability: 159.612   3.362 146.481   3.656   0.300 148.547

                      1                      2                      3
                      A                      A                      A
 Frequencies --     48.1268                55.2824                86.7090
 Red. masses --      3.4527                 2.1241                 3.4592
 Frc consts  --      0.0047                 0.0038                 0.0153
 IR Inten    --      0.4707                 1.1442                 0.3779

                      4                      5                      6
                      A                      A                      A
 Frequencies --    123.3547               140.4637               170.0770
 Red. masses --      2.5673                 2.9048                 2.9899
 Frc consts  --      0.0230                 0.0338                 0.0510
 IR Inten    --      4.4434                 1.2848                 1.8325

                      7                      8                      9
                      A                      A                      A
 Frequencies --    236.8904               241.6953               257.6811
 Red. masses --      1.6325                 2.4201                 2.7527
 Frc consts  --      0.0540                 0.0833                 0.1077
 IR Inten    --      2.7583                 1.1007                 1.5430

                     10                     11                     12
                      A                      A                      A
 Frequencies --    296.1837               326.5567               345.0652
 Red. masses --      2.4166                 2.5890                 1.9329
 Frc consts  --      0.1249                 0.1627                 0.1356
 IR Inten    --      1.1027                 1.0249                19.1586

                     13                     14                     15
                      A                      A                      A
 Frequencies --    404.8381               474.6565               490.0237
 Red. masses --      2.4583                 3.2571                 1.1726
 Frc consts  --      0.2374                 0.4324                 0.1659
 IR Inten    --     15.2648                14.1076               137.2946

                     16                     17                     18
                      A                      A                      A
 Frequencies --    530.8567               547.2250               621.7999
 Red. masses --      1.6049                 2.6983                 2.1454
 Frc consts  --      0.2665                 0.4761                 0.4887
 IR Inten    --     47.2576                20.6513                18.7184

                     19                     20                     21
                      A                      A                      A
 Frequencies --    670.4236               706.6315               758.7394
 Red. masses --      2.8966                 2.7106                 2.0965
 Frc consts  --      0.7671                 0.7975                 0.7111
 IR Inten    --      2.5229                10.3487                14.4408

                     22                     23                     24
                      A                      A                      A
 Frequencies --    789.3983               812.2083               842.8204
 Red. masses --      1.6387                 1.0971                 2.8669
 Frc consts  --      0.6017                 0.4264                 1.1999
 IR Inten    --      1.3683                 3.1195                16.2589

                     25                     26                     27
                      A                      A                      A
 Frequencies --    856.1471               893.9225               900.7288
 Red. masses --      1.4951                 2.0345                 2.4307
 Frc consts  --      0.6457                 0.9579                 1.1619
 IR Inten    --      2.7772                 2.8686                 4.4338

                     28                     29                     30
                      A                      A                      A
 Frequencies --    909.5160               929.4260               955.6778
 Red. masses --      1.9541                 2.8844                 2.6086
 Frc consts  --      0.9524                 1.4680                 1.4037
 IR Inten    --      3.7825                11.0908                 6.1399

                     31                     32                     33
                      A                      A                      A
 Frequencies --    972.4295              1012.1957              1035.4370
 Red. masses --      1.8418                 1.6558                 1.8654
 Frc consts  --      1.0261                 0.9995                 1.1783
 IR Inten    --      1.6679                 6.0986                 2.2821

                     34                     35                     36
                      A                      A                      A
 Frequencies --   1049.3308              1055.0574              1059.3345
 Red. masses --      1.8129                 1.7540                 1.5483
 Frc consts  --      1.1761                 1.1504                 1.0237
 IR Inten    --     19.7301                29.1941                 1.4763

                     37                     38                     39
                      A                      A                      A
 Frequencies --   1081.0149              1089.8034              1115.8055
 Red. masses --      1.8453                 1.3797                 2.0746
 Frc consts  --      1.2705                 0.9655                 1.5218
 IR Inten    --     14.9929                 1.6702                 6.2539

                     40                     41                     42
                      A                      A                      A
 Frequencies --   1153.2513              1172.3254              1192.4632
 Red. masses --      1.8994                 1.0840                 2.0728
 Frc consts  --      1.4884                 0.8777                 1.7366
 IR Inten    --      0.4484                 1.3309                88.7537

                     43                     44                     45
                      A                      A                      A
 Frequencies --   1200.3181              1214.3445              1216.5875
 Red. masses --      1.8617                 1.3866                 1.7534
 Frc consts  --      1.5803                 1.2047                 1.5290
 IR Inten    --      4.3280                 4.0186                 3.1184

                     46                     47                     48
                      A                      A                      A
 Frequencies --   1240.3072              1242.6326              1254.3908
 Red. masses --      1.5760                 1.4371                 1.9392
 Frc consts  --      1.4285                 1.3074                 1.7978
 IR Inten    --     31.9989                 9.6091                 2.4448

                     49                     50                     51
                      A                      A                      A
 Frequencies --   1282.0315              1325.6327              1334.0097
 Red. masses --      1.2396                 1.2930                 1.3388
 Frc consts  --      1.2004                 1.3387                 1.4038
 IR Inten    --      6.3457                 0.9974                18.7865

                     52                     53                     54
                      A                      A                      A
 Frequencies --   1346.8605              1354.5147              1369.3621
 Red. masses --      1.3172                 1.3032                 1.3679
 Frc consts  --      1.4078                 1.4087                 1.5112
 IR Inten    --      1.3682                 1.6211                10.3659

                     55                     56                     57
                      A                      A                      A
 Frequencies --   1371.5611              1386.2791              1413.0731
 Red. masses --      1.4103                 1.3077                 1.3549
 Frc consts  --      1.5631                 1.4807                 1.5940
 IR Inten    --      5.9106                 9.8974                16.9717

                     58                     59                     60
                      A                      A                      A
 Frequencies --   1415.5455              1441.4505              1445.4178
 Red. masses --      1.3795                 1.3635                 1.4013
 Frc consts  --      1.6287                 1.6692                 1.7249
 IR Inten    --     21.9937                 7.7004                10.1077

                     61                     62                     63
                      A                      A                      A
 Frequencies --   1492.7876              1509.0515              1515.4679
 Red. masses --      1.0850                 1.0813                 1.1812
 Frc consts  --      1.4245                 1.4507                 1.5983
 IR Inten    --      0.8399                 1.3546                10.2565

                     64                     65                     66
                      A                      A                      A
 Frequencies --   1520.7146              1531.8886              1536.8305
 Red. masses --      1.0903                 1.1246                 1.1639
 Frc consts  --      1.4856                 1.5548                 1.6196
 IR Inten    --      0.9737                 2.1059                19.8021

                     67                     68                     69
                      A                      A                      A
 Frequencies --   1540.4152              1541.8675              2959.7327
 Red. masses --      1.1974                 1.1255                 1.0829
 Frc consts  --      1.6741                 1.5765                 5.5890
 IR Inten    --      2.5838                 2.0798                49.3409

                     70                     71                     72
                      A                      A                      A
 Frequencies --   2989.5117              3048.7083              3060.5611
 Red. masses --      1.0857                 1.0442                 1.0660
 Frc consts  --      5.7168                 5.7185                 5.8832
 IR Inten    --     96.6838                18.2000                33.9191

                     73                     74                     75
                      A                      A                      A
 Frequencies --   3067.5534              3076.7325              3081.7295
 Red. masses --      1.0764                 1.0644                 1.0643
 Frc consts  --      5.9677                 5.9363                 5.9551
 IR Inten    --     18.0011                42.9699                31.2497

                     76                     77                     78
                      A                      A                      A
 Frequencies --   3104.1262              3118.6585              3120.3999
 Red. masses --      1.0991                 1.0942                 1.1058
 Frc consts  --      6.2398                 6.2701                 6.3438
 IR Inten    --     18.3606                31.6827                16.0042

                     79                     80                     81
                      A                      A                      A
 Frequencies --   3132.2258              3138.4905              3147.4131
 Red. masses --      1.1040                 1.0534                 1.1003
 Frc consts  --      6.3814                 6.1136                 6.4222
 IR Inten    --     45.4299                15.9756                15.9553

                     82                     83                     84
                      A                      A                      A
 Frequencies --   3155.4077              3173.2525              3213.6389
 Red. masses --      1.0582                 1.0891                 1.1179
 Frc consts  --      6.2074                 6.4613                 6.8020
 IR Inten    --     29.8116                 5.4462                 5.4658

                     85                     86                     87
                      A                      A                      A
 Frequencies --   3237.3403              3514.4137              3721.5844
 Red. masses --      1.1154                 1.0736                 1.0653
 Frc consts  --      6.8877                 7.8129                 8.6931
 IR Inten    --     18.3137                 0.6909                88.9499

 - Thermochemistry -
 -------------------
 Temperature   298.150 Kelvin.  Pressure   1.00000 Atm.
 Atom     1 has atomic number  6 and mass  12.00000

 Molecular mass:   169.14666 amu.
 Principal axes and moments of inertia in atomic units:
                           1         2         3
     Eigenvalues --  1092.451773059.231833502.80212
           X            0.99999   0.00059  -0.00452
           Y           -0.00061   0.99999  -0.00363
           Z            0.00451   0.00363   0.99998
 This molecule is an asymmetric top.
 Rotational symmetry number  1.
 Warning -- assumption of classical behavior for rotation
           may cause significant error
 Rotational temperatures (Kelvin)      0.07928     0.02831     0.02473
 Rotational constants (GHZ):           1.65201     0.58993     0.51523
 Zero-point vibrational energy     744773.4 (Joules/Mol)
                                  178.00513 (Kcal/Mol)
 Warning -- explicit consideration of  17 degrees of freedom as
           vibrations may cause significant error
 Vibrational temperatures:     69.24    79.54   124.75   177.48   202.10
          (Kelvin)            244.70   340.83   347.75   370.75   426.14
                              469.84   496.47   582.47   682.92   705.03
                              763.78   787.33   894.63   964.59  1016.69
                             1091.66  1135.77  1168.59  1212.63  1231.80
                             1286.16  1295.95  1308.59  1337.24  1375.01
                             1399.11  1456.32  1489.76  1509.75  1517.99
                             1524.15  1555.34  1567.98  1605.40  1659.27
                             1686.71  1715.69  1726.99  1747.17  1750.40
                             1784.53  1787.87  1804.79  1844.56  1907.29
                             1919.34  1937.83  1948.84  1970.21  1973.37
                             1994.55  2033.10  2036.65  2073.93  2079.63
                             2147.79  2171.19  2180.42  2187.97  2204.05
                             2211.16  2216.31  2218.40  4258.40  4301.24
                             4386.41  4403.46  4413.53  4426.73  4433.92
                             4466.15  4487.05  4489.56  4506.57  4515.59
                             4528.43  4539.93  4565.60  4623.71  4657.81
                             5056.46  5354.53

 Zero-point correction=                           0.283669 (Hartree/Particle)
 Thermal correction to Energy=                    0.296289
 Thermal correction to Enthalpy=                  0.297233
 Thermal correction to Gibbs Free Energy=         0.244769
 Sum of electronic and zero-point Energies=           -522.193386
 Sum of electronic and thermal Energies=              -522.180766
 Sum of electronic and thermal Enthalpies=            -522.179822
 Sum of electronic and thermal Free Energies=         -522.232286

                     E (Thermal)             CV                S
                      KCal/Mol        Cal/Mol-Kelvin    Cal/Mol-Kelvin
 Total                  185.924             49.083            110.422
 Electronic               0.000              0.000              0.000
 Translational            0.889              2.981             41.285
 Rotational               0.889              2.981             30.838
 Vibrational            184.147             43.121             38.299
 Vibration     1          0.595              1.978              4.893
 Vibration     2          0.596              1.975              4.619
 Vibration     3          0.601              1.958              3.733
 Vibration     4          0.610              1.930              3.047
 Vibration     5          0.615              1.913              2.798
 Vibration     6          0.625              1.879              2.435
 Vibration     7          0.656              1.784              1.826
 Vibration     8          0.658              1.776              1.790
 Vibration     9          0.667              1.750              1.677
 Vibration    10          0.690              1.681              1.438
 Vibration    11          0.710              1.622              1.277
 Vibration    12          0.723              1.585              1.189
 Vibration    13          0.770              1.460              0.945
 Vibration    14          0.831              1.306              0.725
 Vibration    15          0.846              1.272              0.684
 Vibration    16          0.886              1.182              0.585
 Vibration    17          0.902              1.146              0.550

 Optimization completed.
    -- Stationary point found.
 Normal termination of Gaussian 16 at Wed Dec  9 18:20:46 2020.

 ----------------------------------------------------------------------
 # B3LYP/6-311++G(d,p) empiricaldispersion=gd3bj scf=xqc pop=npa geom=c
 heck
 ----------------------------------------------------------------------

 --------------------------------------
 CID_60883952_JID_2858_Energie_neutraal
 --------------------------------------
 Structure from the checkpoint file:  "JID_2858.chk"
 Charge =  0 Multiplicity = 1

 SCF Done:  E(RB3LYP) =  -522.634129887     A.U. after   13 cycles
 Normal termination of Gaussian 16 at Wed Dec  9 18:24:22 2020.

 ----------------------------------------------------------------------
 # B3LYP/6-311++G(d,p) empiricaldispersion=gd3bj scf=xqc pop=npa geom=c
 heck
 ----------------------------------------------------------------------

 ------------------------------------
 CID_60883952_JID_2858_Energie_kation
 ------------------------------------
 Structure from the checkpoint file:  "JID_2858.chk"
 Charge =  1 Multiplicity = 2

 SCF Done:  E(UB3LYP) =  -522.345425498     A.U. after   19 cycles
 Normal termination of Gaussian 16 at Wed Dec  9 18:31:12 2020.
 Gaussian 16:  ES64L-G16RevA.03 25-Dec-2016

 ----------------------------------------------------------------------
 # B3LYP/6-311++G(d,p) empiricaldispersion=gd3bj scf=xqc pop=npa geom=c
 heck
 ----------------------------------------------------------------------

 -----------------------------------
 CID_60883952_JID_2858_Energie_anion
 -----------------------------------
 Structure from the checkpoint file:  "JID_2858.chk"
 Charge = -1 Multiplicity = 2

                         Standard orientation:
 ---------------------------------------------------------------------
 Center     Atomic      Atomic             Coordinates (Angstroms)
 Number     Number       Type             X           Y           Z
 ---------------------------------------------------------------------
      1          6           0        2.524371   -1.722081   -0.431302
      2          6           0        1.336867   -0.933011    0.133344
      3          6           0        1.702982    0.483612    0.594078
      4          6           0        3.102446    0.935585    0.918013
      5          6           0        2.421377    1.452366   -0.326924
      6          7           0        0.256096   -0.999165   -0.853625
      7          6           0       -1.145998   -0.758179   -0.533754
      8          6           0       -1.563794   -0.972086    0.927013
      9          6           0       -3.022462   -0.473585    0.943011
     10          6           0       -3.099595    0.631142   -0.152946
     11          6           0       -1.728914    0.641690   -0.850800
     12          8           0       -0.959889    1.694370   -0.277317
     13          1           0        2.950655   -1.233254   -1.316933
     14          1           0        2.181589   -2.714256   -0.734763
     15          1           0        3.323060   -1.836814    0.307313
     16          1           0        0.982176   -1.475617    1.016546
     17          1           0        0.929142    0.938353    1.206624
     18          1           0        3.235575    1.620051    1.751172
     19          1           0        3.923633    0.239295    0.782697
     20          1           0        2.783463    1.081383   -1.282668
     21          1           0        2.103541    2.491902   -0.348823
     22          1           0        0.527905   -0.558907   -1.728465
     23          1           0       -1.743986   -1.461323   -1.139478
     24          1           0       -0.951489   -0.350139    1.587324
     25          1           0       -1.461259   -2.012549    1.250575
     26          1           0       -3.316450   -0.102801    1.929113
     27          1           0       -3.701384   -1.297878    0.696979
     28          1           0       -3.288441    1.623979    0.263542
     29          1           0       -3.899167    0.419199   -0.869846
     30          1           0       -1.816676    0.794625   -1.938869
     31          1           0       -0.039133    1.561228   -0.556518
 ---------------------------------------------------------------------

 SCF Done:  E(UB3LYP) =  -522.616729920     A.U. after   30 cycles

 The electronic state is 2-A.
 Alpha  occ. eigenvalues --  -19.01274 -14.18910 -10.10874 -10.10240 -10.09159
 Alpha  occ. eigenvalues --  -10.07675 -10.07406 -10.07377 -10.06467 -10.06203
 Alpha  occ. eigenvalues --  -10.06112 -10.05467  -0.91804  -0.80471  -0.75840
 Alpha  occ. eigenvalues --   -0.71724  -0.64465  -0.60581  -0.57941  -0.54338
 Alpha  occ. eigenvalues --   -0.50570  -0.48137  -0.46573  -0.44734  -0.40932
 Alpha  occ. eigenvalues --   -0.40544  -0.39623  -0.38357  -0.36220  -0.34468
 Alpha  occ. eigenvalues --   -0.32567  -0.31145  -0.29710  -0.28610  -0.27172
 Alpha  occ. eigenvalues --   -0.26796  -0.26110  -0.25515  -0.24982  -0.24192
 Alpha  occ. eigenvalues --   -0.23766  -0.22502  -0.21451  -0.20195  -0.19005
 Alpha  occ. eigenvalues --   -0.17080  -0.11019   0.04729
 Alpha virt. eigenvalues --    0.06606   0.07221   0.07812   0.08801   0.09024
 Alpha virt. eigenvalues --    0.09389   0.10254   0.10423   0.11425   0.11664
 Alpha virt. eigenvalues --    0.12134   0.12505   0.12542   0.13972   0.14413

  Beta  occ. eigenvalues --  -19.01266 -14.18894 -10.10859 -10.10236 -10.09149
  Beta  occ. eigenvalues --  -10.07673 -10.07383 -10.07348 -10.06450 -10.06191
  Beta  occ. eigenvalues --  -10.06100 -10.05433  -0.91788  -0.80446  -0.75821
  Beta  occ. eigenvalues --   -0.71694  -0.64433  -0.60545  -0.57893  -0.54291
  Beta  occ. eigenvalues --   -0.50489  -0.48100  -0.46534  -0.44686  -0.40900
  Beta  occ. eigenvalues --   -0.40512  -0.39571  -0.38320  -0.36179  -0.34429
  Beta  occ. eigenvalues --   -0.32537  -0.31112  -0.29675  -0.28586  -0.27140
  Beta  occ. eigenvalues --   -0.26766  -0.26077  -0.25481  -0.24947  -0.24163
  Beta  occ. eigenvalues --   -0.23730  -0.22478  -0.21422  -0.20168  -0.18979
  Beta  occ. eigenvalues --   -0.17055  -0.10998
  Beta virt. eigenvalues --    0.06913   0.07526   0.07904   0.08386   0.09363
  Beta virt. eigenvalues --    0.09446   0.09808   0.10664   0.10835   0.11947
  Beta virt. eigenvalues --    0.12020   0.12479   0.12773   0.12933   0.14446

 Mulliken charges and spin densities:
               1          2
     1  C    1.529320  -2.115484
     2  C    0.126168  -0.675419
     3  C   -1.932880   2.211231
     4  C    0.513466  -0.969590
     5  C    0.485859  -1.013962
     6  N    0.053598   0.012249
     7  C   -1.687442   1.745990
     8  C    0.486660  -0.634176
     9  C    0.640398  -1.197400
    10  C   -0.238599  -0.174263
    11  C    1.082794  -1.434181
    12  O   -0.160222  -0.021752
    13  H   -0.335422   0.490933
    14  H    0.039178   0.133234
    15  H   -0.191166   0.320455
    16  H    0.006326   0.145938
    17  H    0.179614   0.098860
    18  H   -0.241626   0.379777
    19  H   -0.188729   0.334672
    20  H   -0.186281   0.362702
    21  H   -0.143530   0.292013
    22  H   -0.048204   0.289299
    23  H   -0.537373   0.744087
    24  H    0.060520   0.073746
    25  H   -0.076044   0.258284
    26  H    0.018082   0.118459
    27  H   -0.221261   0.371111
    28  H    0.133774   0.008838
    29  H   -0.145954   0.292869
    30  H   -0.358984   0.554053
    31  H    0.337961  -0.002571
 Sum of Mulliken charges =  -1.00000   1.00000

 Dipole moment (field-independent basis, Debye):
    X=             -1.0068    Y=              1.3249    Z=              3.0191  Tot=              3.4473
 Quadrupole moment (field-independent basis, Debye-Ang):
   XX=           -146.1759   YY=           -119.3889   ZZ=           -112.1756
   XY=             -5.2069   XZ=             -1.3735   YZ=             -1.2771

 Summary of Natural Population Analysis:

                                       Natural Population
                Natural  -----------------------------------------------
    Atom  No    Charge         Core      Valence    Rydberg      Total
 -----------------------------------------------------------------------
      C    1   -0.28748      0.99965     2.28142    0.00641     3.28748
      C    2   -0.00988      0.99957     1.99712    0.01319     3.00988
      C    3   -0.13022      0.99957     2.11997    0.01068     3.13022
      C    4   -0.19457      0.99961     2.18602    0.00895     3.19457
      C    5   -0.21177      0.99962     2.20196    0.01019     3.21177
      N    6   -0.34974      0.99972     2.83657    0.01345     3.84974
      C    7   -0.01477      0.99955     2.00078    0.01444     3.01477
      C    8   -0.19607      0.99961     2.18809    0.00836     3.19607
      C    9   -0.19046      0.99964     2.18303    0.00779     3.19046
      C   10   -0.19969      0.99962     2.19104    0.00902     3.19969
      C   11    0.06118      0.99953     1.92447    0.01482     2.93882
      O   12   -0.38209      0.99989     3.37562    0.00659     4.38209
      H   13    0.09733      0.00000     0.40123    0.00144     0.40267
      H   14    0.10690      0.00000     0.39177    0.00133     0.39310
      H   15    0.09830      0.00000     0.40055    0.00114     0.40170
      H   16    0.09584      0.00000     0.40216    0.00200     0.40416
      H   17    0.10927      0.00000     0.38905    0.00168     0.39073
      H   18    0.10128      0.00000     0.39783    0.00089     0.39872
      H   19    0.10424      0.00000     0.39463    0.00113     0.39576
      H   20    0.10508      0.00000     0.39336    0.00156     0.39492
      H   21    0.10315      0.00000     0.39584    0.00100     0.39685
      H   22    0.17640      0.00000     0.32027    0.00333     0.32360
      H   23    0.09275      0.00000     0.40506    0.00220     0.40725
      H   24    0.09721      0.00000     0.40093    0.00186     0.40279
      H   25    0.10249      0.00000     0.39634    0.00117     0.39751
      H   26    0.09632      0.00000     0.40285    0.00083     0.40368
      H   27    0.09741      0.00000     0.40102    0.00156     0.40259
      H   28    0.10453      0.00000     0.39430    0.00117     0.39547
      H   29    0.10133      0.00000     0.39747    0.00120     0.39867
      H   30    0.07959      0.00000     0.41855    0.00187     0.42041
      H   31    0.23615      0.00000     0.26008    0.00377     0.26385
 =======================================================================
   * Total *   -0.00000     11.99558    34.84938    0.15504    47.00000

 Normal termination of Gaussian 16 at Wed Dec  9 18:42:05 2020.
