 Gaussian 16, Revision A.03,

 ----------------------------------------------------------------------
 # opt=(cartesian,calcfc) freq B3LYP/6-31G(d) empiricaldispersion=gd3bj
  scf=xqc
 ----------------------------------------------------------------------

 -------------------------------
 CID_142928989_JID_2871_neutraal
 -------------------------------
 Symbolic Z-matrix:
 Charge =  0 Multiplicity = 1

 SCF Done:  E(RB3LYP) =  -469.392374896     A.U. after   13 cycles
 SCF Done:  E(RB3LYP) =  -469.393041681     A.U. after   10 cycles
 SCF Done:  E(RB3LYP) =  -469.393773058     A.U. after   11 cycles
 SCF Done:  E(RB3LYP) =  -469.393820904     A.U. after   11 cycles
 SCF Done:  E(RB3LYP) =  -469.393774552     A.U. after   11 cycles
 SCF Done:  E(RB3LYP) =  -469.393894954     A.U. after   10 cycles
 SCF Done:  E(RB3LYP) =  -469.393896911     A.U. after   10 cycles
 SCF Done:  E(RB3LYP) =  -469.393934358     A.U. after   10 cycles
 SCF Done:  E(RB3LYP) =  -469.393919862     A.U. after    9 cycles
 SCF Done:  E(RB3LYP) =  -469.393953606     A.U. after   10 cycles
 SCF Done:  E(RB3LYP) =  -469.394251286     A.U. after    7 cycles
 SCF Done:  E(RB3LYP) =  -469.394251286     A.U. after    6 cycles
 SCF Done:  E(RB3LYP) =  -469.394251292     A.U. after    7 cycles
 SCF Done:  E(RB3LYP) =  -469.394251102     A.U. after    7 cycles
 SCF Done:  E(RB3LYP) =  -469.394251307     A.U. after    6 cycles
 Optimization completed.
    -- Stationary point found.
 Normal termination of Gaussian 16 at Mon Dec 21 15:08:33 2020.

 --------------------------------------------------------------------
 #N Geom=AllCheck Guess=TCheck SCRF=Check GenChk RB3LYP/6-31G(d) Freq
 --------------------------------------------------------------------

 Structure from the checkpoint file:  "JID_2871.chk"
 -------------------------------
 CID_142928989_JID_2871_neutraal
 -------------------------------
 Charge =  0 Multiplicity = 1

 SCF Done:  E(RB3LYP) =  -469.394251307     A.U. after    1 cycles

  Exact polarizability: 165.884   3.881 124.318   9.019  12.288  90.729
 Approx polarizability: 216.093  -3.203 194.423  20.082  27.655 132.473

 ******    1 imaginary frequencies (negative Signs) ******

                      1                      2                      3
                      A                      A                      A
 Frequencies --    -15.2734                18.3962                29.9490
 Red. masses --      1.1020                 2.8819                 2.7652
 Frc consts  --      0.0002                 0.0006                 0.0015
 IR Inten    --      0.0087                 0.0068                 0.0019

                      4                      5                      6
                      A                      A                      A
 Frequencies --     36.2784                52.9922                61.3218
 Red. masses --      2.5418                 2.5605                 1.1220
 Frc consts  --      0.0020                 0.0042                 0.0025
 IR Inten    --      0.0173                 0.0034                 0.0607

                      7                      8                      9
                      A                      A                      A
 Frequencies --     64.7778                72.4551                86.9789
 Red. masses --      3.3303                 2.9359                 1.0453
 Frc consts  --      0.0082                 0.0091                 0.0047
 IR Inten    --      0.2759                 0.0503                 0.0278

                     10                     11                     12
                      A                      A                      A
 Frequencies --    105.2699               148.8362               218.5778
 Red. masses --      2.3397                 2.1919                 1.2072
 Frc consts  --      0.0153                 0.0286                 0.0340
 IR Inten    --      0.1255                 0.0334                 0.0269

                     13                     14                     15
                      A                      A                      A
 Frequencies --    248.2339               262.3262               324.6509
 Red. masses --      1.6835                 1.7748                 1.8862
 Frc consts  --      0.0611                 0.0720                 0.1171
 IR Inten    --      0.4152                 0.0345                 0.2527

                     16                     17                     18
                      A                      A                      A
 Frequencies --    362.1014               396.2504               407.9562
 Red. masses --      3.1398                 2.4390                 2.5082
 Frc consts  --      0.2426                 0.2256                 0.2459
 IR Inten    --      0.2799                 0.0509                 0.3187

                     19                     20                     21
                      A                      A                      A
 Frequencies --    418.4578               525.7896               572.1809
 Red. masses --      3.0295                 3.2395                 2.4154
 Frc consts  --      0.3126                 0.5277                 0.4659
 IR Inten    --      0.0114                 0.4154                11.7057

                     22                     23                     24
                      A                      A                      A
 Frequencies --    660.6918               706.2199               750.9732
 Red. masses --      6.5550                 2.4543                 3.0581
 Frc consts  --      1.6859                 0.7212                 1.0161
 IR Inten    --      0.0649                 2.2492                 0.4376

                     25                     26                     27
                      A                      A                      A
 Frequencies --    794.7613               800.2484               830.0660
 Red. masses --      1.6785                 1.1624                 2.2999
 Frc consts  --      0.6247                 0.4386                 0.9336
 IR Inten    --      4.3087                 0.6291                10.4230

                     28                     29                     30
                      A                      A                      A
 Frequencies --    856.6318               859.7555               882.8791
 Red. masses --      1.2751                 1.7972                 2.2966
 Frc consts  --      0.5513                 0.7827                 1.0547
 IR Inten    --      1.2130                14.9604                 1.7561

                     31                     32                     33
                      A                      A                      A
 Frequencies --    908.5925               958.9134               964.1711
 Red. masses --      1.4137                 1.3410                 1.3033
 Frc consts  --      0.6876                 0.7265                 0.7139
 IR Inten    --      0.8279                 0.1763                 0.1293

                     34                     35                     36
                      A                      A                      A
 Frequencies --    981.7121              1043.4849              1054.6087
 Red. masses --      2.3485                 2.8531                 1.9818
 Frc consts  --      1.3335                 1.8304                 1.2987
 IR Inten    --      1.8860                 1.3954                 0.8785

                     37                     38                     39
                      A                      A                      A
 Frequencies --   1070.6248              1093.8504              1100.0172
 Red. masses --      1.5045                 1.9039                 1.5686
 Frc consts  --      1.0160                 1.3422                 1.1183
 IR Inten    --      1.4341                12.0387                 0.7271

                     40                     41                     42
                      A                      A                      A
 Frequencies --   1117.6237              1157.4354              1219.7775
 Red. masses --      1.6566                 1.3031                 1.1273
 Frc consts  --      1.2192                 1.0285                 0.9882
 IR Inten    --      1.1865                 4.2476                 0.0814

                     43                     44                     45
                      A                      A                      A
 Frequencies --   1236.6819              1243.3297              1252.5646
 Red. masses --      3.9287                 1.9567                 1.4344
 Frc consts  --      3.5401                 1.7821                 1.3259
 IR Inten    --      0.4994                 3.1085                 0.8962

                     46                     47                     48
                      A                      A                      A
 Frequencies --   1287.2843              1306.4865              1358.9321
 Red. masses --      1.3329                 1.2407                 1.5246
 Frc consts  --      1.3014                 1.2478                 1.6588
 IR Inten    --      0.0830                 1.7540                 0.2666

                     49                     50                     51
                      A                      A                      A
 Frequencies --   1367.9065              1370.1803              1371.7638
 Red. masses --      2.0469                 1.2924                 1.1898
 Frc consts  --      2.2567                 1.4296                 1.3192
 IR Inten    --      8.2752                26.5684                14.5431

                     52                     53                     54
                      A                      A                      A
 Frequencies --   1372.1805              1373.2237              1385.5580
 Red. masses --      1.1838                 1.5068                 1.4144
 Frc consts  --      1.3133                 1.6741                 1.5998
 IR Inten    --     16.0864                 4.9794                 2.6136

                     55                     56                     57
                      A                      A                      A
 Frequencies --   1393.7900              1435.0861              1442.7777
 Red. masses --      1.3939                 1.2202                 1.2691
 Frc consts  --      1.5954                 1.4806                 1.5564
 IR Inten    --      8.4275                 1.2379                 7.3166

                     58                     59                     60
                      A                      A                      A
 Frequencies --   1470.3010              1515.5055              1517.8725
 Red. masses --      2.5476                 1.0803                 1.0641
 Frc consts  --      3.2449                 1.4619                 1.4444
 IR Inten    --      5.0320                 1.5938                 0.6230

                     61                     62                     63
                      A                      A                      A
 Frequencies --   1519.3899              1525.7657              1530.9566
 Red. masses --      1.0805                 1.0411                 1.0545
 Frc consts  --      1.4696                 1.4279                 1.4563
 IR Inten    --      1.5229                 7.2388                 2.7422

                     64                     65                     66
                      A                      A                      A
 Frequencies --   1537.4255              1538.3916              1567.7226
 Red. masses --      1.0642                 1.0812                 2.4846
 Frc consts  --      1.4820                 1.5077                 3.5979
 IR Inten    --      3.6209                 2.5067                17.1210

                     67                     68                     69
                      A                      A                      A
 Frequencies --   1589.8408              1590.8380              1633.7616
 Red. masses --      1.0107                 1.0081                 6.0676
 Frc consts  --      1.5052                 1.5032                 9.5421
 IR Inten    --      1.3535                 0.0461                 0.0784

                     70                     71                     72
                      A                      A                      A
 Frequencies --   1678.3598              3034.1437              3042.6257
 Red. masses --      5.8609                 1.0608                 1.0597
 Frc consts  --      9.7271                 5.7537                 5.7800
 IR Inten    --      0.0474                23.8877                51.5734

                     73                     74                     75
                      A                      A                      A
 Frequencies --   3043.5186              3046.0732              3047.5078
 Red. masses --      1.0598                 1.0398                 1.0346
 Frc consts  --      5.7837                 5.6842                 5.6613
 IR Inten    --     25.3116                20.5883                36.0286

                     76                     77                     78
                      A                      A                      A
 Frequencies --   3052.4150              3068.4701              3077.8423
 Red. masses --      1.0082                 1.1009                 1.1038
 Frc consts  --      5.5346                 6.1070                 6.1609
 IR Inten    --      0.4188                33.8049                10.4879

                     79                     80                     81
                      A                      A                      A
 Frequencies --   3085.5879              3109.4225              3117.3909
 Red. masses --      1.1019                 1.1008                 1.1027
 Frc consts  --      6.1812                 6.2708                 6.3140
 IR Inten    --     30.6076                58.1253                52.4395

                     82                     83                     84
                      A                      A                      A
 Frequencies --   3122.1818              3126.0451              3160.7836
 Red. masses --      1.1034                 1.1019                 1.1016
 Frc consts  --      6.3375                 6.3443                 6.4845
 IR Inten    --     34.5633                42.8873                19.7064

                     85                     86                     87
                      A                      A                      A
 Frequencies --   3162.6272              3163.7766              3165.5555
 Red. masses --      1.1018                 1.1015                 1.0863
 Frc consts  --      6.4930                 6.4958                 6.4135
 IR Inten    --     37.1109                23.7325                15.3804

                     88                     89                     90
                      A                      A                      A
 Frequencies --   3171.4857              3183.6592              3198.5553
 Red. masses --      1.0879                 1.0941                 1.0925
 Frc consts  --      6.4472                 6.5337                 6.5855
 IR Inten    --     18.9565                27.9749                10.8628

 - Thermochemistry -
 -------------------
 Temperature   298.150 Kelvin.  Pressure   1.00000 Atm.
 Atom     1 has atomic number  6 and mass  12.00000

 Molecular mass:   164.15650 amu.
 Principal axes and moments of inertia in atomic units:
                           1         2         3
     Eigenvalues --  1434.442294097.217064934.95168
           X            0.99992  -0.01254  -0.00250
           Y            0.01253   0.99990  -0.00619
           Z            0.00258   0.00616   0.99998
 This molecule is an asymmetric top.
 Rotational symmetry number  1.
 Warning -- assumption of classical behavior for rotation
           may cause significant error
 Rotational temperatures (Kelvin)      0.06038     0.02114     0.01755
 Rotational constants (GHZ):           1.25815     0.44048     0.36571
    1 imaginary frequencies ignored.
 Zero-point vibrational energy     758554.2 (Joules/Mol)
                                  181.29881 (Kcal/Mol)
 Warning -- explicit consideration of  20 degrees of freedom as
           vibrations may cause significant error
 Vibrational temperatures:     26.47    43.09    52.20    76.24    88.23
          (Kelvin)             93.20   104.25   125.14   151.46   214.14
                              314.48   357.15   377.43   467.10   520.98
                              570.12   586.96   602.07   756.49   823.24
                              950.59  1016.09  1080.48  1143.48  1151.38
                             1194.28  1232.50  1237.00  1270.27  1307.26
                             1379.66  1387.23  1412.46  1501.34  1517.35
                             1540.39  1573.81  1582.68  1608.01  1665.29
                             1754.99  1779.31  1788.87  1802.16  1852.11
                             1879.74  1955.20  1968.11  1971.38  1973.66
                             1974.26  1975.76  1993.51  2005.35  2064.77
                             2075.84  2115.44  2180.47  2183.88  2186.06
                             2195.24  2202.71  2212.01  2213.40  2255.60
                             2287.43  2288.86  2350.62  2414.79  4365.46
                             4377.66  4378.94  4382.62  4384.68  4391.74
                             4414.84  4428.33  4439.47  4473.77  4485.23
                             4492.12  4497.68  4547.66  4550.32  4551.97
                             4554.53  4563.06  4580.58  4602.01

 Zero-point correction=                           0.288918 (Hartree/Particle)
 Thermal correction to Energy=                    0.304592
 Thermal correction to Enthalpy=                  0.305536
 Thermal correction to Gibbs Free Energy=         0.242166
 Sum of electronic and zero-point Energies=           -469.105333
 Sum of electronic and thermal Energies=              -469.089660
 Sum of electronic and thermal Enthalpies=            -469.088716
 Sum of electronic and thermal Free Energies=         -469.152085

                     E (Thermal)             CV                S
                      KCal/Mol        Cal/Mol-Kelvin    Cal/Mol-Kelvin
 Total                  191.134             53.469            133.372
 Electronic               0.000              0.000              0.000
 Translational            0.889              2.981             41.195
 Rotational               0.889              2.981             31.739
 Vibrational            189.357             47.508             60.438
 Vibration     1          0.593              1.986              6.800
 Vibration     2          0.594              1.984              5.833
 Vibration     3          0.594              1.982              5.453
 Vibration     4          0.596              1.976              4.702
 Vibration     5          0.597              1.973              4.414
 Vibration     6          0.597              1.971              4.306
 Vibration     7          0.599              1.967              4.086
 Vibration     8          0.601              1.958              3.727
 Vibration     9          0.605              1.945              3.354
 Vibration    10          0.618              1.904              2.687
 Vibration    11          0.646              1.813              1.971
 Vibration    12          0.662              1.766              1.743
 Vibration    13          0.670              1.742              1.646
 Vibration    14          0.709              1.626              1.287
 Vibration    15          0.736              1.550              1.113
 Vibration    16          0.763              1.478              0.977
 Vibration    17          0.773              1.453              0.934
 Vibration    18          0.781              1.430              0.897
 Vibration    19          0.881              1.193              0.597
 Vibration    20          0.928              1.091              0.500

 Normal termination of Gaussian 16 at Mon Dec 21 15:16:20 2020.

 ----------------------------------------------------------------------
 # B3LYP/6-311++G(d,p) empiricaldispersion=gd3bj scf=xqc pop=npa geom=c
 heck
 ----------------------------------------------------------------------

 ---------------------------------------
 CID_142928989_JID_2871_Energie_neutraal
 ---------------------------------------
 Structure from the checkpoint file:  "JID_2871.chk"
 Charge =  0 Multiplicity = 1

 SCF Done:  E(RB3LYP) =  -469.521949612     A.U. after   14 cycles
 Normal termination of Gaussian 16 at Mon Dec 21 15:20:09 2020.

 ----------------------------------------------------------------------
 # B3LYP/6-311++G(d,p) empiricaldispersion=gd3bj scf=xqc pop=npa geom=c
 heck
 ----------------------------------------------------------------------

 -------------------------------------
 CID_142928989_JID_2871_Energie_kation
 -------------------------------------
 Structure from the checkpoint file:  "JID_2871.chk"
 Charge =  1 Multiplicity = 2

 SCF Done:  E(UB3LYP) =  -469.219232454     A.U. after   20 cycles
 Normal termination of Gaussian 16 at Mon Dec 21 15:27:53 2020.
 Gaussian 16:  ES64L-G16RevA.03 25-Dec-2016

 ----------------------------------------------------------------------
 # B3LYP/6-311++G(d,p) empiricaldispersion=gd3bj scf=xqc pop=npa geom=c
 heck
 ----------------------------------------------------------------------

 ------------------------------------
 CID_142928989_JID_2871_Energie_anion
 ------------------------------------
 Structure from the checkpoint file:  "JID_2871.chk"
 Charge = -1 Multiplicity = 2

                         Standard orientation:
 ---------------------------------------------------------------------
 Center     Atomic      Atomic             Coordinates (Angstroms)
 Number     Number       Type             X           Y           Z
 ---------------------------------------------------------------------
      1          6           0       -3.290041    3.085354   -0.324452
      2          6           0       -2.957993   -0.966006    1.399656
      3          6           0       -2.772351   -1.660066    0.049193
      4          6           0       -1.989546   -0.812177   -0.974734
      5          6           0       -0.568281   -0.527591   -0.546649
      6          6           0       -0.208833    0.695664    0.029895
      7          6           0        1.096094    0.930583    0.462026
      8          6           0        2.086791   -0.048271    0.332494
      9          6           0        1.727386   -1.272469   -0.244835
     10          6           0        0.424194   -1.507545   -0.676171
     11          6           0        3.513748    0.226601    0.747566
     12          6           0        4.349743    0.817955   -0.399426
     13          1           0       -4.132629    3.749133   -0.535583
     14          1           0       -2.824206    2.776250   -1.263947
     15          1           0       -3.646558    2.202889    0.213357
     16          1           0       -2.555237    3.613092    0.289671
     17          1           0       -1.992399   -0.730565    1.859008
     18          1           0       -3.519890   -1.598390    2.095869
     19          1           0       -3.509091   -0.024036    1.285347
     20          1           0       -2.247075   -2.613200    0.195633
     21          1           0       -3.753453   -1.906865   -0.377569
     22          1           0       -1.983294   -1.339887   -1.937132
     23          1           0       -2.522106    0.133031   -1.137244
     24          1           0       -0.961034    1.471473    0.144747
     25          1           0        1.349745    1.890139    0.907780
     26          1           0        2.480438   -2.049531   -0.358121
     27          1           0        0.170177   -2.467510   -1.120908
     28          1           0        3.523614    0.920081    1.597683
     29          1           0        3.982622   -0.702406    1.095372
     30          1           0        3.916969    1.762297   -0.747816
     31          1           0        5.380545    1.009937   -0.080259
     32          1           0        4.377393    0.131875   -1.253262
 ---------------------------------------------------------------------

 SCF Done:  E(UB3LYP) =  -469.506394500     A.U. after   33 cycles
 SCF Done:  E(UB3LYP) =  -469.506394500     a.u. after    1 cycles

 The electronic state is 2-A.
 Alpha  occ. eigenvalues --  -10.08271 -10.08202 -10.07841 -10.07604 -10.07549
 Alpha  occ. eigenvalues --  -10.07521 -10.07495 -10.07442 -10.07351 -10.06816
 Alpha  occ. eigenvalues --  -10.06266 -10.05646  -0.76642  -0.71242  -0.67976
 Alpha  occ. eigenvalues --   -0.64906  -0.63462  -0.60021  -0.58529  -0.53415
 Alpha  occ. eigenvalues --   -0.51424  -0.49509  -0.47054  -0.40121  -0.38423
 Alpha  occ. eigenvalues --   -0.36738  -0.35022  -0.34852  -0.33163  -0.32839
 Alpha  occ. eigenvalues --   -0.32232  -0.30416  -0.29961  -0.29912  -0.29838
 Alpha  occ. eigenvalues --   -0.29213  -0.27963  -0.26617  -0.25939  -0.25133
 Alpha  occ. eigenvalues --   -0.24388  -0.24058  -0.23452  -0.22894  -0.15823
 Alpha  occ. eigenvalues --   -0.14220   0.04266
 Alpha virt. eigenvalues --    0.05695   0.06446   0.07505   0.07787   0.08067
 Alpha virt. eigenvalues --    0.08191   0.08739   0.08994   0.09876   0.10175
 Alpha virt. eigenvalues --    0.10622   0.10717   0.11712   0.11980   0.12412

  Beta  occ. eigenvalues --  -10.08273 -10.08202 -10.07823 -10.07593 -10.07537
  Beta  occ. eigenvalues --  -10.07508 -10.07482 -10.07429 -10.07344 -10.06790
  Beta  occ. eigenvalues --  -10.06246 -10.05593  -0.76629  -0.71220  -0.67948
  Beta  occ. eigenvalues --   -0.64884  -0.63433  -0.59935  -0.58495  -0.53365
  Beta  occ. eigenvalues --   -0.51389  -0.49462  -0.47022  -0.40084  -0.38406
  Beta  occ. eigenvalues --   -0.36702  -0.34988  -0.34828  -0.33135  -0.32809
  Beta  occ. eigenvalues --   -0.32204  -0.30386  -0.29909  -0.29866  -0.29783
  Beta  occ. eigenvalues --   -0.29179  -0.27933  -0.26590  -0.25911  -0.25105
  Beta  occ. eigenvalues --   -0.24364  -0.24031  -0.23429  -0.22867  -0.15807
  Beta  occ. eigenvalues --   -0.14207
  Beta virt. eigenvalues --    0.06207   0.06484   0.07119   0.07776   0.08095
  Beta virt. eigenvalues --    0.08265   0.08845   0.08967   0.09201   0.10088
  Beta virt. eigenvalues --    0.10570   0.10965   0.11313   0.12010   0.12147

 Mulliken charges and spin densities:
               1          2
     1  C    0.507231  -1.087102
     2  C   -0.008347  -0.555309
     3  C   -0.040604  -0.325717
     4  C    0.084679  -0.365961
     5  C    1.638727  -0.567004
     6  C   -0.644151   0.024480
     7  C   -0.621289  -0.046696
     8  C    0.666721   0.222843
     9  C   -0.803630   0.389860
    10  C   -0.274477  -0.021824
    11  C   -0.173354  -0.273199
    12  C    0.921031  -1.554878
    13  H   -0.585340   0.726802
    14  H   -0.190313   0.337205
    15  H   -0.111063   0.263119
    16  H   -0.220364   0.365358
    17  H    0.043556   0.093984
    18  H   -0.159815   0.296206
    19  H    0.125529   0.007205
    20  H    0.123369   0.008088
    21  H   -0.265103   0.400865
    22  H   -0.029484   0.191788
    23  H    0.090094   0.046728
    24  H    0.803763  -0.665677
    25  H   -0.486281   0.679818
    26  H   -0.308755   0.478068
    27  H   -0.341437   0.494548
    28  H   -0.102884   0.246668
    29  H   -0.199652   0.344795
    30  H   -0.082593   0.225406
    31  H   -0.295590   0.420533
    32  H   -0.060176   0.198996
 Sum of Mulliken charges =  -1.00000   1.00000

 Dipole moment (field-independent basis, Debye):
    X=              1.0089    Y=             -3.6417    Z=              0.1163  Tot=              3.7807
 Quadrupole moment (field-independent basis, Debye-Ang):
   XX=           -172.3983   YY=           -133.3224   ZZ=           -108.6709
   XY=             10.7176   XZ=             -1.7313   YZ=              0.6260

 Summary of Natural Population Analysis:

                                       Natural Population
                Natural  -----------------------------------------------
    Atom  No    Charge         Core      Valence    Rydberg      Total
 -----------------------------------------------------------------------
      C    1   -0.40284      0.99971     2.40120    0.00193     3.40284
      C    2   -0.28753      0.99966     2.28342    0.00445     3.28753
      C    3   -0.18370      0.99964     2.17676    0.00730     3.18370
      C    4   -0.19816      0.99960     2.18934    0.00923     3.19816
      C    5   -0.01757      0.99951     2.00801    0.01005     3.01757
      C    6   -0.09969      0.99951     2.09059    0.00960     3.09969
      C    7   -0.09760      0.99951     2.08815    0.00994     3.09760
      C    8   -0.01802      0.99951     2.00852    0.00999     3.01802
      C    9   -0.09861      0.99951     2.08930    0.00980     3.09861
      C   10   -0.09876      0.99951     2.08994    0.00931     3.09876
      C   11   -0.19684      0.99961     2.18837    0.00886     3.19684
      C   12   -0.27818      0.99966     2.27437    0.00415     3.27818
      H   13    0.10140      0.00000     0.39743    0.00117     0.39860
      H   14    0.10071      0.00000     0.39813    0.00116     0.39929
      H   15    0.10002      0.00000     0.39854    0.00144     0.39998
      H   16    0.10137      0.00000     0.39732    0.00131     0.39863
      H   17    0.10096      0.00000     0.39781    0.00123     0.39904
      H   18    0.09702      0.00000     0.40202    0.00095     0.40298
      H   19    0.09603      0.00000     0.40238    0.00158     0.40397
      H   20    0.09274      0.00000     0.40601    0.00125     0.40726
      H   21    0.09454      0.00000     0.40427    0.00118     0.40546
      H   22    0.10083      0.00000     0.39800    0.00117     0.39917
      H   23    0.10106      0.00000     0.39673    0.00221     0.39894
      H   24    0.10297      0.00000     0.39476    0.00227     0.39703
      H   25    0.10062      0.00000     0.39822    0.00115     0.39938
      H   26    0.09942      0.00000     0.39946    0.00112     0.40058
      H   27    0.09811      0.00000     0.40046    0.00143     0.40189
      H   28    0.09923      0.00000     0.39944    0.00133     0.40077
      H   29    0.09885      0.00000     0.39982    0.00134     0.40115
      H   30    0.09764      0.00000     0.40105    0.00131     0.40236
      H   31    0.09713      0.00000     0.40138    0.00149     0.40287
      H   32    0.09682      0.00000     0.40185    0.00133     0.40318
 =======================================================================
   * Total *    0.00000     11.99493    33.88306    0.12202    46.00000

 Normal termination of Gaussian 16 at Mon Dec 21 15:40:44 2020.
