 Gaussian 16, Revision A.03,

 -----------------------------------------------------------
 # opt freq B3LYP/6-31G(d) empiricaldispersion=gd3bj scf=xqc
 -----------------------------------------------------------

 -------------------------------
 CID_131254125_JID_3802_neutraal
 -------------------------------
 Symbolic Z-matrix:
 Charge =  0 Multiplicity = 1

 SCF Done:  E(RB3LYP) =  -967.840405381     A.U. after   16 cycles
 SCF Done:  E(RB3LYP) =  -967.854468661     A.U. after   13 cycles
 SCF Done:  E(RB3LYP) =  -967.856185127     A.U. after   13 cycles
 SCF Done:  E(RB3LYP) =  -967.856417917     A.U. after   12 cycles
 SCF Done:  E(RB3LYP) =  -967.856769125     A.U. after   12 cycles
 SCF Done:  E(RB3LYP) =  -967.856892461     A.U. after   12 cycles
 SCF Done:  E(RB3LYP) =  -967.856934942     A.U. after   11 cycles
 SCF Done:  E(RB3LYP) =  -967.856949009     A.U. after   10 cycles
 SCF Done:  E(RB3LYP) =  -967.856960929     A.U. after   10 cycles
 SCF Done:  E(RB3LYP) =  -967.856967166     A.U. after    9 cycles
 SCF Done:  E(RB3LYP) =  -967.856994420     A.U. after   10 cycles
 SCF Done:  E(RB3LYP) =  -967.856997136     A.U. after    9 cycles
 SCF Done:  E(RB3LYP) =  -967.856998308     A.U. after    8 cycles
 SCF Done:  E(RB3LYP) =  -967.856998392     A.U. after    7 cycles
 Optimization completed.
    -- Stationary point found.
 Normal termination of Gaussian 16 at Mon Dec 14 16:33:23 2020.

 --------------------------------------------------------------------
 #N Geom=AllCheck Guess=TCheck SCRF=Check GenChk RB3LYP/6-31G(d) Freq
 --------------------------------------------------------------------

 Structure from the checkpoint file:  "JID_3802.chk"
 -------------------------------
 CID_131254125_JID_3802_neutraal
 -------------------------------
 Charge =  0 Multiplicity = 1

 SCF Done:  E(RB3LYP) =  -967.856998392     A.U. after    1 cycles

  Exact polarizability: 166.266  -6.553 136.273  -0.003   0.002  55.920
 Approx polarizability: 276.387  -8.221 237.705  -0.009   0.011  88.212

                      1                      2                      3
                      A                      A                      A
 Frequencies --     58.4108                76.2762                87.7057
 Red. masses --      5.2235                 3.2352                 1.2567
 Frc consts  --      0.0105                 0.0111                 0.0057
 IR Inten    --      0.0308                 0.8672                 0.5742

                      4                      5                      6
                      A                      A                      A
 Frequencies --    140.6438               153.3904               177.0042
 Red. masses --      4.1639                 7.1153                 3.8134
 Frc consts  --      0.0485                 0.0986                 0.0704
 IR Inten    --      3.2042                 0.4654                 1.4342

                      7                      8                      9
                      A                      A                      A
 Frequencies --    191.7871               261.3399               317.5058
 Red. masses --      1.0708                 3.9903                 2.8418
 Frc consts  --      0.0232                 0.1606                 0.1688
 IR Inten    --      0.0458                 3.6723                 3.1873

                     10                     11                     12
                      A                      A                      A
 Frequencies --    320.3036               336.6470               350.9619
 Red. masses --      6.3380                 5.8363                 8.6318
 Frc consts  --      0.3831                 0.3897                 0.6264
 IR Inten    --      1.2333                 1.8275                 6.3570

                     13                     14                     15
                      A                      A                      A
 Frequencies --    430.5571               452.7252               479.4430
 Red. masses --      8.1554                 4.6876                 9.6727
 Frc consts  --      0.8908                 0.5661                 1.3100
 IR Inten    --      0.6810                 4.0437                 2.9524

                     16                     17                     18
                      A                      A                      A
 Frequencies --    564.7026               573.9988               629.1444
 Red. masses --      4.2882                 1.2158                 4.7471
 Frc consts  --      0.8057                 0.2360                 1.1071
 IR Inten    --      6.0273                86.8910                 1.2887

                     19                     20                     21
                      A                      A                      A
 Frequencies --    650.0053               685.3321               713.0300
 Red. masses --      4.9968                 4.2580                 5.7965
 Frc consts  --      1.2439                 1.1783                 1.7363
 IR Inten    --      0.4768                58.4396                12.3594

                     22                     23                     24
                      A                      A                      A
 Frequencies --    732.8726               756.0477               780.1976
 Red. masses --      2.2817                 9.3512                 2.1944
 Frc consts  --      0.7221                 3.1493                 0.7870
 IR Inten    --      0.0992                30.6021                43.6021

                     25                     26                     27
                      A                      A                      A
 Frequencies --    834.9830               871.0158               982.1895
 Red. masses --      5.7233                 3.6993                 4.9779
 Frc consts  --      2.3510                 1.6535                 2.8293
 IR Inten    --      5.8278                31.7920                53.4618

                     28                     29                     30
                      A                      A                      A
 Frequencies --   1027.1187              1048.5656              1073.7248
 Red. masses --      1.7568                 4.2476                 1.5134
 Frc consts  --      1.0919                 2.7516                 1.0280
 IR Inten    --     20.7858                13.4590                 2.3296

                     31                     32                     33
                      A                      A                      A
 Frequencies --   1108.1198              1162.1448              1193.6181
 Red. masses --      4.5945                 1.2907                 2.2361
 Frc consts  --      3.3240                 1.0271                 1.8770
 IR Inten    --    137.4264                 0.1352                56.0313

                     34                     35                     36
                      A                      A                      A
 Frequencies --   1201.3814              1223.3868              1309.9347
 Red. masses --      1.8250                 2.4038                 3.1696
 Frc consts  --      1.5519                 2.1197                 3.2044
 IR Inten    --     36.7834               175.4014                20.7128

                     37                     38                     39
                      A                      A                      A
 Frequencies --   1372.6366              1396.4005              1432.4595
 Red. masses --      4.3060                 3.6568                 1.4592
 Frc consts  --      4.7801                 4.2012                 1.7641
 IR Inten    --    108.8980                14.1063                10.9879

                     40                     41                     42
                      A                      A                      A
 Frequencies --   1453.5241              1489.7045              1504.8955
 Red. masses --      4.1720                 1.2211                 1.0417
 Frc consts  --      5.1932                 1.5966                 1.3899
 IR Inten    --    177.9487                16.7530                16.1635

                     43                     44                     45
                      A                      A                      A
 Frequencies --   1506.9842              1520.7543              1534.4361
 Red. masses --      1.3406                 1.0419                 1.1329
 Frc consts  --      1.7938                 1.4196                 1.5716
 IR Inten    --      6.9278                 0.1894                15.5211

                     46                     47                     48
                      A                      A                      A
 Frequencies --   1552.6866              1614.5404              1656.7761
 Red. masses --      3.3154                 8.0960                 8.6809
 Frc consts  --      4.7092                12.4343                14.0392
 IR Inten    --     28.6566                90.6340                54.9151

                     49                     50                     51
                      A                      A                      A
 Frequencies --   1798.7174              3051.8376              3088.4667
 Red. masses --      9.2151                 1.0402                 1.0327
 Frc consts  --     17.5660                 5.7080                 5.8036
 IR Inten    --    461.8916                17.3796                33.8654

                     52                     53                     54
                      A                      A                      A
 Frequencies --   3103.5753              3155.7978              3172.9436
 Red. masses --      1.1011                 1.1060                 1.0981
 Frc consts  --      6.2489                 6.4899                 6.5138
 IR Inten    --     12.0656                10.9861                 3.6531

                     55                     56                     57
                      A                      A                      A
 Frequencies --   3183.1846              3278.5751              3696.8353
 Red. masses --      1.1038                 1.0941                 1.0640
 Frc consts  --      6.5897                 6.9289                 8.5676
 IR Inten    --      8.4844                 1.3414                84.3622

 - Thermochemistry -
 -------------------
 Temperature   298.150 Kelvin.  Pressure   1.00000 Atm.
 Atom     1 has atomic number  6 and mass  12.00000

 Molecular mass:   196.03065 amu.
 Principal axes and moments of inertia in atomic units:
                           1         2         3
     Eigenvalues --  1537.604682972.254784487.28186
           X            0.99965  -0.02646   0.00000
           Y            0.02646   0.99965  -0.00001
           Z           -0.00000   0.00001   1.00000
 This molecule is an asymmetric top.
 Rotational symmetry number  1.
 Warning -- assumption of classical behavior for rotation
           may cause significant error
 Rotational temperatures (Kelvin)      0.05633     0.02914     0.01930
 Rotational constants (GHZ):           1.17374     0.60720     0.40219
 Zero-point vibrational energy     409852.3 (Joules/Mol)
                                   97.95704 (Kcal/Mol)
 Warning -- explicit consideration of  17 degrees of freedom as
           vibrations may cause significant error
 Vibrational temperatures:     84.04   109.74   126.19   202.36   220.69
          (Kelvin)            254.67   275.94   376.01   456.82   460.85
                              484.36   504.96   619.48   651.37   689.81
                              812.48   825.86   905.20   935.21   986.04
                             1025.89  1054.44  1087.78  1122.53  1201.35
                             1253.20  1413.15  1477.79  1508.65  1544.85
                             1594.34  1672.07  1717.35  1728.52  1760.18
                             1884.70  1974.92  2009.11  2060.99  2091.30
                             2143.35  2165.21  2168.21  2188.03  2207.71
                             2233.97  2322.96  2383.73  2587.95  4390.91
                             4443.61  4465.35  4540.49  4565.16  4579.89
                             4717.14  5318.92

 Zero-point correction=                           0.156104 (Hartree/Particle)
 Thermal correction to Energy=                    0.168109
 Thermal correction to Enthalpy=                  0.169053
 Thermal correction to Gibbs Free Energy=         0.117471
 Sum of electronic and zero-point Energies=           -967.700894
 Sum of electronic and thermal Energies=              -967.688889
 Sum of electronic and thermal Enthalpies=            -967.687945
 Sum of electronic and thermal Free Energies=         -967.739527

                     E (Thermal)             CV                S
                      KCal/Mol        Cal/Mol-Kelvin    Cal/Mol-Kelvin
 Total                  105.490             44.283            108.563
 Electronic               0.000              0.000              0.000
 Translational            0.889              2.981             41.724
 Rotational               0.889              2.981             31.395
 Vibrational            103.713             38.321             35.444
 Vibration     1          0.596              1.974              4.510
 Vibration     2          0.599              1.965              3.984
 Vibration     3          0.601              1.958              3.711
 Vibration     4          0.615              1.913              2.795
 Vibration     5          0.619              1.899              2.630
 Vibration     6          0.628              1.871              2.360
 Vibration     7          0.634              1.851              2.210
 Vibration     8          0.669              1.744              1.653
 Vibration     9          0.704              1.640              1.323
 Vibration    10          0.706              1.635              1.309
 Vibration    11          0.717              1.602              1.228
 Vibration    12          0.728              1.573              1.162
 Vibration    13          0.792              1.404              0.857
 Vibration    14          0.811              1.355              0.788
 Vibration    15          0.836              1.296              0.712
 Vibration    16          0.921              1.108              0.515
 Vibration    17          0.930              1.087              0.497

 Optimization completed.
    -- Stationary point found.
 Normal termination of Gaussian 16 at Mon Dec 14 16:38:22 2020.

 ----------------------------------------------------------------------
 # B3LYP/6-311++G(d,p) empiricaldispersion=gd3bj scf=xqc pop=npa geom=c
 heck
 ----------------------------------------------------------------------

 ---------------------------------------
 CID_131254125_JID_3802_Energie_neutraal
 ---------------------------------------
 Structure from the checkpoint file:  "JID_3802.chk"
 Charge =  0 Multiplicity = 1

 SCF Done:  E(RB3LYP) =  -968.045564911     A.U. after   15 cycles
 Normal termination of Gaussian 16 at Mon Dec 14 16:40:24 2020.

 ----------------------------------------------------------------------
 # B3LYP/6-311++G(d,p) empiricaldispersion=gd3bj scf=xqc pop=npa geom=c
 heck
 ----------------------------------------------------------------------

 -------------------------------------
 CID_131254125_JID_3802_Energie_kation
 -------------------------------------
 Structure from the checkpoint file:  "JID_3802.chk"
 Charge =  1 Multiplicity = 2

 SCF Done:  E(UB3LYP) =  -967.751708053     A.U. after   33 cycles
 SCF Done:  E(UB3LYP) =  -967.751708053     a.u. after    1 cycles
 Normal termination of Gaussian 16 at Mon Dec 14 16:46:51 2020.
 Gaussian 16:  ES64L-G16RevA.03 25-Dec-2016

 ----------------------------------------------------------------------
 # B3LYP/6-311++G(d,p) empiricaldispersion=gd3bj scf=xqc pop=npa geom=c
 heck
 ----------------------------------------------------------------------

 ------------------------------------
 CID_131254125_JID_3802_Energie_anion
 ------------------------------------
 Structure from the checkpoint file:  "JID_3802.chk"
 Charge = -1 Multiplicity = 2

                         Standard orientation:
 ---------------------------------------------------------------------
 Center     Atomic      Atomic             Coordinates (Angstroms)
 Number     Number       Type             X           Y           Z
 ---------------------------------------------------------------------
      1          6           0        3.836225   -0.387118   -0.000094
      2          6           0        2.436574    0.129827   -0.000098
      3          7           0        2.126631    1.401492   -0.000065
      4          6           0        0.738848    1.420556   -0.000054
      5          6           0       -0.240055    2.385503    0.000112
      6         16           0       -1.810428    1.670718    0.000110
      7          6           0       -1.172887    0.027976   -0.000134
      8          6           0        0.212260    0.086057   -0.000131
      9          7           0        1.325900   -0.729634   -0.000200
     10          6           0        1.362481   -2.183494    0.000537
     11          6           0       -2.149779   -1.043083   -0.000071
     12          8           0       -3.358178   -0.886764    0.000095
     13          8           0       -1.591275   -2.289967   -0.000315
     14          1           0        4.512328    0.468806    0.000194
     15          1           0        4.045098   -0.998739   -0.885990
     16          1           0        4.044988   -0.999267    0.885456
     17          1           0       -0.123457    3.460160    0.000092
     18          1           0        0.860679   -2.578504    0.886372
     19          1           0        0.859609   -2.579362   -0.884290
     20          1           0        2.402996   -2.508200    0.000046
     21          1           0       -2.349492   -2.902887   -0.000427
 ---------------------------------------------------------------------

 SCF Done:  E(UB3LYP) =  -968.053640280     A.U. after   33 cycles
 SCF Done:  E(UB3LYP) =  -968.053640280     a.u. after    1 cycles

 The electronic state is 2-A.
 Alpha  occ. eigenvalues --  -88.70089 -19.01600 -18.93475 -14.22872 -14.14973
 Alpha  occ. eigenvalues --  -10.12425 -10.09306 -10.09205 -10.06651 -10.04998
 Alpha  occ. eigenvalues --  -10.03398 -10.03097 -10.01536  -7.78702  -5.75025
 Alpha  occ. eigenvalues --   -5.74643  -5.74309  -0.94890  -0.87220  -0.85176
 Alpha  occ. eigenvalues --   -0.75187  -0.70970  -0.63822  -0.60398  -0.57565
 Alpha  occ. eigenvalues --   -0.54602  -0.49043  -0.44523  -0.42000  -0.40993
 Alpha  occ. eigenvalues --   -0.37493  -0.35133  -0.33874  -0.33317  -0.31364
 Alpha  occ. eigenvalues --   -0.29809  -0.29507  -0.28470  -0.28394  -0.26394
 Alpha  occ. eigenvalues --   -0.26203  -0.24214  -0.23331  -0.19160  -0.18396
 Alpha  occ. eigenvalues --   -0.17200  -0.15206  -0.13927  -0.11949  -0.08149
 Alpha  occ. eigenvalues --   -0.06647   0.05339
 Alpha virt. eigenvalues --    0.07319   0.09109   0.10612   0.10648   0.11346
 Alpha virt. eigenvalues --    0.12685   0.12817   0.13256   0.15192   0.15485
 Alpha virt. eigenvalues --    0.15598   0.16527   0.17141   0.17930   0.18332

  Beta  occ. eigenvalues --  -88.70002 -19.01542 -18.93236 -14.22950 -14.14903
  Beta  occ. eigenvalues --  -10.12156 -10.09302 -10.09012 -10.06669 -10.04791
  Beta  occ. eigenvalues --  -10.03502 -10.03013 -10.00953  -7.78624  -5.74986
  Beta  occ. eigenvalues --   -5.74607  -5.74021  -0.94630  -0.87078  -0.84801
  Beta  occ. eigenvalues --   -0.75125  -0.70573  -0.63627  -0.60176  -0.56958
  Beta  occ. eigenvalues --   -0.54353  -0.48480  -0.44333  -0.41660  -0.40836
  Beta  occ. eigenvalues --   -0.37161  -0.34948  -0.33712  -0.33053  -0.31236
  Beta  occ. eigenvalues --   -0.29719  -0.28424  -0.28394  -0.28260  -0.25986
  Beta  occ. eigenvalues --   -0.25867  -0.24017  -0.23044  -0.18124  -0.17989
  Beta  occ. eigenvalues --   -0.16062  -0.14676  -0.13793  -0.11727  -0.06894
  Beta  occ. eigenvalues --   -0.04684
  Beta virt. eigenvalues --    0.07266   0.09063   0.10481   0.10570   0.11332
  Beta virt. eigenvalues --    0.11694   0.12615   0.13154   0.13190   0.15146
  Beta virt. eigenvalues --    0.15476   0.16490   0.16688   0.17156   0.17907

 Mulliken charges and spin densities:
               1          2
     1  C   -0.452267  -0.009378
     2  C    0.065725   0.083159
     3  N   -0.158018   0.033657
     4  C   -0.356554  -0.147444
     5  C    0.228671   0.500439
     6  S   -0.572907   0.123057
     7  C    0.120507   0.053846
     8  C   -0.278721   0.111021
     9  N   -0.035918  -0.036550
    10  C   -0.385322  -0.003484
    11  C    0.197965   0.184309
    12  O   -0.431561   0.085268
    13  O   -0.307830   0.012979
    14  H    0.162003   0.000207
    15  H    0.131785   0.015371
    16  H    0.132240   0.014819
    17  H    0.185525  -0.027258
    18  H    0.186842   0.003499
    19  H    0.186617   0.003775
    20  H    0.108673  -0.000259
    21  H    0.272544  -0.001032
 Sum of Mulliken charges =  -1.00000   1.00000

 Dipole moment (field-independent basis, Debye):
    X=              5.0470    Y=             -4.9803    Z=              0.0022  Tot=              7.0906
 Quadrupole moment (field-independent basis, Debye-Ang):
   XX=           -121.5311   YY=            -94.2917   ZZ=            -90.4287
   XY=             -6.1995   XZ=              0.0107   YZ=             -0.0053

 Summary of Natural Population Analysis:

                                       Natural Population
                Natural  -----------------------------------------------
    Atom  No    Charge         Core      Valence    Rydberg      Total
 -----------------------------------------------------------------------
      C    1   -0.30992      0.99963     2.30632    0.00397     3.30992
      C    2    0.22929      0.99963     1.75293    0.01815     2.77071
      N    3   -0.25655      0.99966     2.74660    0.01029     3.75655
      C    4    0.00195      0.99944     1.98254    0.01607     2.99805
      C    5   -0.07695      0.99951     2.06629    0.01116     3.07695
      S    6    0.24023      4.99948     2.73608    0.02421     7.75977
      C    7   -0.18005      0.99943     2.16839    0.01222     3.18005
      C    8    0.10349      0.99939     1.88633    0.01079     2.89651
      N    9   -0.23210      0.99959     2.72500    0.00752     3.73210
      C   10   -0.16891      0.99965     2.16285    0.00641     3.16891
      C   11    0.40970      0.99959     1.56723    0.02347     2.59030
      O   12   -0.31761      0.99987     3.31081    0.00692     4.31761
      O   13   -0.36509      0.99988     3.35621    0.00900     4.36509
      H   14    0.11239      0.00000     0.38677    0.00084     0.38761
      H   15    0.09866      0.00000     0.40016    0.00118     0.40134
      H   16    0.09864      0.00000     0.40018    0.00118     0.40136
      H   17    0.09443      0.00000     0.40472    0.00085     0.40557
      H   18    0.09870      0.00000     0.39998    0.00132     0.40130
      H   19    0.09875      0.00000     0.39993    0.00132     0.40125
      H   20    0.09027      0.00000     0.40895    0.00077     0.40973
      H   21    0.23069      0.00000     0.26631    0.00300     0.26931
 =======================================================================
   * Total *    0.00000     16.99476    33.83458    0.17066    51.00000

 Normal termination of Gaussian 16 at Mon Dec 14 16:53:12 2020.
