 Gaussian 16, Revision A.03,

 ----------------------------------------------------------------------
 # opt=(cartesian,calcfc) freq B3LYP/6-31G(d) empiricaldispersion=gd3bj
  scf=xqc
 ----------------------------------------------------------------------

 ------------------------------
 CID_15531649_JID_6780_neutraal
 ------------------------------
 Symbolic Z-matrix:
 Charge =  0 Multiplicity = 1

 SCF Done:  E(RB3LYP) =  -977.094236741     A.U. after   15 cycles
 SCF Done:  E(RB3LYP) =  -977.094244339     A.U. after   10 cycles
 SCF Done:  E(RB3LYP) =  -977.094244782     A.U. after    8 cycles
 SCF Done:  E(RB3LYP) =  -977.094245047     A.U. after    7 cycles
 SCF Done:  E(RB3LYP) =  -977.094245126     A.U. after    8 cycles
 SCF Done:  E(RB3LYP) =  -977.094245191     A.U. after    7 cycles
 SCF Done:  E(RB3LYP) =  -977.094245201     A.U. after    6 cycles
 Optimization completed.
    -- Stationary point found.
 Normal termination of Gaussian 16 at Wed Dec 30 15:06:33 2020.

 --------------------------------------------------------------------
 #N Geom=AllCheck Guess=TCheck SCRF=Check GenChk RB3LYP/6-31G(d) Freq
 --------------------------------------------------------------------

 Structure from the checkpoint file:  "JID_6780.chk"
 ------------------------------
 CID_15531649_JID_6780_neutraal
 ------------------------------
 Charge =  0 Multiplicity = 1

 SCF Done:  E(RB3LYP) =  -977.094245201     A.U. after    1 cycles

  Exact polarizability: 234.144  -4.326 194.109  -7.744 -10.953  85.123
 Approx polarizability: 349.225 -11.204 343.716 -16.145 -24.765 141.869

                      1                      2                      3
                      A                      A                      A
 Frequencies --     52.6877                61.9348                74.7653
 Red. masses --      3.4608                 1.0923                 4.2783
 Frc consts  --      0.0057                 0.0025                 0.0141
 IR Inten    --      0.2717                 0.1898                 0.0843

                      4                      5                      6
                      A                      A                      A
 Frequencies --     82.5273               127.8092               198.4035
 Red. masses --      4.3526                 4.2697                 4.4827
 Frc consts  --      0.0175                 0.0411                 0.1040
 IR Inten    --      0.0341                 0.8965                 0.5900

                      7                      8                      9
                      A                      A                      A
 Frequencies --    218.9642               287.5464               289.8751
 Red. masses --      4.3500                 6.0471                 4.0833
 Frc consts  --      0.1229                 0.2946                 0.2022
 IR Inten    --      0.8289                 0.7726                 0.1085

                     10                     11                     12
                      A                      A                      A
 Frequencies --    315.7709               355.3625               391.3861
 Red. masses --      4.5395                 4.5960                 6.5210
 Frc consts  --      0.2667                 0.3420                 0.5885
 IR Inten    --      0.0872                 0.1765                 2.1397

                     13                     14                     15
                      A                      A                      A
 Frequencies --    419.8959               439.0337               470.0909
 Red. masses --      3.0419                 3.3112                 3.9377
 Frc consts  --      0.3160                 0.3760                 0.5127
 IR Inten    --      0.2297                 2.8051                 0.8660

                     16                     17                     18
                      A                      A                      A
 Frequencies --    515.0804               539.1499               585.5782
 Red. masses --      5.0091                 3.8042                 5.3639
 Frc consts  --      0.7830                 0.6515                 1.0837
 IR Inten    --      0.6898                 4.2137                 2.6412

                     19                     20                     21
                      A                      A                      A
 Frequencies --    633.0096               638.8653               651.8467
 Red. masses --      5.4875                 6.9252                 3.9066
 Frc consts  --      1.2955                 1.6653                 0.9780
 IR Inten    --      0.5723                 4.3456                 1.9115

                     22                     23                     24
                      A                      A                      A
 Frequencies --    670.5331               716.1646               740.3919
 Red. masses --      6.2833                 1.9565                 3.7360
 Frc consts  --      1.6645                 0.5912                 1.2066
 IR Inten    --     10.7350                20.9657                 8.9774

                     25                     26                     27
                      A                      A                      A
 Frequencies --    757.7482               775.7925               796.7255
 Red. masses --      4.8631                 1.6573                 1.7067
 Frc consts  --      1.6452                 0.5877                 0.6383
 IR Inten    --      8.1147                39.9413                15.9502

                     28                     29                     30
                      A                      A                      A
 Frequencies --    816.6663               839.0894               863.7900
 Red. masses --      1.3482                 4.4119                 1.2628
 Frc consts  --      0.5298                 1.8302                 0.5551
 IR Inten    --     12.5707                19.4263                 0.3648

                     31                     32                     33
                      A                      A                      A
 Frequencies --    889.0942               910.7828               935.0399
 Red. masses --      5.1250                 1.3701                 1.4071
 Frc consts  --      2.3869                 0.6696                 0.7248
 IR Inten    --      3.9345                 4.6554                 1.1944

                     34                     35                     36
                      A                      A                      A
 Frequencies --    951.2828               973.0671               984.1441
 Red. masses --      1.2865                 1.3415                 2.7443
 Frc consts  --      0.6859                 0.7484                 1.5660
 IR Inten    --      0.2395                 0.6328                 1.0526

                     37                     38                     39
                      A                      A                      A
 Frequencies --    996.5723              1021.4521              1037.1638
 Red. masses --      1.2458                 6.0941                 1.5610
 Frc consts  --      0.7290                 3.7462                 0.9894
 IR Inten    --      0.3756                 0.2491                 4.0232

                     40                     41                     42
                      A                      A                      A
 Frequencies --   1061.1935              1075.8443              1077.4772
 Red. masses --      2.3312                 3.9909                 1.5068
 Frc consts  --      1.5467                 2.7216                 1.0307
 IR Inten    --      5.8494                15.3933                 3.5898

                     43                     44                     45
                      A                      A                      A
 Frequencies --   1112.7140              1163.4970              1189.3457
 Red. masses --      1.5873                 1.7762                 1.4406
 Frc consts  --      1.1579                 1.4167                 1.2006
 IR Inten    --      3.8507                 4.3642                 3.9343

                     46                     47                     48
                      A                      A                      A
 Frequencies --   1194.2158              1216.0582              1233.8407
 Red. masses --      1.0952                 1.1369                 1.8402
 Frc consts  --      0.9203                 0.9905                 1.6505
 IR Inten    --      0.0228                 0.6844                 1.8259

                     49                     50                     51
                      A                      A                      A
 Frequencies --   1256.3623              1305.7762              1330.0035
 Red. masses --      2.3783                 1.5639                 2.9694
 Frc consts  --      2.2118                 1.5710                 3.0947
 IR Inten    --      0.8980                 3.9047                 4.7814

                     52                     53                     54
                      A                      A                      A
 Frequencies --   1359.0720              1368.6385              1382.6052
 Red. masses --      5.5335                 1.9007                 4.0073
 Frc consts  --      6.0220                 2.0977                 4.5134
 IR Inten    --      7.0660                 0.2234                 4.5293

                     55                     56                     57
                      A                      A                      A
 Frequencies --   1443.6786              1469.9109              1491.5848
 Red. masses --      1.2525                 3.0889                 2.7559
 Frc consts  --      1.5380                 3.9322                 3.6125
 IR Inten    --      0.3983                 0.4119                23.8635

                     58                     59                     60
                      A                      A                      A
 Frequencies --   1494.9612              1515.0843              1527.9228
 Red. masses --      2.3745                 1.0444                 1.1698
 Frc consts  --      3.1267                 1.4126                 1.6091
 IR Inten    --      2.3648                 4.8822                 7.6796

                     61                     62                     63
                      A                      A                      A
 Frequencies --   1542.5821              1582.2404              1611.7372
 Red. masses --      2.3859                 4.8932                 6.1573
 Frc consts  --      3.3450                 7.2175                 9.4238
 IR Inten    --     11.0992                13.2792                 2.6019

                     64                     65                     66
                      A                      A                      A
 Frequencies --   1638.5303              1663.7240              1666.4435
 Red. masses --      5.6229                 5.7969                 5.6778
 Frc consts  --      8.8945                 9.4539                 9.2899
 IR Inten    --      1.9319                 8.8184                 7.3495

                     67                     68                     69
                      A                      A                      A
 Frequencies --   3042.8820              3094.0032              3127.3434
 Red. masses --      1.0376                 1.1009                 1.1007
 Frc consts  --      5.6605                 6.2091                 6.3426
 IR Inten    --     39.4476                20.9114                15.7636

                     70                     71                     72
                      A                      A                      A
 Frequencies --   3181.6983              3182.6025              3189.9990
 Red. masses --      1.0877                 1.0848                 1.0878
 Frc consts  --      6.4873                 6.4738                 6.5218
 IR Inten    --     10.9216                 2.6552                 4.1683

                     73                     74                     75
                      A                      A                      A
 Frequencies --   3199.7177              3202.4398              3205.1777
 Red. masses --      1.0910                 1.0914                 1.0941
 Frc consts  --      6.5811                 6.5945                 6.6226
 IR Inten    --     31.4277                10.4624                12.3149

                     76                     77                     78
                      A                      A                      A
 Frequencies --   3208.4816              3214.4203              3262.7501
 Red. masses --      1.0936                 1.0968                 1.0933
 Frc consts  --      6.6333                 6.6773                 6.8577
 IR Inten    --     28.8769                13.2472                 1.8308

 - Thermochemistry -
 -------------------
 Temperature   298.150 Kelvin.  Pressure   1.00000 Atm.
 Atom     1 has atomic number  6 and mass  12.00000

 Molecular mass:   224.06597 amu.
 Principal axes and moments of inertia in atomic units:
                           1         2         3
     Eigenvalues --  2375.875745253.430387307.66761
           X            0.99962   0.02768  -0.00020
           Y           -0.02768   0.99960  -0.00575
           Z            0.00004   0.00576   0.99998
 This molecule is an asymmetric top.
 Rotational symmetry number  1.
 Warning -- assumption of classical behavior for rotation
           may cause significant error
 Rotational temperatures (Kelvin)      0.03646     0.01649     0.01185
 Rotational constants (GHZ):           0.75961     0.34354     0.24697
 Zero-point vibrational energy     586837.9 (Joules/Mol)
                                  140.25764 (Kcal/Mol)
 Warning -- explicit consideration of  18 degrees of freedom as
           vibrations may cause significant error
 Vibrational temperatures:     75.81    89.11   107.57   118.74   183.89
          (Kelvin)            285.46   315.04   413.72   417.07   454.32
                              511.29   563.12   604.14   631.67   676.36
                              741.09   775.72   842.52   910.76   919.18
                              937.86   964.75  1030.40  1065.26  1090.23
                             1116.19  1146.31  1175.00  1207.26  1242.80
                             1279.21  1310.41  1345.31  1368.68  1400.03
                             1415.96  1433.85  1469.64  1492.25  1526.82
                             1547.90  1550.25  1600.95  1674.01  1711.20
                             1718.21  1749.64  1775.22  1807.63  1878.72
                             1913.58  1955.40  1969.17  1989.26  2077.13
                             2114.87  2146.06  2150.92  2179.87  2198.34
                             2219.43  2276.49  2318.93  2357.48  2393.73
                             2397.64  4378.03  4451.58  4499.55  4577.75
                             4579.06  4589.70  4603.68  4607.60  4611.54
                             4616.29  4624.83  4694.37

 Zero-point correction=                           0.223515 (Hartree/Particle)
 Thermal correction to Energy=                    0.236537
 Thermal correction to Enthalpy=                  0.237481
 Thermal correction to Gibbs Free Energy=         0.183035
 Sum of electronic and zero-point Energies=           -976.870730
 Sum of electronic and thermal Energies=              -976.857708
 Sum of electronic and thermal Enthalpies=            -976.856764
 Sum of electronic and thermal Free Energies=         -976.911210

                     E (Thermal)             CV                S
                      KCal/Mol        Cal/Mol-Kelvin    Cal/Mol-Kelvin
 Total                  148.429             51.733            114.592
 Electronic               0.000              0.000              0.000
 Translational            0.889              2.981             42.123
 Rotational               0.889              2.981             32.878
 Vibrational            146.652             45.771             39.591
 Vibration     1          0.596              1.977              4.714
 Vibration     2          0.597              1.972              4.395
 Vibration     3          0.599              1.966              4.024
 Vibration     4          0.600              1.961              3.830
 Vibration     5          0.611              1.925              2.979
 Vibration     6          0.637              1.842              2.148
 Vibration     7          0.647              1.812              1.968
 Vibration     8          0.685              1.697              1.488
 Vibration     9          0.686              1.693              1.475
 Vibration    10          0.703              1.644              1.332
 Vibration    11          0.731              1.564              1.142
 Vibration    12          0.759              1.489              0.995
 Vibration    13          0.783              1.427              0.892
 Vibration    14          0.799              1.385              0.830
 Vibration    15          0.827              1.316              0.737
 Vibration    16          0.870              1.217              0.621
 Vibration    17          0.894              1.163              0.567
 Vibration    18          0.943              1.063              0.475

 Optimization completed.
    -- Stationary point found.
 Normal termination of Gaussian 16 at Wed Dec 30 15:15:09 2020.

 ----------------------------------------------------------------------
 # B3LYP/6-311++G(d,p) empiricaldispersion=gd3bj scf=xqc pop=npa geom=c
 heck
 ----------------------------------------------------------------------

 --------------------------------------
 CID_15531649_JID_6780_Energie_neutraal
 --------------------------------------
 Structure from the checkpoint file:  "JID_6780.chk"
 Charge =  0 Multiplicity = 1

 SCF Done:  E(RB3LYP) =  -977.261690451     A.U. after   16 cycles
 Normal termination of Gaussian 16 at Wed Dec 30 15:18:50 2020.

 ----------------------------------------------------------------------
 # B3LYP/6-311++G(d,p) empiricaldispersion=gd3bj scf=xqc pop=npa geom=c
 heck
 ----------------------------------------------------------------------

 ------------------------------------
 CID_15531649_JID_6780_Energie_kation
 ------------------------------------
 Structure from the checkpoint file:  "JID_6780.chk"
 Charge =  1 Multiplicity = 2

 SCF Done:  E(UB3LYP) =  -976.987327698     A.U. after   28 cycles
 Normal termination of Gaussian 16 at Wed Dec 30 15:27:31 2020.
 Gaussian 16:  ES64L-G16RevA.03 25-Dec-2016

 ----------------------------------------------------------------------
 # B3LYP/6-311++G(d,p) empiricaldispersion=gd3bj scf=xqc pop=npa geom=c
 heck
 ----------------------------------------------------------------------

 -----------------------------------
 CID_15531649_JID_6780_Energie_anion
 -----------------------------------
 Structure from the checkpoint file:  "JID_6780.chk"
 Charge = -1 Multiplicity = 2

                         Standard orientation:
 ---------------------------------------------------------------------
 Center     Atomic      Atomic             Coordinates (Angstroms)
 Number     Number       Type             X           Y           Z
 ---------------------------------------------------------------------
      1          6           0        2.605560    3.260725    0.317174
      2          6           0        2.352794    1.779246    0.174607
      3          6           0        1.057491    1.276191    0.127266
      4          6           0        0.826940   -0.104719   -0.009461
      5          6           0        1.941021   -0.974093   -0.069879
      6          6           0        3.249567   -0.485356   -0.022582
      7          6           0        3.441294    0.883964    0.091660
      8         16           0        1.440171   -2.654532   -0.173633
      9          6           0       -0.239147   -2.175609   -0.136682
     10          6           0       -0.433458   -0.826432   -0.058218
     11          6           0       -1.769986   -0.199872   -0.031340
     12          6           0       -2.786180   -0.723714    0.782969
     13          6           0       -4.057954   -0.154490    0.791655
     14          6           0       -4.336043    0.954890   -0.008428
     15          6           0       -3.333759    1.486068   -0.821715
     16          6           0       -2.063123    0.913860   -0.835350
     17          1           0        3.155628    3.656795   -0.545607
     18          1           0        1.667623    3.818047    0.399866
     19          1           0        3.205775    3.479803    1.208753
     20          1           0        0.212869    1.953346    0.208426
     21          1           0        4.097765   -1.161720   -0.070233
     22          1           0        4.453942    1.278075    0.127289
     23          1           0       -1.008154   -2.932635   -0.213754
     24          1           0       -2.562961   -1.571216    1.424595
     25          1           0       -4.830230   -0.571985    1.431819
     26          1           0       -5.325739    1.402494    0.002386
     27          1           0       -3.543600    2.343818   -1.454789
     28          1           0       -1.295754    1.313731   -1.490687
 ---------------------------------------------------------------------

 SCF Done:  E(UB3LYP) =  -977.252989393     A.U. after   33 cycles
 SCF Done:  E(UB3LYP) =  -977.252989393     a.u. after    1 cycles

 The electronic state is 2-A.
 Alpha  occ. eigenvalues --  -88.72085 -10.06102 -10.05828 -10.04998 -10.04620
 Alpha  occ. eigenvalues --  -10.04599 -10.04072 -10.04057 -10.03865 -10.03802
 Alpha  occ. eigenvalues --  -10.03727 -10.03705 -10.03111 -10.03028 -10.02790
 Alpha  occ. eigenvalues --  -10.02471  -7.80739  -5.77053  -5.76704  -5.76299
 Alpha  occ. eigenvalues --   -0.74905  -0.72416  -0.69516  -0.64622  -0.62408
 Alpha  occ. eigenvalues --   -0.61706  -0.60843  -0.56359  -0.54521  -0.48171
 Alpha  occ. eigenvalues --   -0.47788  -0.46843  -0.43727  -0.41555  -0.38891
 Alpha  occ. eigenvalues --   -0.35221  -0.34204  -0.32914  -0.31904  -0.31654
 Alpha  occ. eigenvalues --   -0.30928  -0.29557  -0.29399  -0.28884  -0.26741
 Alpha  occ. eigenvalues --   -0.25704  -0.24630  -0.24060  -0.23545  -0.22498
 Alpha  occ. eigenvalues --   -0.21409  -0.20063  -0.19574  -0.18783  -0.15232
 Alpha  occ. eigenvalues --   -0.12888  -0.12361  -0.09878  -0.07528   0.06033
 Alpha virt. eigenvalues --    0.07909   0.08334   0.09346   0.09749   0.10256
 Alpha virt. eigenvalues --    0.10401   0.10746   0.11187   0.11455   0.11572
 Alpha virt. eigenvalues --    0.12838   0.13024   0.13143   0.13552   0.14726

  Beta  occ. eigenvalues --  -88.72043 -10.06106 -10.05824 -10.05053 -10.04634
  Beta  occ. eigenvalues --  -10.04604 -10.03986 -10.03904 -10.03817 -10.03761
  Beta  occ. eigenvalues --  -10.03651 -10.03540 -10.02951 -10.02905 -10.02459
  Beta  occ. eigenvalues --  -10.02235  -7.80701  -5.77036  -5.76692  -5.76153
  Beta  occ. eigenvalues --   -0.74666  -0.72222  -0.69256  -0.64359  -0.62173
  Beta  occ. eigenvalues --   -0.61551  -0.60590  -0.55970  -0.54310  -0.47882
  Beta  occ. eigenvalues --   -0.47633  -0.46403  -0.43537  -0.41276  -0.38772
  Beta  occ. eigenvalues --   -0.35075  -0.34040  -0.32755  -0.31760  -0.31554
  Beta  occ. eigenvalues --   -0.30904  -0.29491  -0.29264  -0.28745  -0.26667
  Beta  occ. eigenvalues --   -0.25147  -0.24398  -0.23825  -0.23228  -0.22326
  Beta  occ. eigenvalues --   -0.21292  -0.19919  -0.19372  -0.17774  -0.14476
  Beta  occ. eigenvalues --   -0.12520  -0.11500  -0.08904  -0.06127
  Beta virt. eigenvalues --    0.07835   0.08253   0.09278   0.09645   0.10326
  Beta virt. eigenvalues --    0.10650   0.10978   0.11249   0.11444   0.11503
  Beta virt. eigenvalues --    0.11703   0.13029   0.13121   0.13197   0.13493

 Mulliken charges and spin densities:
               1          2
     1  C   -0.489444   0.002503
     2  C    0.350215  -0.043320
     3  C   -1.204730   0.077217
     4  C    0.064216   0.010119
     5  C    0.350426   0.015731
     6  C   -0.050557   0.046766
     7  C   -0.006674   0.130385
     8  S   -0.808358   0.049677
     9  C    0.017739   0.471063
    10  C    0.109677  -0.082733
    11  C    1.036237   0.155179
    12  C   -0.292893   0.060393
    13  C   -0.369772  -0.031135
    14  C   -0.249370   0.122360
    15  C   -0.389693  -0.019028
    16  C   -0.534667   0.010583
    17  H    0.125312   0.004222
    18  H    0.146682   0.002604
    19  H    0.121502   0.004253
    20  H    0.077667  -0.007591
    21  H    0.096090   0.006682
    22  H    0.113551  -0.008867
    23  H    0.197447  -0.026815
    24  H    0.128195   0.021235
    25  H    0.098718   0.020578
    26  H    0.102920  -0.009714
    27  H    0.117431   0.006945
    28  H    0.142134   0.010709
 Sum of Mulliken charges =  -1.00000   1.00000

 Dipole moment (field-independent basis, Debye):
    X=              0.6728    Y=              1.9444    Z=              0.0414  Tot=              2.0579
 Quadrupole moment (field-independent basis, Debye-Ang):
   XX=           -140.1747   YY=           -120.4213   ZZ=           -114.7075
   XY=              2.8686   XZ=             -1.1181   YZ=             -2.3326

 Summary of Natural Population Analysis:

                                       Natural Population
                Natural  -----------------------------------------------
    Atom  No    Charge         Core      Valence    Rydberg      Total
 -----------------------------------------------------------------------
      C    1   -0.28735      0.99964     2.28314    0.00457     3.28735
      C    2   -0.04111      0.99953     2.03342    0.00816     3.04111
      C    3   -0.07488      0.99942     2.06777    0.00769     3.07488
      C    4   -0.02150      0.99937     2.01226    0.00987     3.02150
      C    5   -0.09511      0.99941     2.08525    0.01045     3.09511
      C    6   -0.09536      0.99950     2.08608    0.00978     3.09536
      C    7   -0.08784      0.99953     2.07863    0.00968     3.08784
      S    8    0.17455      4.99946     2.80321    0.02278     7.82545
      C    9   -0.05762      0.99946     2.04923    0.00893     3.05762
      C   10   -0.06544      0.99944     2.05277    0.01323     3.06544
      C   11    0.00597      0.99950     1.98341    0.01112     2.99403
      C   12   -0.09084      0.99953     2.08070    0.01061     3.09084
      C   13   -0.11373      0.99958     2.10529    0.00886     3.11373
      C   14   -0.08645      0.99957     2.07745    0.00943     3.08645
      C   15   -0.11231      0.99959     2.10322    0.00950     3.11231
      C   16   -0.08722      0.99946     2.08020    0.00756     3.08722
      H   17    0.09528      0.00000     0.40362    0.00110     0.40472
      H   18    0.09790      0.00000     0.40119    0.00091     0.40210
      H   19    0.09550      0.00000     0.40341    0.00110     0.40450
      H   20    0.09897      0.00000     0.40022    0.00082     0.40103
      H   21    0.09272      0.00000     0.40553    0.00174     0.40728
      H   22    0.08740      0.00000     0.41121    0.00139     0.41260
      H   23    0.09619      0.00000     0.40301    0.00081     0.40381
      H   24    0.09815      0.00000     0.40054    0.00132     0.40185
      H   25    0.09517      0.00000     0.40412    0.00071     0.40483
      H   26    0.08871      0.00000     0.41020    0.00109     0.41129
      H   27    0.09128      0.00000     0.40767    0.00105     0.40872
      H   28    0.09904      0.00000     0.39938    0.00158     0.40096
 =======================================================================
   * Total *    0.00006     19.99200    38.83212    0.17582    58.99994

 Normal termination of Gaussian 16 at Wed Dec 30 15:38:01 2020.
