 Gaussian 16, Revision A.03,

 -----------------------------------------------------------
 # opt freq B3LYP/6-31G(d) empiricaldispersion=gd3bj scf=xqc
 -----------------------------------------------------------

 ------------------------------
 CID_82047791_JID_8778_neutraal
 ------------------------------
 Symbolic Z-matrix:
 Charge =  0 Multiplicity = 1

 SCF Done:  E(RB3LYP) =  -1232.35980100     A.U. after   15 cycles
 SCF Done:  E(RB3LYP) =  -1232.36609370     A.U. after   12 cycles
 SCF Done:  E(RB3LYP) =  -1232.36722223     A.U. after   13 cycles
 SCF Done:  E(RB3LYP) =  -1232.36740157     A.U. after   13 cycles
 SCF Done:  E(RB3LYP) =  -1232.36764938     A.U. after   12 cycles
 SCF Done:  E(RB3LYP) =  -1232.36762771     A.U. after   11 cycles
 SCF Done:  E(RB3LYP) =  -1232.36766875     A.U. after   11 cycles
 SCF Done:  E(RB3LYP) =  -1232.36769683     A.U. after   10 cycles
 SCF Done:  E(RB3LYP) =  -1232.36771739     A.U. after   11 cycles
 SCF Done:  E(RB3LYP) =  -1232.36773175     A.U. after   12 cycles
 SCF Done:  E(RB3LYP) =  -1232.37153180     A.U. after   10 cycles
 SCF Done:  E(RB3LYP) =  -1232.37153319     A.U. after    9 cycles
 SCF Done:  E(RB3LYP) =  -1232.37153367     A.U. after    8 cycles
 SCF Done:  E(RB3LYP) =  -1232.37153375     A.U. after    8 cycles
 SCF Done:  E(RB3LYP) =  -1232.37153376     A.U. after    7 cycles
 Optimization completed.
    -- Stationary point found.
 Normal termination of Gaussian 16 at Fri Dec 11 21:15:42 2020.

 --------------------------------------------------------------------
 #N Geom=AllCheck Guess=TCheck SCRF=Check GenChk RB3LYP/6-31G(d) Freq
 --------------------------------------------------------------------

 Structure from the checkpoint file:  "JID_8778.chk"
 ------------------------------
 CID_82047791_JID_8778_neutraal
 ------------------------------
 Charge =  0 Multiplicity = 1

 SCF Done:  E(RB3LYP) =  -1232.37153376     A.U. after    1 cycles

  Exact polarizability: 185.390   8.157 130.787  -5.684  12.415 128.180
 Approx polarizability: 275.466  21.460 207.635 -16.204  35.711 217.273

                      1                      2                      3
                      A                      A                      A
 Frequencies --     18.7168                25.0166                34.5334
 Red. masses --      5.9189                 7.1217                 4.4292
 Frc consts  --      0.0012                 0.0026                 0.0031
 IR Inten    --      0.4560                 0.7758                 0.8101

                      4                      5                      6
                      A                      A                      A
 Frequencies --     42.4265                57.4125                82.5180
 Red. masses --     10.7925                 5.6448                 4.7220
 Frc consts  --      0.0114                 0.0110                 0.0189
 IR Inten    --      1.1163                 0.7789                 2.6654

                      7                      8                      9
                      A                      A                      A
 Frequencies --     93.0934               120.2130               131.7289
 Red. masses --      2.7010                 2.7306                 3.3386
 Frc consts  --      0.0138                 0.0232                 0.0341
 IR Inten    --      3.6513                 1.2366                 3.3086

                     10                     11                     12
                      A                      A                      A
 Frequencies --    165.2835               177.0384               198.2296
 Red. masses --      1.7301                 4.2117                 4.4310
 Frc consts  --      0.0278                 0.0778                 0.1026
 IR Inten    --      4.6208                 0.3075                 0.2680

                     13                     14                     15
                      A                      A                      A
 Frequencies --    235.9281               246.2982               300.8855
 Red. masses --      2.8266                 2.6071                 5.2365
 Frc consts  --      0.0927                 0.0932                 0.2793
 IR Inten    --      3.0842                 2.0977                 3.0824

                     16                     17                     18
                      A                      A                      A
 Frequencies --    322.8980               344.0037               411.9727
 Red. masses --      2.8016                 4.7725                 4.2730
 Frc consts  --      0.1721                 0.3328                 0.4273
 IR Inten    --      1.6104                 1.6006                 8.8832

                     19                     20                     21
                      A                      A                      A
 Frequencies --    421.7442               465.8240               473.2346
 Red. masses --      2.2963                 9.2377                 3.1091
 Frc consts  --      0.2406                 1.1810                 0.4102
 IR Inten    --      1.4662                 2.0869                16.8198

                     22                     23                     24
                      A                      A                      A
 Frequencies --    483.1214               523.8971               539.1573
 Red. masses --      3.2093                 1.9213                 4.9278
 Frc consts  --      0.4413                 0.3107                 0.8440
 IR Inten    --      9.4673                21.2913                 4.2181

                     25                     26                     27
                      A                      A                      A
 Frequencies --    572.7642               602.2085               629.0102
 Red. masses --      6.4121                 4.6741                 4.0023
 Frc consts  --      1.2394                 0.9987                 0.9330
 IR Inten    --      2.2714                 3.9197                20.7855

                     28                     29                     30
                      A                      A                      A
 Frequencies --    670.4595               678.9827               682.8432
 Red. masses --      3.0217                10.6183                 1.9757
 Frc consts  --      0.8003                 2.8842                 0.5428
 IR Inten    --     14.1838                 1.8635                62.3947

                     31                     32                     33
                      A                      A                      A
 Frequencies --    705.7045               716.9722               785.5898
 Red. masses --      4.1291                 4.6690                 1.9825
 Frc consts  --      1.2116                 1.4141                 0.7209
 IR Inten    --     36.7388                 3.2596                32.7091

                     34                     35                     36
                      A                      A                      A
 Frequencies --    833.0588               846.0317               853.1063
 Red. masses --      6.9399                 2.8383                 2.5216
 Frc consts  --      2.8376                 1.1969                 1.0813
 IR Inten    --      0.6235                 6.2617                 9.8243

                     37                     38                     39
                      A                      A                      A
 Frequencies --    908.4538               949.6656               990.8305
 Red. masses --      2.5864                 2.6099                 3.6028
 Frc consts  --      1.2576                 1.3868                 2.0839
 IR Inten    --      1.9906                 5.7444                10.8919

                     40                     41                     42
                      A                      A                      A
 Frequencies --    998.7570              1022.8774              1038.3145
 Red. masses --      2.6811                 6.5526                 3.1520
 Frc consts  --      1.5757                 4.0394                 2.0022
 IR Inten    --      3.3981                15.5204                19.7082

                     43                     44                     45
                      A                      A                      A
 Frequencies --   1050.9083              1079.8460              1099.0790
 Red. masses --      2.0596                 2.0642                 2.8638
 Frc consts  --      1.3402                 1.4182                 2.0382
 IR Inten    --      5.6261                 5.5617                 5.1854

                     46                     47                     48
                      A                      A                      A
 Frequencies --   1149.5700              1156.6467              1185.7146
 Red. masses --      2.6767                 3.2482                 2.4294
 Frc consts  --      2.0841                 2.5603                 2.0123
 IR Inten    --    199.0310                44.8310               128.1292

                     49                     50                     51
                      A                      A                      A
 Frequencies --   1190.7133              1208.6863              1212.0738
 Red. masses --      1.3778                 1.6031                 1.2073
 Frc consts  --      1.1509                 1.3798                 1.0451
 IR Inten    --     26.5873                 9.0149                 2.1015

                     52                     53                     54
                      A                      A                      A
 Frequencies --   1243.6399              1256.8450              1285.8701
 Red. masses --      1.8491                 1.4499                 2.1153
 Frc consts  --      1.6850                 1.3494                 2.0607
 IR Inten    --     51.3514                40.0767                 1.4054

                     55                     56                     57
                      A                      A                      A
 Frequencies --   1312.7691              1316.1409              1323.8268
 Red. masses --      1.2283                 1.4437                 8.1764
 Frc consts  --      1.2472                 1.4734                 8.4426
 IR Inten    --      1.9513                10.9296                 6.0616

                     58                     59                     60
                      A                      A                      A
 Frequencies --   1336.3443              1378.2751              1386.2624
 Red. masses --      1.5021                 1.4086                 1.4306
 Frc consts  --      1.5804                 1.5765                 1.6198
 IR Inten    --      7.9314                 5.9064                22.7235

                     61                     62                     63
                      A                      A                      A
 Frequencies --   1404.0770              1416.1766              1442.3521
 Red. masses --      1.4315                 1.2748                 2.4840
 Frc consts  --      1.6628                 1.5064                 3.0447
 IR Inten    --     11.8700                16.6771                29.4631

                     64                     65                     66
                      A                      A                      A
 Frequencies --   1445.5286              1489.1158              1492.4213
 Red. masses --      3.3619                 1.0927                 1.1402
 Frc consts  --      4.1390                 1.4276                 1.4963
 IR Inten    --     22.2108                11.5220                 8.7033

                     67                     68                     69
                      A                      A                      A
 Frequencies --   1501.7219              1509.1561              1510.7586
 Red. masses --      1.1307                 1.1524                 3.8021
 Frc consts  --      1.5024                 1.5464                 5.1129
 IR Inten    --      1.0206                20.4145               103.8646

                     70                     71                     72
                      A                      A                      A
 Frequencies --   1517.1249              1519.6742              1531.0616
 Red. masses --      1.1249                 1.1676                 1.1128
 Frc consts  --      1.5254                 1.5888                 1.5370
 IR Inten    --     13.6327                21.9231                 3.7771

                     73                     74                     75
                      A                      A                      A
 Frequencies --   1542.4071              1569.2433              1617.6425
 Red. masses --      1.0866                 7.6885                 8.9467
 Frc consts  --      1.5230                11.1550                13.7936
 IR Inten    --      7.1867                20.9200                20.2094

                     76                     77                     78
                      A                      A                      A
 Frequencies --   1834.5162              3009.5332              3036.2832
 Red. masses --      9.3441                 1.0379                 1.0582
 Frc consts  --     18.5281                 5.5384                 5.7478
 IR Inten    --    218.8306                46.9971                59.2391

                     79                     80                     81
                      A                      A                      A
 Frequencies --   3062.9155              3065.1977              3069.8545
 Red. masses --      1.0634                 1.1005                 1.0620
 Frc consts  --      5.8777                 6.0918                 5.8967
 IR Inten    --      4.8637                59.6655                15.7354

                     82                     83                     84
                      A                      A                      A
 Frequencies --   3074.4001              3086.8809              3090.4055
 Red. masses --      1.0668                 1.0663                 1.0996
 Frc consts  --      5.9410                 5.9863                 6.1874
 IR Inten    --      3.2420                12.3661                53.1075

                     85                     86                     87
                      A                      A                      A
 Frequencies --   3097.9073              3115.6204              3127.7397
 Red. masses --      1.0972                 1.1054                 1.1054
 Frc consts  --      6.2038                 6.3218                 6.3713
 IR Inten    --     12.0458                19.8095                 4.8703

                     88                     89                     90
                      A                      A                      A
 Frequencies --   3129.8989              3159.7369              3683.6831
 Red. masses --      1.0998                 1.0983                 1.0640
 Frc consts  --      6.3477                 6.4603                 8.5068
 IR Inten    --     34.2002                 1.5728                56.7788

 - Thermochemistry -
 -------------------
 Temperature   298.150 Kelvin.  Pressure   1.00000 Atm.
 Atom     1 has atomic number  6 and mass  12.00000

 Molecular mass:   270.07866 amu.
 Principal axes and moments of inertia in atomic units:
                           1         2         3
     Eigenvalues --  2884.657517006.555307879.23647
           X            0.99994   0.00974  -0.00554
           Y           -0.00989   0.99961  -0.02622
           Z            0.00528   0.02628   0.99964
 This molecule is an asymmetric top.
 Rotational symmetry number  1.
 Warning -- assumption of classical behavior for rotation
           may cause significant error
 Rotational temperatures (Kelvin)      0.03003     0.01236     0.01099
 Rotational constants (GHZ):           0.62563     0.25758     0.22905
 Zero-point vibrational energy     662294.8 (Joules/Mol)
                                  158.29227 (Kcal/Mol)
 Warning -- explicit consideration of  26 degrees of freedom as
           vibrations may cause significant error
 Vibrational temperatures:     26.93    35.99    49.69    61.04    82.60
          (Kelvin)            118.72   133.94   172.96   189.53   237.81
                              254.72   285.21   339.45   354.37   432.91
                              464.58   494.94   592.74   606.80   670.22
                              680.88   695.10   753.77   775.73   824.08
                              866.44   905.01   964.64   976.90   982.46
                             1015.35  1031.56  1130.29  1198.59  1217.25
                             1227.43  1307.06  1366.36  1425.58  1436.99
                             1471.69  1493.90  1512.02  1553.66  1581.33
                             1653.97  1664.16  1705.98  1713.17  1739.03
                             1743.90  1789.32  1808.32  1850.08  1888.78
                             1893.63  1904.69  1922.70  1983.03  1994.52
                             2020.15  2037.56  2075.22  2079.79  2142.51
                             2147.26  2160.64  2171.34  2173.64  2182.80
                             2186.47  2202.86  2219.18  2257.79  2327.43
                             2639.46  4330.05  4368.53  4406.85  4410.14
                             4416.84  4423.38  4441.33  4446.40  4457.20
                             4482.68  4500.12  4503.23  4546.16  5300.00

 Zero-point correction=                           0.252255 (Hartree/Particle)
 Thermal correction to Energy=                    0.269928
 Thermal correction to Enthalpy=                  0.270872
 Thermal correction to Gibbs Free Energy=         0.203136
 Sum of electronic and zero-point Energies=          -1232.119279
 Sum of electronic and thermal Energies=             -1232.101606
 Sum of electronic and thermal Enthalpies=           -1232.100662
 Sum of electronic and thermal Free Energies=        -1232.168398

                     E (Thermal)             CV                S
                      KCal/Mol        Cal/Mol-Kelvin    Cal/Mol-Kelvin
 Total                  169.382             63.596            142.562
 Electronic               0.000              0.000              0.000
 Translational            0.889              2.981             42.680
 Rotational               0.889              2.981             33.432
 Vibrational            167.605             57.634             66.451
 Vibration     1          0.593              1.986              6.766
 Vibration     2          0.593              1.985              6.190
 Vibration     3          0.594              1.983              5.550
 Vibration     4          0.595              1.980              5.142
 Vibration     5          0.596              1.975              4.544
 Vibration     6          0.600              1.961              3.830
 Vibration     7          0.602              1.954              3.594
 Vibration     8          0.609              1.932              3.097
 Vibration     9          0.612              1.922              2.921
 Vibration    10          0.624              1.885              2.488
 Vibration    11          0.628              1.871              2.359
 Vibration    12          0.637              1.842              2.149
 Vibration    13          0.655              1.786              1.833
 Vibration    14          0.661              1.769              1.757
 Vibration    15          0.693              1.672              1.412
 Vibration    16          0.708              1.630              1.295
 Vibration    17          0.723              1.587              1.194
 Vibration    18          0.776              1.444              0.920
 Vibration    19          0.784              1.423              0.886
 Vibration    20          0.823              1.326              0.749
 Vibration    21          0.830              1.309              0.729
 Vibration    22          0.839              1.287              0.702
 Vibration    23          0.879              1.197              0.601
 Vibration    24          0.894              1.163              0.567
 Vibration    25          0.929              1.090              0.499
 Vibration    26          0.961              1.027              0.446

 Optimization completed.
    -- Stationary point found.
 Normal termination of Gaussian 16 at Fri Dec 11 21:29:14 2020.

 ----------------------------------------------------------------------
 # B3LYP/6-311++G(d,p) empiricaldispersion=gd3bj scf=xqc pop=npa geom=c
 heck
 ----------------------------------------------------------------------

 --------------------------------------
 CID_82047791_JID_8778_Energie_neutraal
 --------------------------------------
 Structure from the checkpoint file:  "JID_8778.chk"
 Charge =  0 Multiplicity = 1

 SCF Done:  E(RB3LYP) =  -1232.63771256     A.U. after   15 cycles
 Normal termination of Gaussian 16 at Fri Dec 11 21:35:27 2020.

 ----------------------------------------------------------------------
 # B3LYP/6-311++G(d,p) empiricaldispersion=gd3bj scf=xqc pop=npa geom=c
 heck
 ----------------------------------------------------------------------

 ------------------------------------
 CID_82047791_JID_8778_Energie_kation
 ------------------------------------
 Structure from the checkpoint file:  "JID_8778.chk"
 Charge =  1 Multiplicity = 2

 SCF Done:  E(UB3LYP) =  -1232.32687024     A.U. after   27 cycles
 Normal termination of Gaussian 16 at Fri Dec 11 21:50:53 2020.
 Gaussian 16:  ES64L-G16RevA.03 25-Dec-2016

 ----------------------------------------------------------------------
 # B3LYP/6-311++G(d,p) empiricaldispersion=gd3bj scf=xqc pop=npa geom=c
 heck
 ----------------------------------------------------------------------

 -----------------------------------
 CID_82047791_JID_8778_Energie_anion
 -----------------------------------
 Structure from the checkpoint file:  "JID_8778.chk"
 Charge = -1 Multiplicity = 2

                         Standard orientation:
 ---------------------------------------------------------------------
 Center     Atomic      Atomic             Coordinates (Angstroms)
 Number     Number       Type             X           Y           Z
 ---------------------------------------------------------------------
      1          6           0        1.591648    2.081035   -1.263304
      2          8           0        2.277649    2.230250   -0.034185
      3          6           0        3.581379    1.670738   -0.016810
      4          6           0        3.610803    0.326347    0.733974
      5          6           0        2.689271   -0.669529    0.122789
      6          7           0        2.943130   -1.487706   -0.880801
      7          7           0        1.773597   -2.157208   -1.247213
      8          6           0        0.846893   -1.709451   -0.439374
      9          7           0        1.358195   -0.782736    0.441360
     10          7           0        0.519927   -0.189947    1.341916
     11          6           0       -0.673922   -0.659955    1.171305
     12         16           0       -0.866473   -1.881162   -0.127204
     13          6           0       -1.862221   -0.165963    1.935844
     14          6           0       -2.295084    1.248077    1.486802
     15          6           0       -2.469262    1.425516   -0.023542
     16          6           0       -3.500485    0.513354   -0.647996
     17          8           0       -4.096480   -0.385110   -0.090614
     18          8           0       -3.689589    0.807868   -1.954080
     19          1           0        0.606550    2.536702   -1.128683
     20          1           0        1.461636    1.028800   -1.551657
     21          1           0        2.111876    2.600157   -2.082368
     22          1           0        3.962702    1.530843   -1.037195
     23          1           0        4.237449    2.381860    0.499199
     24          1           0        4.628958   -0.075745    0.713654
     25          1           0        3.325419    0.494498    1.777316
     26          1           0       -2.692828   -0.860990    1.807462
     27          1           0       -1.599844   -0.137830    2.998461
     28          1           0       -3.232692    1.491659    1.997968
     29          1           0       -1.540734    1.967122    1.822300
     30          1           0       -2.750172    2.459299   -0.256104
     31          1           0       -1.521933    1.255332   -0.550909
     32          1           0       -4.343513    0.164979   -2.288121
 ---------------------------------------------------------------------

 SCF Done:  E(UB3LYP) =  -1232.63790789     A.U. after   33 cycles
 SCF Done:  E(UB3LYP) =  -1232.63790789     a.u. after    1 cycles

 The electronic state is 2-A.
 Alpha  occ. eigenvalues --  -88.77090 -19.08554 -19.03253 -19.02698 -14.29506
 Alpha  occ. eigenvalues --  -14.22489 -14.21325 -14.21100 -10.21807 -10.14193
 Alpha  occ. eigenvalues --  -10.13132 -10.12484 -10.12001 -10.11159 -10.08957
 Alpha  occ. eigenvalues --  -10.08874 -10.07159 -10.07136  -7.85698  -5.82032
 Alpha  occ. eigenvalues --   -5.81677  -5.81195  -1.02482  -0.97789  -0.94453
 Alpha  occ. eigenvalues --   -0.93357  -0.88410  -0.75659  -0.72580  -0.70225
 Alpha  occ. eigenvalues --   -0.68659  -0.65586  -0.63187  -0.59927  -0.55930
 Alpha  occ. eigenvalues --   -0.53610  -0.51061  -0.50068  -0.47672  -0.45044
 Alpha  occ. eigenvalues --   -0.41036  -0.40508  -0.40206  -0.39922  -0.39042
 Alpha  occ. eigenvalues --   -0.38438  -0.37775  -0.35733  -0.34405  -0.34124
 Alpha  occ. eigenvalues --   -0.33259  -0.31437  -0.31130  -0.30701  -0.30123
 Alpha  occ. eigenvalues --   -0.28218  -0.27655  -0.26954  -0.25384  -0.25164
 Alpha  occ. eigenvalues --   -0.24641  -0.23941  -0.22949  -0.21380  -0.21223
 Alpha  occ. eigenvalues --   -0.19207  -0.18566  -0.17084  -0.15305  -0.15286
 Alpha  occ. eigenvalues --   -0.12524   0.04122
 Alpha virt. eigenvalues --    0.06058   0.06820   0.07483   0.08309   0.08522
 Alpha virt. eigenvalues --    0.09394   0.09620   0.10025   0.10431   0.11168
 Alpha virt. eigenvalues --    0.11641   0.12283   0.12388   0.12737   0.13267

  Beta  occ. eigenvalues --  -88.77064 -19.08540 -19.03253 -19.02694 -14.29554
  Beta  occ. eigenvalues --  -14.22212 -14.21356 -14.21024 -10.21805 -10.14138
  Beta  occ. eigenvalues --  -10.13122 -10.12426 -10.11997 -10.10726 -10.08957
  Beta  occ. eigenvalues --  -10.08851 -10.07176 -10.07082  -7.85674  -5.82024
  Beta  occ. eigenvalues --   -5.81674  -5.81095  -1.02460  -0.97667  -0.94451
  Beta  occ. eigenvalues --   -0.93340  -0.88146  -0.75462  -0.72377  -0.70089
  Beta  occ. eigenvalues --   -0.68543  -0.65458  -0.63081  -0.59906  -0.55742
  Beta  occ. eigenvalues --   -0.53573  -0.50866  -0.49958  -0.47591  -0.44900
  Beta  occ. eigenvalues --   -0.41006  -0.40373  -0.40165  -0.39883  -0.38892
  Beta  occ. eigenvalues --   -0.38304  -0.37615  -0.35538  -0.34303  -0.34037
  Beta  occ. eigenvalues --   -0.33151  -0.31386  -0.31045  -0.30570  -0.30058
  Beta  occ. eigenvalues --   -0.28084  -0.27208  -0.26715  -0.25246  -0.25029
  Beta  occ. eigenvalues --   -0.24323  -0.23915  -0.22932  -0.21160  -0.20928
  Beta  occ. eigenvalues --   -0.19191  -0.18319  -0.17010  -0.15223  -0.14295
  Beta  occ. eigenvalues --   -0.12017
  Beta virt. eigenvalues --    0.06302   0.06779   0.07856   0.08127   0.08452
  Beta virt. eigenvalues --    0.09687   0.09757   0.10022   0.10363   0.10597
  Beta virt. eigenvalues --    0.11268   0.11875   0.12330   0.12478   0.12879

 Mulliken charges and spin densities:
               1          2
     1  C   -0.275263  -0.084830
     2  O   -0.082234   0.010988
     3  C   -0.038337  -0.216579
     4  C   -0.320454  -0.063335
     5  C   -0.337961   0.047724
     6  N    0.010699   0.041078
     7  N   -0.127020  -0.018434
     8  C   -0.385137   0.032119
     9  N    0.411243  -0.039752
    10  N   -0.135903   0.201437
    11  C    0.123780  -0.140345
    12  S    0.313651   0.035039
    13  C   -0.915785   0.498149
    14  C    1.045055  -1.371944
    15  C   -0.435088   0.413890
    16  C    0.185654  -0.485157
    17  O   -0.243126  -0.010257
    18  O   -0.099956   0.001696
    19  H    0.095400   0.071247
    20  H    0.151417  -0.001326
    21  H    0.067984   0.047069
    22  H    0.149467  -0.030436
    23  H   -0.014880   0.188225
    24  H    0.075980   0.080585
    25  H    0.132406   0.064946
    26  H    0.176173   0.021745
    27  H   -0.150031   0.344941
    28  H   -0.486125   0.673660
    29  H    0.187277  -0.027600
    30  H   -0.531381   0.752189
    31  H    0.318044  -0.175399
    32  H    0.134451   0.138667
 Sum of Mulliken charges =  -1.00000   1.00000

 Dipole moment (field-independent basis, Debye):
    X=              1.7400    Y=              0.5402    Z=             -1.9281  Tot=              2.6527
 Quadrupole moment (field-independent basis, Debye-Ang):
   XX=           -170.4017   YY=           -153.3866   ZZ=           -142.2704
   XY=             16.3807   XZ=             14.2775   YZ=            -11.2553

 Summary of Natural Population Analysis:

                                       Natural Population
                Natural  -----------------------------------------------
    Atom  No    Charge         Core      Valence    Rydberg      Total
 -----------------------------------------------------------------------
      C    1   -0.09710      0.99961     2.08928    0.00822     3.09710
      O    2   -0.29911      0.99989     3.28944    0.00978     4.29911
      C    3   -0.00272      0.99958     1.99006    0.01307     3.00272
      C    4   -0.22426      0.99959     2.21531    0.00936     3.22426
      C    5    0.17764      0.99959     1.80153    0.02124     2.82236
      N    6   -0.15706      0.99968     2.64599    0.01138     3.65706
      N    7   -0.18883      0.99965     2.67374    0.01544     3.68883
      C    8    0.09791      0.99953     1.88307    0.01949     2.90209
      N    9   -0.13311      0.99952     2.62094    0.01265     3.63311
      N   10   -0.11816      0.99960     2.60540    0.01316     3.61816
      C   11    0.11900      0.99961     1.86302    0.01837     2.88100
      S   12    0.17098      4.99944     2.81181    0.01777     7.82902
      C   13   -0.22275      0.99957     2.21192    0.01125     3.22275
      C   14   -0.17841      0.99962     2.16890    0.00988     3.17841
      C   15   -0.24650      0.99957     2.23708    0.00985     3.24650
      C   16    0.40958      0.99972     1.56445    0.02624     2.59042
      O   17   -0.31016      0.99987     3.30425    0.00604     4.31016
      O   18   -0.34500      0.99987     3.33924    0.00589     4.34500
      H   19    0.09064      0.00000     0.40821    0.00115     0.40936
      H   20    0.08539      0.00000     0.41310    0.00152     0.41461
      H   21    0.07427      0.00000     0.42467    0.00106     0.42573
      H   22    0.08152      0.00000     0.41705    0.00143     0.41848
      H   23    0.08519      0.00000     0.41350    0.00131     0.41481
      H   24    0.10971      0.00000     0.38889    0.00140     0.39029
      H   25    0.11263      0.00000     0.38601    0.00136     0.38737
      H   26    0.11417      0.00000     0.38476    0.00106     0.38583
      H   27    0.11592      0.00000     0.38248    0.00160     0.38408
      H   28    0.10242      0.00000     0.39481    0.00277     0.39758
      H   29    0.10355      0.00000     0.39492    0.00153     0.39645
      H   30    0.11687      0.00000     0.38172    0.00142     0.38313
      H   31    0.11742      0.00000     0.38087    0.00172     0.38258
      H   32    0.23834      0.00000     0.25830    0.00336     0.26166
 =======================================================================
   * Total *   -0.00000     21.99352    48.74472    0.26176    71.00000

 Normal termination of Gaussian 16 at Fri Dec 11 22:11:08 2020.
