 Gaussian 16, Revision A.03,

 -----------------------------------------------------------
 # opt freq B3LYP/6-31G(d) empiricaldispersion=gd3bj scf=xqc
 -----------------------------------------------------------

 ------------------------------
 CID_117668413_JID_625_neutraal
 ------------------------------
 Symbolic Z-matrix:
 Charge =  0 Multiplicity = 1

 SCF Done:  E(RB3LYP) =  -536.765785264     A.U. after   14 cycles
 SCF Done:  E(RB3LYP) =  -536.767974056     A.U. after   12 cycles
 SCF Done:  E(RB3LYP) =  -536.767597566     A.U. after   13 cycles
 SCF Done:  E(RB3LYP) =  -536.768656759     A.U. after   11 cycles
 SCF Done:  E(RB3LYP) =  -536.768728411     A.U. after   11 cycles
 SCF Done:  E(RB3LYP) =  -536.768742553     A.U. after   10 cycles
 SCF Done:  E(RB3LYP) =  -536.768809758     A.U. after   10 cycles
 SCF Done:  E(RB3LYP) =  -536.768951180     A.U. after   12 cycles
 SCF Done:  E(RB3LYP) =  -536.768438212     A.U. after   15 cycles
 SCF Done:  E(RB3LYP) =  -536.769184448     A.U. after   12 cycles
 SCF Done:  E(RB3LYP) =  -536.772863112     A.U. after   12 cycles
 SCF Done:  E(RB3LYP) =  -536.772872017     A.U. after   10 cycles
 SCF Done:  E(RB3LYP) =  -536.772873775     A.U. after    9 cycles
 SCF Done:  E(RB3LYP) =  -536.772873887     A.U. after    8 cycles
 SCF Done:  E(RB3LYP) =  -536.772873908     A.U. after    6 cycles
 SCF Done:  E(RB3LYP) =  -536.772873840     A.U. after    7 cycles
 Optimization completed.
    -- Stationary point found.

 1\1\GINC-NODE316\FOpt\RB3LYP\6-31G(d)\C6H12O4\VSC10255\08-Dec-2020\0\\
 # opt freq B3LYP/6-31G(d) empiricaldispersion=gd3bj scf=xqc\\CID_11766
 8413_JID_625_neutraal\\0,1\C,0.6726522153,-0.0932128986,-0.2861271351\
 O,0.4980463299,-1.4880351124,-0.175373074\C,0.9847099698,-1.9998781899
 ,1.053249667\C,0.7727347485,-3.5126954802,1.0663796781\C,1.3967807401,
 -4.1915683184,-0.1610212602\C,2.8958704369,-4.0500423274,-0.298059719\
 O,3.6601448593,-3.5247256294,0.4854279675\O,3.3310328509,-4.6069492886
 ,-1.4550584922\C,1.2448844147,-4.1397323501,2.3870763024\O,0.498979612

 Normal termination of Gaussian 16 at Tue Dec  8 13:52:29 2020.

 --------------------------------------------------------------------
 #N Geom=AllCheck Guess=TCheck SCRF=Check GenChk RB3LYP/6-31G(d) Freq
 --------------------------------------------------------------------

 Structure from the checkpoint file:  "JID_625.chk"
 ------------------------------
 CID_117668413_JID_625_neutraal
 ------------------------------
 Charge =  0 Multiplicity = 1

 SCF Done:  E(RB3LYP) =  -536.772873840     A.U. after    1 cycles

  Exact polarizability:  80.971   1.730  75.403   2.567  -0.451  68.577
 Approx polarizability: 103.521   5.576  95.288   6.135   2.799 110.504

                      1                      2                      3
                      A                      A                      A
 Frequencies --     22.8903                47.8080                77.1784
 Red. masses --      5.6736                 5.8937                 2.5303
 Frc consts  --      0.0018                 0.0079                 0.0089
 IR Inten    --      0.1562                 0.5641                 2.3417

                      4                      5                      6
                      A                      A                      A
 Frequencies --     98.3043               129.4721               173.4718
 Red. masses --      2.9966                 3.3463                 2.3559
 Frc consts  --      0.0171                 0.0330                 0.0418
 IR Inten    --      8.1283                 5.7828                 0.3195

                      7                      8                      9
                      A                      A                      A
 Frequencies --    194.2824               244.7741               249.8501
 Red. masses --      2.9295                 1.4221                 3.4124
 Frc consts  --      0.0652                 0.0502                 0.1255
 IR Inten    --      0.7327                 5.3067                 2.9424

                     10                     11                     12
                      A                      A                      A
 Frequencies --    273.9725               334.7175               354.7454
 Red. masses --      1.1210                 3.2812                 4.1729
 Frc consts  --      0.0496                 0.2166                 0.3094
 IR Inten    --    141.7784                 3.1924                 3.4848

                     13                     14                     15
                      A                      A                      A
 Frequencies --    452.2251               462.0154               524.8615
 Red. masses --      2.6054                 2.8882                 1.9813
 Frc consts  --      0.3139                 0.3632                 0.3216
 IR Inten    --      1.8140                 2.5517                27.3785

                     16                     17                     18
                      A                      A                      A
 Frequencies --    564.1197               683.8283               700.5857
 Red. masses --      3.9220                 1.3935                 3.7502
 Frc consts  --      0.7354                 0.3839                 1.0845
 IR Inten    --     41.7228                91.5254                12.7387

                     19                     20                     21
                      A                      A                      A
 Frequencies --    821.9706               883.0094               905.7635
 Red. masses --      3.4341                 2.0132                 1.9701
 Frc consts  --      1.3670                 0.9249                 0.9523
 IR Inten    --     15.2925                 0.9802                22.6884

                     22                     23                     24
                      A                      A                      A
 Frequencies --    955.4846              1004.3519              1065.9149
 Red. masses --      1.8410                 3.8873                 2.7292
 Frc consts  --      0.9903                 2.3103                 1.8270
 IR Inten    --      3.4574                14.7970               157.3008

                     25                     26                     27
                      A                      A                      A
 Frequencies --   1083.0678              1117.8633              1133.3142
 Red. masses --      2.5281                 1.8648                 2.0705
 Frc consts  --      1.7472                 1.3729                 1.5669
 IR Inten    --      2.3788                16.5094                13.9030

                     28                     29                     30
                      A                      A                      A
 Frequencies --   1167.2590              1176.4163              1193.2020
 Red. masses --      3.9997                 2.2750                 1.2629
 Frc consts  --      3.2108                 1.8551                 1.0593
 IR Inten    --    257.3755               127.1117                 4.8871

                     31                     32                     33
                      A                      A                      A
 Frequencies --   1221.4911              1255.8657              1268.2949
 Red. masses --      1.6293                 1.4553                 1.2305
 Frc consts  --      1.4323                 1.3523                 1.1662
 IR Inten    --     76.2216                12.9821                 2.0303

                     34                     35                     36
                      A                      A                      A
 Frequencies --   1283.2379              1330.9381              1349.0188
 Red. masses --      1.3054                 1.4855                 1.3481
 Frc consts  --      1.2666                 1.5503                 1.4455
 IR Inten    --      2.2942                 2.5986                 3.2260

                     37                     38                     39
                      A                      A                      A
 Frequencies --   1384.5802              1414.8508              1426.3504
 Red. masses --      1.3694                 1.1820                 1.7172
 Frc consts  --      1.5467                 1.3941                 2.0584
 IR Inten    --     23.6186                21.2855                17.8306

                     40                     41                     42
                      A                      A                      A
 Frequencies --   1435.4994              1457.7464              1481.7255
 Red. masses --      1.4602                 1.4591                 1.1109
 Frc consts  --      1.7728                 1.8269                 1.4370
 IR Inten    --     39.4686                21.0362                24.6697

                     43                     44                     45
                      A                      A                      A
 Frequencies --   1503.4089              1514.6932              1533.9327
 Red. masses --      1.1651                 1.0479                 1.0556
 Frc consts  --      1.5515                 1.4164                 1.4633
 IR Inten    --      4.2948                 5.0263                14.1229

                     46                     47                     48
                      A                      A                      A
 Frequencies --   1542.1933              1566.5966              1833.0118
 Red. masses --      1.0857                 1.0894                 9.1703
 Frc consts  --      1.5214                 1.5752                18.1537
 IR Inten    --      1.4696                 3.7587               232.3213

                     49                     50                     51
                      A                      A                      A
 Frequencies --   2982.8438              2994.1045              3033.0985
 Red. masses --      1.0518                 1.0476                 1.1020
 Frc consts  --      5.5135                 5.5331                 5.9730
 IR Inten    --     37.0667                89.2392                80.4116

                     52                     53                     54
                      A                      A                      A
 Frequencies --   3036.4002              3051.9481              3058.9136
 Red. masses --      1.0963                 1.0689                 1.0655
 Frc consts  --      5.9554                 5.8657                 5.8738
 IR Inten    --      0.9945                 6.1628                54.6938

                     55                     56                     57
                      A                      A                      A
 Frequencies --   3062.2642              3104.0632              3116.0903
 Red. masses --      1.0799                 1.1088                 1.0930
 Frc consts  --      5.9663                 6.2943                 6.2529
 IR Inten    --     18.7952                36.1688                 3.0709

                     58                     59                     60
                      A                      A                      A
 Frequencies --   3136.3317              3683.8355              3767.6503
 Red. masses --      1.0968                 1.0640                 1.0666
 Frc consts  --      6.3563                 8.5069                 8.9208
 IR Inten    --     33.2439                45.3535                14.2228

 - Thermochemistry -
 -------------------
 Temperature   298.150 Kelvin.  Pressure   1.00000 Atm.
 Atom     1 has atomic number  6 and mass  12.00000

 Molecular mass:   148.07356 amu.
 Principal axes and moments of inertia in atomic units:
                           1         2         3
     Eigenvalues --  1447.674491759.889672738.53616
           X            0.99218  -0.12337   0.01877
           Y            0.12361   0.99226  -0.01206
           Z           -0.01714   0.01429   0.99975
 This molecule is an asymmetric top.
 Rotational symmetry number  1.
 Warning -- assumption of classical behavior for rotation
           may cause significant error
 Rotational temperatures (Kelvin)      0.05983     0.04922     0.03163
 Rotational constants (GHZ):           1.24665     1.02549     0.65902
 Zero-point vibrational energy     490036.5 (Joules/Mol)
                                  117.12153 (Kcal/Mol)
 Warning -- explicit consideration of  16 degrees of freedom as
           vibrations may cause significant error
 Vibrational temperatures:     32.93    68.79   111.04   141.44   186.28
          (Kelvin)            249.59   279.53   352.18   359.48   394.19
                              481.58   510.40   650.65   664.74   755.16
                              811.64   983.88  1007.99  1182.63  1270.45
                             1303.19  1374.73  1445.04  1533.61  1558.29
                             1608.36  1630.59  1679.43  1692.60  1716.75
                             1757.45  1806.91  1824.79  1846.29  1914.92
                             1940.94  1992.10  2035.65  2052.20  2065.36
                             2097.37  2131.87  2163.07  2179.31  2206.99
                             2218.87  2253.98  2637.30  4291.65  4307.85
                             4363.95  4368.70  4391.07  4401.09  4405.92
                             4466.05  4483.36  4512.48  5300.22  5420.81

 Zero-point correction=                           0.186645 (Hartree/Particle)
 Thermal correction to Energy=                    0.198436
 Thermal correction to Enthalpy=                  0.199380
 Thermal correction to Gibbs Free Energy=         0.147300
 Sum of electronic and zero-point Energies=           -536.586229
 Sum of electronic and thermal Energies=              -536.574438
 Sum of electronic and thermal Enthalpies=            -536.573494
 Sum of electronic and thermal Free Energies=         -536.625574

                     E (Thermal)             CV                S
                      KCal/Mol        Cal/Mol-Kelvin    Cal/Mol-Kelvin
 Total                  124.520             40.681            109.611
 Electronic               0.000              0.000              0.000
 Translational            0.889              2.981             40.888
 Rotational               0.889              2.981             30.324
 Vibrational            122.743             34.719             38.399
 Vibration     1          0.593              1.985              6.366
 Vibration     2          0.595              1.978              4.906
 Vibration     3          0.599              1.964              3.961
 Vibration     4          0.604              1.950              3.488
 Vibration     5          0.612              1.924              2.954
 Vibration     6          0.627              1.875              2.398
 Vibration     7          0.635              1.848              2.187
 Vibration     8          0.660              1.771              1.768
 Vibration     9          0.663              1.763              1.732
 Vibration    10          0.676              1.721              1.571
 Vibration    11          0.716              1.606              1.237
 Vibration    12          0.731              1.566              1.145
 Vibration    13          0.811              1.356              0.789
 Vibration    14          0.820              1.334              0.760
 Vibration    15          0.880              1.195              0.599
 Vibration    16          0.920              1.109              0.516

                           ! Non-Optimized Parameters !

 1\1\GINC-NODE316\Freq\RB3LYP\6-31G(d)\C6H12O4\VSC10255\08-Dec-2020\0\\
 #N Geom=AllCheck Guess=TCheck SCRF=Check GenChk RB3LYP/6-31G(d) Freq\\
 CID_117668413_JID_625_neutraal\\0,1\C,0.6726522153,-0.0932128986,-0.28
 61271351\O,0.4980463299,-1.4880351124,-0.175373074\C,0.9847099698,-1.9
 998781899,1.053249667\C,0.7727347485,-3.5126954802,1.0663796781\C,1.39
 67807401,-4.1915683184,-0.1610212602\C,2.8958704369,-4.0500423274,-0.2
 98059719\O,3.6601448593,-3.5247256294,0.4854279675\O,3.3310328509,-4.6
 069492886,-1.4550584922\C,1.2448844147,-4.1397323501,2.3870763024\O,0.

 Normal termination of Gaussian 16 at Tue Dec  8 13:56:45 2020.

 ----------------------------------------------------------------------
 # B3LYP/6-311++G(d,p) empiricaldispersion=gd3bj scf=xqc pop=npa geom=c
 heck
 ----------------------------------------------------------------------

 --------------------------------------
 CID_117668413_JID_625_Energie_neutraal
 --------------------------------------
 Structure from the checkpoint file:  "JID_625.chk"
 Charge =  0 Multiplicity = 1

 SCF Done:  E(RB3LYP) =  -536.955612165     A.U. after   13 cycles
 Normal termination of Gaussian 16 at Tue Dec  8 13:58:30 2020.

 ----------------------------------------------------------------------
 # B3LYP/6-311++G(d,p) empiricaldispersion=gd3bj scf=xqc pop=npa geom=c
 heck
 ----------------------------------------------------------------------

 ------------------------------------
 CID_117668413_JID_625_Energie_kation
 ------------------------------------
 Structure from the checkpoint file:  "JID_625.chk"
 Charge =  1 Multiplicity = 2

 SCF Done:  E(UB3LYP) =  -536.614336421     A.U. after   21 cycles
 Normal termination of Gaussian 16 at Tue Dec  8 14:05:18 2020.
 Gaussian 16:  ES64L-G16RevA.03 25-Dec-2016

 -----------------------------------
 CID_117668413_JID_625_Energie_anion
 -----------------------------------
 Structure from the checkpoint file:  "JID_625.chk"
 Charge = -1 Multiplicity = 2

                         Standard orientation:
 ---------------------------------------------------------------------
 Center     Atomic      Atomic             Coordinates (Angstroms)
 Number     Number       Type             X           Y           Z
 ---------------------------------------------------------------------
      1          6           0        2.015113   -2.534821    0.275122
      2          8           0        1.307170   -1.559108   -0.456372
      3          6           0        1.242871   -0.315088    0.219362
      4          6           0        0.440323    0.661739   -0.638221
      5          6           0       -0.940738    0.102239   -1.007607
      6          6           0       -1.865220   -0.183711    0.154135
      7          8           0       -1.663009    0.045125    1.329155
      8          8           0       -3.018314   -0.754208   -0.273726
      9          6           0        0.355623    2.050517    0.013287
     10          8           0        1.633081    2.671224    0.144357
     11          1           0        2.005607   -3.454146   -0.316105
     12          1           0        1.544858   -2.730513    1.252146
     13          1           0        3.060442   -2.232625    0.449871
     14          1           0        0.770206   -0.439369    1.205019
     15          1           0        2.259818    0.082376    0.372909
     16          1           0        0.989296    0.785760   -1.580351
     17          1           0       -1.467909    0.791903   -1.680060
     18          1           0       -0.821533   -0.832359   -1.564297
     19          1           0       -3.557245   -0.901798    0.526224
     20          1           0       -0.232217    2.711024   -0.633995
     21          1           0       -0.159903    1.987027    0.978888
     22          1           0        2.049320    2.323203    0.945973
 ---------------------------------------------------------------------

 SCF Done:  E(UB3LYP) =  -536.940473305     A.U. after   30 cycles

 The electronic state is 2-A.
 Alpha  occ. eigenvalues --  -19.06469 -19.02509 -19.02400 -19.01464 -10.20688
 Alpha  occ. eigenvalues --  -10.11445 -10.10936 -10.10823 -10.08543 -10.07959
 Alpha  occ. eigenvalues --   -1.00765  -0.93851  -0.92406  -0.91824  -0.71567
 Alpha  occ. eigenvalues --   -0.63244  -0.60195  -0.54559  -0.51905  -0.46514
 Alpha  occ. eigenvalues --   -0.42558  -0.39953  -0.39133  -0.38712  -0.37234
 Alpha  occ. eigenvalues --   -0.36822  -0.35215  -0.33170  -0.31983  -0.30773
 Alpha  occ. eigenvalues --   -0.29415  -0.27903  -0.26103  -0.25173  -0.23419
 Alpha  occ. eigenvalues --   -0.22374  -0.22215  -0.18492  -0.17540  -0.15990
 Alpha  occ. eigenvalues --    0.04679
 Alpha virt. eigenvalues --    0.06416   0.07307   0.07959   0.09446   0.09855
 Alpha virt. eigenvalues --    0.10349   0.11021   0.11671   0.12404   0.13068
 Alpha virt. eigenvalues --    0.13638   0.14721   0.15823   0.16271   0.17244

  Beta  occ. eigenvalues --  -19.06413 -19.02497 -19.02372 -19.01444 -10.20684
  Beta  occ. eigenvalues --  -10.11429 -10.10911 -10.10782 -10.08523 -10.07952
  Beta  occ. eigenvalues --   -1.00695  -0.93827  -0.92349  -0.91761  -0.71534
  Beta  occ. eigenvalues --   -0.63183  -0.60134  -0.54475  -0.51812  -0.46441
  Beta  occ. eigenvalues --   -0.42503  -0.39902  -0.39088  -0.38657  -0.37196
  Beta  occ. eigenvalues --   -0.36788  -0.35168  -0.33129  -0.31936  -0.30729
  Beta  occ. eigenvalues --   -0.29371  -0.27872  -0.26067  -0.25136  -0.23378
  Beta  occ. eigenvalues --   -0.22319  -0.22166  -0.18450  -0.17501  -0.15961
  Beta virt. eigenvalues --    0.07133   0.07830   0.08065   0.08854   0.09541
  Beta virt. eigenvalues --    0.10290   0.10939   0.11554   0.12015   0.12622
  Beta virt. eigenvalues --    0.13378   0.13789   0.14965   0.16144   0.16571

 Mulliken charges and spin densities:
               1          2
     1  C    0.983826  -1.233809
     2  O   -0.212291   0.073862
     3  C   -0.213508  -0.500093
     4  C   -0.521933   1.147771
     5  C    0.762086  -1.242995
     6  C    0.122011  -0.112098
     7  O   -0.263837  -0.016124
     8  O   -0.181148   0.044131
     9  C    0.318293  -0.915512
    10  O   -0.282266   0.007414
    11  H   -0.208107   0.342555
    12  H   -0.313922   0.447079
    13  H   -0.502734   0.634256
    14  H    0.199369  -0.011460
    15  H    0.016579   0.075557
    16  H    0.146985   0.072836
    17  H   -0.285776   0.486818
    18  H    0.176996   0.059467
    19  H   -0.591298   0.880777
    20  H   -0.030840   0.195416
    21  H   -0.019485   0.206868
    22  H   -0.099000   0.357282
 Sum of Mulliken charges =  -1.00000   1.00000

 Dipole moment (field-independent basis, Debye):
    X=              0.6488    Y=              1.8140    Z=             -1.9177  Tot=              2.7183
 Quadrupole moment (field-independent basis, Debye-Ang):
   XX=           -126.5662   YY=           -105.7767   ZZ=            -87.5339
   XY=             -3.1048   XZ=             -0.6241   YZ=              2.1256

 Summary of Natural Population Analysis:

                                       Natural Population
                Natural  -----------------------------------------------
    Atom  No    Charge         Core      Valence    Rydberg      Total
 -----------------------------------------------------------------------
      C    1   -0.09569      0.99962     2.08688    0.00918     3.09569
      O    2   -0.30120      0.99988     3.29168    0.00964     4.30120
      C    3   -0.01245      0.99954     1.99989    0.01301     3.01245
      C    4   -0.13015      0.99959     2.11860    0.01196     3.13015
      C    5   -0.24437      0.99955     2.23444    0.01039     3.24437
      C    6    0.41023      0.99972     1.56462    0.02543     2.58977
      O    7   -0.31111      0.99987     3.30491    0.00632     4.31111
      O    8   -0.34464      0.99988     3.33760    0.00716     4.34464
      C    9   -0.00976      0.99955     1.99829    0.01191     3.00976
      O   10   -0.37047      0.99990     3.36403    0.00654     4.37047
      H   11    0.08924      0.00000     0.40957    0.00120     0.41076
      H   12    0.07997      0.00000     0.41841    0.00162     0.42003
      H   13    0.07928      0.00000     0.41852    0.00220     0.42072
      H   14    0.08859      0.00000     0.40967    0.00174     0.41141
      H   15    0.08222      0.00000     0.41564    0.00214     0.41778
      H   16    0.10209      0.00000     0.39602    0.00189     0.39791
      H   17    0.11520      0.00000     0.38352    0.00128     0.38480
      H   18    0.12511      0.00000     0.37320    0.00169     0.37489
      H   19    0.24482      0.00000     0.23177    0.02341     0.25518
      H   20    0.08364      0.00000     0.41497    0.00139     0.41636
      H   21    0.08974      0.00000     0.40888    0.00138     0.41026
      H   22    0.22971      0.00000     0.26601    0.00428     0.27029
 =======================================================================
   * Total *   -0.00000      9.99711    29.84711    0.15578    40.00000

 Normal termination of Gaussian 16 at Tue Dec  8 14:13:50 2020.
