 Gaussian 16, Revision A.03,

 -----------------------------------------------------------
 # opt freq B3LYP/6-31G(d) empiricaldispersion=gd3bj scf=xqc
 -----------------------------------------------------------

 ------------------------------
 CID_80197182_JID_4853_neutraal
 ------------------------------
 Symbolic Z-matrix:
 Charge =  0 Multiplicity = 1

 SCF Done:  E(RB3LYP) =  -645.644237380     A.U. after   14 cycles
 SCF Done:  E(RB3LYP) =  -645.651397397     A.U. after   12 cycles
 SCF Done:  E(RB3LYP) =  -645.653082603     A.U. after   12 cycles
 SCF Done:  E(RB3LYP) =  -645.653659591     A.U. after   12 cycles
 SCF Done:  E(RB3LYP) =  -645.653914878     A.U. after   12 cycles
 SCF Done:  E(RB3LYP) =  -645.654010845     A.U. after   10 cycles
 SCF Done:  E(RB3LYP) =  -645.654092020     A.U. after   11 cycles
 SCF Done:  E(RB3LYP) =  -645.654122247     A.U. after   10 cycles
 SCF Done:  E(RB3LYP) =  -645.654142924     A.U. after   10 cycles
 SCF Done:  E(RB3LYP) =  -645.654146325     A.U. after    9 cycles
 SCF Done:  E(RB3LYP) =  -645.654146874     A.U. after    8 cycles
 SCF Done:  E(RB3LYP) =  -645.654146986     A.U. after    8 cycles
 SCF Done:  E(RB3LYP) =  -645.654147008     A.U. after    7 cycles
 Optimization completed.
    -- Stationary point found.
 Normal termination of Gaussian 16 at Thu Dec 10 10:43:27 2020.

 --------------------------------------------------------------------
 #N Geom=AllCheck Guess=TCheck SCRF=Check GenChk RB3LYP/6-31G(d) Freq
 --------------------------------------------------------------------

 Structure from the checkpoint file:  "JID_4853.chk"
 ------------------------------
 CID_80197182_JID_4853_neutraal
 ------------------------------
 Charge =  0 Multiplicity = 1

 SCF Done:  E(RB3LYP) =  -645.654147008     A.U. after    1 cycles

  Exact polarizability: 161.705  -0.153 131.524  -1.531   2.536  77.153
 Approx polarizability: 225.711   3.504 198.235  -6.318   7.611 120.394

                      1                      2                      3
                      A                      A                      A
 Frequencies --     49.4005                71.6663               118.2416
 Red. masses --      3.3180                 3.4749                 2.9699
 Frc consts  --      0.0048                 0.0105                 0.0245
 IR Inten    --      4.2937                 0.6781                 3.1845

                      4                      5                      6
                      A                      A                      A
 Frequencies --    144.7919               168.7207               179.4778
 Red. masses --      2.6070                 1.5547                 1.8890
 Frc consts  --      0.0322                 0.0261                 0.0359
 IR Inten    --      0.2524                 0.3185                 3.0143

                      7                      8                      9
                      A                      A                      A
 Frequencies --    210.4222               221.5160               264.4532
 Red. masses --      2.2660                 1.5075                 3.2889
 Frc consts  --      0.0591                 0.0436                 0.1355
 IR Inten    --      4.5546                 0.1812                14.2263

                     10                     11                     12
                      A                      A                      A
 Frequencies --    291.1104               318.8812               322.9896
 Red. masses --      3.1156                 4.0514                 2.4304
 Frc consts  --      0.1556                 0.2427                 0.1494
 IR Inten    --      6.1546                 5.6340                 3.1830

                     13                     14                     15
                      A                      A                      A
 Frequencies --    374.3533               395.8398               434.9146
 Red. masses --      2.3110                 3.2762                 4.1072
 Frc consts  --      0.1908                 0.3024                 0.4577
 IR Inten    --      2.4339                16.3494                 1.7597

                     16                     17                     18
                      A                      A                      A
 Frequencies --    496.4087               521.3149               538.6526
 Red. masses --      2.2340                 3.1655                 4.7833
 Frc consts  --      0.3244                 0.5069                 0.8177
 IR Inten    --      9.8198                 2.8676                14.3316

                     19                     20                     21
                      A                      A                      A
 Frequencies --    570.7485               657.6638               669.8838
 Red. masses --      2.6615                 5.5413                 3.1370
 Frc consts  --      0.5108                 1.4121                 0.8294
 IR Inten    --     16.8512                13.4507                39.6395

                     22                     23                     24
                      A                      A                      A
 Frequencies --    715.4145               746.8346               811.9431
 Red. masses --      8.4367                 2.7753                 6.1967
 Frc consts  --      2.5441                 0.9120                 2.4069
 IR Inten    --      1.8692                 7.7853                18.9208

                     25                     26                     27
                      A                      A                      A
 Frequencies --    838.7224               866.1274               902.2690
 Red. masses --      3.3560                 3.5487                 2.3059
 Frc consts  --      1.3909                 1.5685                 1.1060
 IR Inten    --      1.9726                 7.7664                 4.3843

                     28                     29                     30
                      A                      A                      A
 Frequencies --    924.0818               967.0516               982.5495
 Red. masses --      2.5375                 2.6515                 1.4607
 Frc consts  --      1.2767                 1.4610                 0.8309
 IR Inten    --     18.5942                17.0032                 1.9525

                     31                     32                     33
                      A                      A                      A
 Frequencies --   1000.2366              1068.2417              1093.0022
 Red. masses --      2.6676                 3.2037                 2.5659
 Frc consts  --      1.5725                 2.1540                 1.8061
 IR Inten    --      6.1957                15.1020                17.3702

                     34                     35                     36
                      A                      A                      A
 Frequencies --   1116.8182              1140.3279              1164.0002
 Red. masses --      3.2477                 1.8523                 1.5546
 Frc consts  --      2.3867                 1.4191                 1.2410
 IR Inten    --    154.7685                15.3767                 9.7071

                     37                     38                     39
                      A                      A                      A
 Frequencies --   1184.3380              1195.5733              1198.8656
 Red. masses --      1.2683                 2.5898                 2.6546
 Frc consts  --      1.0481                 2.1810                 2.2480
 IR Inten    --      0.7587                15.8497                56.9573

                     40                     41                     42
                      A                      A                      A
 Frequencies --   1207.9072              1241.7086              1258.0279
 Red. masses --      1.6298                 1.9136                 1.9068
 Frc consts  --      1.4010                 1.7384                 1.7780
 IR Inten    --     37.9015                63.8280                14.7043

                     43                     44                     45
                      A                      A                      A
 Frequencies --   1302.3240              1318.6831              1346.9014
 Red. masses --      1.6434                 4.7705                 1.2486
 Frc consts  --      1.6422                 4.8875                 1.3346
 IR Inten    --      8.2055                33.4139                 5.5339

                     46                     47                     48
                      A                      A                      A
 Frequencies --   1355.2207              1376.2813              1407.5215
 Red. masses --      2.7056                 1.9998                 1.5736
 Frc consts  --      2.9278                 2.2318                 1.8367
 IR Inten    --    214.4987                26.0189                 6.7578

                     49                     50                     51
                      A                      A                      A
 Frequencies --   1414.1842              1424.7558              1452.6177
 Red. masses --      1.4720                 1.5011                 1.7860
 Frc consts  --      1.7345                 1.7953                 2.2204
 IR Inten    --      2.2158                85.1906               202.3294

                     52                     53                     54
                      A                      A                      A
 Frequencies --   1462.0774              1488.6064              1497.8509
 Red. masses --      1.4921                 1.1915                 1.2611
 Frc consts  --      1.8792                 1.5556                 1.6670
 IR Inten    --     60.5860                16.3513                31.2798

                     55                     56                     57
                      A                      A                      A
 Frequencies --   1507.4881              1510.3911              1513.2873
 Red. masses --      1.1824                 1.0497                 1.0820
 Frc consts  --      1.5832                 1.4109                 1.4599
 IR Inten    --      6.0222                 4.8423                25.3970

                     58                     59                     60
                      A                      A                      A
 Frequencies --   1515.6416              1522.9583              1524.5356
 Red. masses --      1.1413                 1.1276                 1.0940
 Frc consts  --      1.5448                 1.5410                 1.4981
 IR Inten    --      1.7727                 2.2088                58.6101

                     61                     62                     63
                      A                      A                      A
 Frequencies --   1530.9633              1554.2737              1592.1033
 Red. masses --      1.5390                 1.4509                 8.3358
 Frc consts  --      2.1253                 2.0651                12.4491
 IR Inten    --     49.1856                29.9061               142.9049

                     64                     65                     66
                      A                      A                      A
 Frequencies --   1625.9878              2990.6349              3026.6142
 Red. masses --      6.6448                 1.0725                 1.0498
 Frc consts  --     10.3506                 5.6517                 5.6659
 IR Inten    --    407.8200                40.0643                69.4912

                     67                     68                     69
                      A                      A                      A
 Frequencies --   3029.8015              3046.0213              3067.5183
 Red. masses --      1.0603                 1.0615                 1.0298
 Frc consts  --      5.7346                 5.8028                 5.7093
 IR Inten    --     25.3823                49.4382                56.7335

                     70                     71                     72
                      A                      A                      A
 Frequencies --   3070.8405              3091.2502              3102.6730
 Red. masses --      1.1018                 1.1051                 1.0931
 Frc consts  --      6.1219                 6.2220                 6.1998
 IR Inten    --     49.5920                44.7809                 7.0891

                     73                     74                     75
                      A                      A                      A
 Frequencies --   3110.0777              3139.1169              3170.2454
 Red. masses --      1.0893                 1.1070                 1.1067
 Frc consts  --      6.2080                 6.4271                 6.5532
 IR Inten    --     60.8381                25.7563                29.1259

                     76                     77                     78
                      A                      A                      A
 Frequencies --   3175.8743              3179.3489              3479.8852
 Red. masses --      1.0906                 1.0985                 1.0727
 Frc consts  --      6.4808                 6.5419                 7.6537
 IR Inten    --     40.3051                 8.4825                 0.8037

 - Thermochemistry -
 -------------------
 Temperature   298.150 Kelvin.  Pressure   1.00000 Atm.
 Atom     1 has atomic number  6 and mass  12.00000

 Molecular mass:   194.11676 amu.
 Principal axes and moments of inertia in atomic units:
                           1         2         3
     Eigenvalues --  1591.761013097.147104497.72541
           X            0.99999   0.00385   0.00081
           Y           -0.00385   0.99998  -0.00551
           Z           -0.00083   0.00551   0.99998
 This molecule is an asymmetric top.
 Rotational symmetry number  1.
 Warning -- assumption of classical behavior for rotation
           may cause significant error
 Rotational temperatures (Kelvin)      0.05441     0.02797     0.01926
 Rotational constants (GHZ):           1.13380     0.58271     0.40126
 Zero-point vibrational energy     625467.8 (Joules/Mol)
                                  149.49039 (Kcal/Mol)
 Warning -- explicit consideration of  19 degrees of freedom as
           vibrations may cause significant error
 Vibrational temperatures:     71.08   103.11   170.12   208.32   242.75
          (Kelvin)            258.23   302.75   318.71   380.49   418.84
                              458.80   464.71   538.61   569.53   625.75
                              714.22   750.06   775.00   821.18   946.23
                              963.81  1029.32  1074.53  1168.21  1206.73
                             1246.16  1298.16  1329.55  1391.37  1413.67
                             1439.12  1536.96  1572.59  1606.85  1640.68
                             1674.74  1704.00  1720.16  1724.90  1737.91
                             1786.54  1810.02  1873.75  1897.29  1937.89
                             1949.86  1980.16  2025.11  2034.70  2049.91
                             2089.99  2103.60  2141.77  2155.07  2168.94
                             2173.12  2177.28  2180.67  2191.20  2193.47
                             2202.71  2236.25  2290.68  2339.43  4302.86
                             4354.62  4359.21  4382.55  4413.47  4418.25
                             4447.62  4464.05  4474.71  4516.49  4561.28
                             4569.37  4574.37  5006.78

 Zero-point correction=                           0.238228 (Hartree/Particle)
 Thermal correction to Energy=                    0.250968
 Thermal correction to Enthalpy=                  0.251913
 Thermal correction to Gibbs Free Energy=         0.199225
 Sum of electronic and zero-point Energies=           -645.415919
 Sum of electronic and thermal Energies=              -645.403179
 Sum of electronic and thermal Enthalpies=            -645.402234
 Sum of electronic and thermal Free Energies=         -645.454922

                     E (Thermal)             CV                S
                      KCal/Mol        Cal/Mol-Kelvin    Cal/Mol-Kelvin
 Total                  157.485             48.660            110.891
 Electronic               0.000              0.000              0.000
 Translational            0.889              2.981             41.695
 Rotational               0.889              2.981             31.473
 Vibrational            155.708             42.699             37.724
 Vibration     1          0.595              1.978              4.841
 Vibration     2          0.598              1.968              4.107
 Vibration     3          0.608              1.934              3.129
 Vibration     4          0.616              1.908              2.740
 Vibration     5          0.625              1.881              2.450
 Vibration     6          0.629              1.868              2.334
 Vibration     7          0.643              1.825              2.040
 Vibration     8          0.648              1.808              1.947
 Vibration     9          0.671              1.738              1.632
 Vibration    10          0.687              1.690              1.467
 Vibration    11          0.705              1.637              1.316
 Vibration    12          0.708              1.629              1.295
 Vibration    13          0.745              1.525              1.062
 Vibration    14          0.763              1.479              0.978
 Vibration    15          0.796              1.394              0.843
 Vibration    16          0.852              1.258              0.667
 Vibration    17          0.876              1.203              0.607
 Vibration    18          0.894              1.165              0.568
 Vibration    19          0.927              1.095              0.503

 Optimization completed.
    -- Stationary point found.
 Normal termination of Gaussian 16 at Thu Dec 10 10:51:06 2020.

 ----------------------------------------------------------------------
 # B3LYP/6-311++G(d,p) empiricaldispersion=gd3bj scf=xqc pop=npa geom=c
 heck
 ----------------------------------------------------------------------

 --------------------------------------
 CID_80197182_JID_4853_Energie_neutraal
 --------------------------------------
 Structure from the checkpoint file:  "JID_4853.chk"
 Charge =  0 Multiplicity = 1

 SCF Done:  E(RB3LYP) =  -645.830465765     A.U. after   14 cycles
 Normal termination of Gaussian 16 at Thu Dec 10 10:54:13 2020.

 ----------------------------------------------------------------------
 # B3LYP/6-311++G(d,p) empiricaldispersion=gd3bj scf=xqc pop=npa geom=c
 heck
 ----------------------------------------------------------------------

 ------------------------------------
 CID_80197182_JID_4853_Energie_kation
 ------------------------------------
 Structure from the checkpoint file:  "JID_4853.chk"
 Charge =  1 Multiplicity = 2

 SCF Done:  E(UB3LYP) =  -645.540806267     A.U. after   27 cycles
 Normal termination of Gaussian 16 at Thu Dec 10 11:01:49 2020.
 Gaussian 16:  ES64L-G16RevA.03 25-Dec-2016

 ----------------------------------------------------------------------
 # B3LYP/6-311++G(d,p) empiricaldispersion=gd3bj scf=xqc pop=npa geom=c
 heck
 ----------------------------------------------------------------------

 -----------------------------------
 CID_80197182_JID_4853_Energie_anion
 -----------------------------------
 Structure from the checkpoint file:  "JID_4853.chk"
 Charge = -1 Multiplicity = 2

                         Standard orientation:
 ---------------------------------------------------------------------
 Center     Atomic      Atomic             Coordinates (Angstroms)
 Number     Number       Type             X           Y           Z
 ---------------------------------------------------------------------
      1          6           0        2.722246    1.866503   -0.336537
      2          7           0        1.943576    0.631974   -0.227232
      3          6           0        2.597376   -0.397256    0.598984
      4          6           0        2.425245   -1.837845    0.122591
      5          6           0        0.987566   -2.346363    0.224050
      6          7           0        0.028487   -1.625791   -0.606885
      7          6           0       -0.323077   -0.301624   -0.221174
      8          6           0        0.565942    0.789419   -0.108886
      9          7           0        0.112928    2.051349    0.078904
     10          6           0       -1.197600    2.202195    0.209580
     11          7           0       -2.131778    1.249474    0.204011
     12          6           0       -1.684300    0.009548   -0.022801
     13          8           0       -2.570654   -0.995174   -0.089559
     14          6           0       -3.949289   -0.654247    0.084357
     15          1           0        2.819717    2.395964    0.622120
     16          1           0        2.240863    2.543226   -1.041428
     17          1           0        3.719025    1.608342   -0.706551
     18          1           0        2.255682   -0.312929    1.643945
     19          1           0        3.664001   -0.157615    0.597093
     20          1           0        2.769756   -1.914147   -0.917783
     21          1           0        3.083823   -2.476109    0.728131
     22          1           0        0.949029   -3.404657   -0.062312
     23          1           0        0.637104   -2.283379    1.261587
     24          1           0        0.333519   -1.635072   -1.578847
     25          1           0       -1.554039    3.221428    0.350891
     26          1           0       -4.124680   -0.213422    1.069811
     27          1           0       -4.277853    0.056761   -0.678941
     28          1           0       -4.487854   -1.598023   -0.013820
 ---------------------------------------------------------------------

 SCF Done:  E(UB3LYP) =  -645.814629245     A.U. after   33 cycles
 SCF Done:  E(UB3LYP) =  -645.814629245     a.u. after    1 cycles

 The electronic state is 2-A.
 Alpha  occ. eigenvalues --  -19.06263 -14.23317 -14.20874 -14.20513 -14.20262
 Alpha  occ. eigenvalues --  -10.17014 -10.14916 -10.13994 -10.12557 -10.10701
 Alpha  occ. eigenvalues --  -10.10107 -10.09217 -10.08965 -10.06326  -0.98915
 Alpha  occ. eigenvalues --   -0.89272  -0.84572  -0.81321  -0.77309  -0.69396
 Alpha  occ. eigenvalues --   -0.65447  -0.62635  -0.59627  -0.57893  -0.53726
 Alpha  occ. eigenvalues --   -0.50873  -0.48489  -0.44842  -0.43825  -0.41137
 Alpha  occ. eigenvalues --   -0.38937  -0.38252  -0.37243  -0.35955  -0.35398
 Alpha  occ. eigenvalues --   -0.33658  -0.33222  -0.32383  -0.31293  -0.29795
 Alpha  occ. eigenvalues --   -0.29152  -0.27667  -0.25862  -0.25577  -0.24675
 Alpha  occ. eigenvalues --   -0.24484  -0.20872  -0.20645  -0.17370  -0.15900
 Alpha  occ. eigenvalues --   -0.12708  -0.12505   0.04595
 Alpha virt. eigenvalues --    0.06137   0.06803   0.07575   0.08007   0.08375
 Alpha virt. eigenvalues --    0.08559   0.09188   0.10017   0.10156   0.10584
 Alpha virt. eigenvalues --    0.10974   0.11423   0.12169   0.12985   0.13700

  Beta  occ. eigenvalues --  -19.06248 -14.23320 -14.20870 -14.20485 -14.20253
  Beta  occ. eigenvalues --  -10.16973 -10.14903 -10.13986 -10.12533 -10.10711
  Beta  occ. eigenvalues --  -10.10075 -10.09200 -10.08936 -10.06291  -0.98878
  Beta  occ. eigenvalues --   -0.89242  -0.84552  -0.81300  -0.77271  -0.69352
  Beta  occ. eigenvalues --   -0.65399  -0.62593  -0.59583  -0.57843  -0.53683
  Beta  occ. eigenvalues --   -0.50812  -0.48424  -0.44810  -0.43787  -0.41110
  Beta  occ. eigenvalues --   -0.38898  -0.38192  -0.37186  -0.35925  -0.35365
  Beta  occ. eigenvalues --   -0.33596  -0.33185  -0.32348  -0.31231  -0.29753
  Beta  occ. eigenvalues --   -0.29103  -0.27613  -0.25828  -0.25479  -0.24628
  Beta  occ. eigenvalues --   -0.24427  -0.20828  -0.20598  -0.17341  -0.15808
  Beta  occ. eigenvalues --   -0.12682  -0.12486
  Beta virt. eigenvalues --    0.06557   0.06963   0.07332   0.08018   0.08495
  Beta virt. eigenvalues --    0.08843   0.08973   0.09802   0.10299   0.10484
  Beta virt. eigenvalues --    0.10960   0.11319   0.12000   0.12701   0.13257

 Mulliken charges and spin densities:
               1          2
     1  C    0.564348  -0.917550
     2  N    0.013905   0.202086
     3  C    0.627906  -0.965327
     4  C    0.552456  -0.783143
     5  C   -0.229178  -0.069460
     6  N   -0.259998   0.219730
     7  C    0.126517  -0.698250
     8  C   -0.413212   0.017913
     9  N   -0.203908   0.058097
    10  C   -0.191225   0.192272
    11  N   -0.213584   0.059689
    12  C    0.565251  -0.260603
    13  O   -0.134755   0.020863
    14  C    0.567950  -0.879328
    15  H   -0.087150   0.255333
    16  H   -0.016623   0.178394
    17  H   -0.396613   0.546199
    18  H    0.043342   0.089154
    19  H   -0.612285   0.807735
    20  H   -0.085258   0.240633
    21  H   -0.581002   0.735750
    22  H   -0.353103   0.548459
    23  H    0.088284   0.059035
    24  H   -0.003709   0.275798
    25  H    0.014055   0.175942
    26  H   -0.059514   0.236933
    27  H   -0.149872   0.329396
    28  H   -0.173025   0.324250
 Sum of Mulliken charges =  -1.00000   1.00000

 Dipole moment (field-independent basis, Debye):
    X=             -4.7290    Y=              2.6662    Z=              0.0112  Tot=              5.4288
 Quadrupole moment (field-independent basis, Debye-Ang):
   XX=           -168.1543   YY=           -130.3817   ZZ=           -108.8099
   XY=              3.6446   XZ=             -2.2501   YZ=             -0.5066

 Summary of Natural Population Analysis:

                                       Natural Population
                Natural  -----------------------------------------------
    Atom  No    Charge         Core      Valence    Rydberg      Total
 -----------------------------------------------------------------------
      C    1   -0.17437      0.99964     2.16581    0.00891     3.17437
      N    2   -0.25784      0.99965     2.74619    0.01200     3.75784
      C    3   -0.08113      0.99959     2.06940    0.01215     3.08113
      C    4   -0.20216      0.99962     2.19288    0.00967     3.20216
      C    5   -0.08371      0.99961     2.07210    0.01200     3.08371
      N    6   -0.33570      0.99972     2.82392    0.01206     3.83570
      C    7    0.00615      0.99939     1.98320    0.01127     2.99385
      C    8    0.21726      0.99947     1.76937    0.01389     2.78274
      N    9   -0.27479      0.99967     2.76543    0.00969     3.77479
      C   10    0.15356      0.99967     1.82827    0.01851     2.84644
      N   11   -0.29262      0.99967     2.78288    0.01007     3.79262
      C   12    0.28949      0.99943     1.69479    0.01629     2.71051
      O   13   -0.25871      0.99985     3.25008    0.00879     4.25871
      C   14   -0.10091      0.99959     2.09304    0.00827     3.10091
      H   15    0.09002      0.00000     0.40854    0.00145     0.40998
      H   16    0.10415      0.00000     0.39447    0.00138     0.39585
      H   17    0.09696      0.00000     0.40166    0.00138     0.40304
      H   18    0.08635      0.00000     0.41215    0.00150     0.41365
      H   19    0.10535      0.00000     0.39137    0.00328     0.39465
      H   20    0.09725      0.00000     0.40021    0.00254     0.40275
      H   21    0.10392      0.00000     0.39345    0.00263     0.39608
      H   22    0.09552      0.00000     0.40323    0.00125     0.40448
      H   23    0.09097      0.00000     0.40763    0.00140     0.40903
      H   24    0.17751      0.00000     0.31970    0.00279     0.32249
      H   25    0.08032      0.00000     0.41861    0.00107     0.41968
      H   26    0.08835      0.00000     0.40970    0.00195     0.41165
      H   27    0.08958      0.00000     0.40830    0.00213     0.41042
      H   28    0.08925      0.00000     0.40931    0.00144     0.41075
 =======================================================================
   * Total *    0.00000     13.99458    37.81567    0.18975    52.00000

 Normal termination of Gaussian 16 at Thu Dec 10 11:10:44 2020.
