 Gaussian 16, Revision A.03,

 -----------------------------------------------------------
 # opt freq B3LYP/6-31G(d) empiricaldispersion=gd3bj scf=xqc
 -----------------------------------------------------------

 ------------------------------
 CID_65133991_JID_3894_neutraal
 ------------------------------
 Symbolic Z-matrix:
 Charge =  0 Multiplicity = 1

 SCF Done:  E(RB3LYP) =  -904.663542062     A.U. after   15 cycles
 SCF Done:  E(RB3LYP) =  -904.667165666     A.U. after   12 cycles
 SCF Done:  E(RB3LYP) =  -904.667174613     A.U. after   12 cycles
 SCF Done:  E(RB3LYP) =  -904.667483421     A.U. after   14 cycles
 SCF Done:  E(RB3LYP) =  -904.668251202     A.U. after   12 cycles
 SCF Done:  E(RB3LYP) =  -904.668206271     A.U. after   12 cycles
 SCF Done:  E(RB3LYP) =  -904.668878136     A.U. after   12 cycles
 SCF Done:  E(RB3LYP) =  -904.668442730     A.U. after   14 cycles
 SCF Done:  E(RB3LYP) =  -904.669003461     A.U. after   13 cycles
 SCF Done:  E(RB3LYP) =  -904.670525128     A.U. after   13 cycles
 SCF Done:  E(RB3LYP) =  -904.672905697     A.U. after   10 cycles
 SCF Done:  E(RB3LYP) =  -904.672906431     A.U. after    9 cycles
 SCF Done:  E(RB3LYP) =  -904.672906846     A.U. after    9 cycles
 SCF Done:  E(RB3LYP) =  -904.672907010     A.U. after    8 cycles
 SCF Done:  E(RB3LYP) =  -904.672907125     A.U. after    7 cycles
 Optimization completed.
    -- Stationary point found.
 Normal termination of Gaussian 16 at Mon Dec 14 13:28:54 2020.

 --------------------------------------------------------------------
 #N Geom=AllCheck Guess=TCheck SCRF=Check GenChk RB3LYP/6-31G(d) Freq
 --------------------------------------------------------------------

 Structure from the checkpoint file:  "JID_3894.chk"
 ------------------------------
 CID_65133991_JID_3894_neutraal
 ------------------------------
 Charge =  0 Multiplicity = 1

 SCF Done:  E(RB3LYP) =  -904.672907125     A.U. after    1 cycles

  Exact polarizability: 174.862  -7.910 123.442  -3.936   1.113 107.648
 Approx polarizability: 214.709 -10.591 191.960  -3.902  11.848 171.502

                      1                      2                      3
                      A                      A                      A
 Frequencies --     21.2973                24.5192                37.0840
 Red. masses --      3.8028                 3.7531                 3.6039
 Frc consts  --      0.0010                 0.0013                 0.0029
 IR Inten    --      0.0670                 0.3296                 0.6650

                      4                      5                      6
                      A                      A                      A
 Frequencies --     60.7470                72.3530               110.2000
 Red. masses --      2.6454                 2.8436                 5.3528
 Frc consts  --      0.0058                 0.0088                 0.0383
 IR Inten    --      0.6823                 1.5968                 3.7854

                      7                      8                      9
                      A                      A                      A
 Frequencies --    138.6772               168.2296               202.8450
 Red. masses --      5.4055                 3.4757                 3.0783
 Frc consts  --      0.0612                 0.0580                 0.0746
 IR Inten    --      1.9531                 5.2475                 0.5696

                     10                     11                     12
                      A                      A                      A
 Frequencies --    243.6357               249.3892               285.9464
 Red. masses --      1.4669                 1.4231                 1.4423
 Frc consts  --      0.0513                 0.0521                 0.0695
 IR Inten    --      1.2431                 1.0080                 0.3898

                     13                     14                     15
                      A                      A                      A
 Frequencies --    292.4221               307.8743               321.7956
 Red. masses --      1.5224                 1.8850                 2.1202
 Frc consts  --      0.0767                 0.1053                 0.1294
 IR Inten    --      2.4796                 3.1190                 0.2862

                     16                     17                     18
                      A                      A                      A
 Frequencies --    325.2144               358.6257               371.5905
 Red. masses --      1.5196                 2.1908                 2.4152
 Frc consts  --      0.0947                 0.1660                 0.1965
 IR Inten    --      0.0042                 0.9401                 1.5722

                     19                     20                     21
                      A                      A                      A
 Frequencies --    402.9399               423.5821               431.2086
 Red. masses --      2.4482                 2.4479                 2.1127
 Frc consts  --      0.2342                 0.2588                 0.2315
 IR Inten    --      0.4328                 0.3501                 4.7455

                     22                     23                     24
                      A                      A                      A
 Frequencies --    448.1626               527.4732               570.2147
 Red. masses --      2.2344                 3.3903                 3.1105
 Frc consts  --      0.2644                 0.5558                 0.5959
 IR Inten    --      5.1006                 2.2278                 4.8712

                     25                     26                     27
                      A                      A                      A
 Frequencies --    598.4463               663.7971               725.2315
 Red. masses --      2.6964                 1.7249                 4.1921
 Frc consts  --      0.5690                 0.4478                 1.2991
 IR Inten    --      6.9482                 4.8840                 3.2133

                     28                     29                     30
                      A                      A                      A
 Frequencies --    744.7879               820.5446               825.8447
 Red. masses --      2.0799                 2.9633                 2.2177
 Frc consts  --      0.6798                 1.1755                 0.8911
 IR Inten    --     10.4745                 1.2466                10.2156

                     31                     32                     33
                      A                      A                      A
 Frequencies --    875.4985               905.6743               935.9563
 Red. masses --      2.0124                 1.9808                 2.3195
 Frc consts  --      0.9088                 0.9573                 1.1972
 IR Inten    --      2.5532                 3.8231                 0.5356

                     34                     35                     36
                      A                      A                      A
 Frequencies --    938.9850               946.9923               957.5049
 Red. masses --      1.3589                 1.6953                 1.6389
 Frc consts  --      0.7059                 0.8957                 0.8853
 IR Inten    --     34.6497                 0.4804                 1.4884

                     37                     38                     39
                      A                      A                      A
 Frequencies --    988.6308               991.8394              1032.4889
 Red. masses --      1.1984                 1.5196                 1.4826
 Frc consts  --      0.6901                 0.8808                 0.9312
 IR Inten    --      0.0870                 0.4385                 3.1010

                     40                     41                     42
                      A                      A                      A
 Frequencies --   1045.3067              1057.7437              1064.7438
 Red. masses --      1.2117                 1.5506                 1.3991
 Frc consts  --      0.7801                 1.0222                 0.9346
 IR Inten    --     13.6983                 5.6837                 0.1622

                     43                     44                     45
                      A                      A                      A
 Frequencies --   1079.4701              1118.9560              1141.0142
 Red. masses --      1.9837                 1.6478                 1.8981
 Frc consts  --      1.3619                 1.2156                 1.4559
 IR Inten    --     22.4049                14.4257                 9.4120

                     46                     47                     48
                      A                      A                      A
 Frequencies --   1204.1439              1209.8270              1227.2938
 Red. masses --      1.2621                 1.8643                 1.4420
 Frc consts  --      1.0782                 1.6078                 1.2797
 IR Inten    --      4.4154                58.5055                46.3084

                     49                     50                     51
                      A                      A                      A
 Frequencies --   1251.4119              1258.2962              1263.6900
 Red. masses --      1.3930                 2.4966                 1.9838
 Frc consts  --      1.2853                 2.3290                 1.8665
 IR Inten    --     15.5459                 9.4449                 0.5640

                     52                     53                     54
                      A                      A                      A
 Frequencies --   1278.9058              1321.9769              1337.5560
 Red. masses --      1.5768                 1.2294                 1.2124
 Frc consts  --      1.5195                 1.2658                 1.2780
 IR Inten    --      2.8630                10.7347                 1.6627

                     55                     56                     57
                      A                      A                      A
 Frequencies --   1369.3890              1400.7787              1413.7792
 Red. masses --      1.4201                 1.3986                 1.6805
 Frc consts  --      1.5690                 1.6169                 1.9790
 IR Inten    --     11.3767                 9.2775                33.7277

                     58                     59                     60
                      A                      A                      A
 Frequencies --   1429.6736              1431.4697              1459.4626
 Red. masses --      1.2282                 1.2301                 1.2130
 Frc consts  --      1.4791                 1.4850                 1.5223
 IR Inten    --      5.9481                 8.2963                 6.0869

                     61                     62                     63
                      A                      A                      A
 Frequencies --   1477.2501              1480.0479              1486.5806
 Red. masses --      1.1857                 1.0982                 1.0863
 Frc consts  --      1.5245                 1.4173                 1.4144
 IR Inten    --      2.0858                13.5271                14.1877

                     64                     65                     66
                      A                      A                      A
 Frequencies --   1507.9910              1511.0149              1516.4374
 Red. masses --      1.0467                 1.0882                 1.0473
 Frc consts  --      1.4024                 1.4639                 1.4189
 IR Inten    --      0.6700                 3.4731                 2.9992

                     67                     68                     69
                      A                      A                      A
 Frequencies --   1523.6398              1524.8424              1535.2249
 Red. masses --      1.0478                 1.1144                 1.0510
 Frc consts  --      1.4331                 1.5267                 1.4595
 IR Inten    --      2.8760                15.0056                 6.1214

                     70                     71                     72
                      A                      A                      A
 Frequencies --   1539.7178              1556.0715              1733.9119
 Red. masses --      1.0521                 1.0490                 4.4655
 Frc consts  --      1.4695                 1.4965                 7.9100
 IR Inten    --      2.6153                 6.0773                 6.2597

                     73                     74                     75
                      A                      A                      A
 Frequencies --   1789.6648              3040.8602              3044.1529
 Red. masses --     10.2548                 1.0637                 1.0418
 Frc consts  --     19.3518                 5.7949                 5.6883
 IR Inten    --     98.5585                11.6173                18.1691

                     76                     77                     78
                      A                      A                      A
 Frequencies --   3046.0180              3050.1679              3052.7797
 Red. masses --      1.0368                 1.0627                 1.0393
 Frc consts  --      5.6677                 5.8251                 5.7066
 IR Inten    --     14.0866                16.6132                47.7495

                     79                     80                     81
                      A                      A                      A
 Frequencies --   3055.9257              3073.5798              3080.9050
 Red. masses --      1.0619                 1.0915                 1.0641
 Frc consts  --      5.8426                 6.0751                 5.9511
 IR Inten    --     25.3831                 8.1264                 8.6476

                     82                     83                     84
                      A                      A                      A
 Frequencies --   3092.1849              3104.4127              3110.7821
 Red. masses --      1.1013                 1.1022                 1.1005
 Frc consts  --      6.2042                 6.2582                 6.2746
 IR Inten    --     20.5010                25.2533                 3.3824

                     85                     86                     87
                      A                      A                      A
 Frequencies --   3111.6896              3117.9519              3132.6156
 Red. masses --      1.0976                 1.0971                 1.1024
 Frc consts  --      6.2619                 6.2837                 6.3737
 IR Inten    --     11.9216                45.5386                20.0230

                     88                     89                     90
                      A                      A                      A
 Frequencies --   3139.5654              3144.6915              3152.7418
 Red. masses --      1.0814                 1.1030                 1.1029
 Frc consts  --      6.2802                 6.4269                 6.4590
 IR Inten    --     34.2200                 7.3455                 3.4212

                     91                     92                     93
                      A                      A                      A
 Frequencies --   3155.1930              3158.6769              3233.3877
 Red. masses --      1.0681                 1.1002                 1.1156
 Frc consts  --      6.2646                 6.4675                 6.8718
 IR Inten    --      6.4080                13.4728                21.7606

 - Thermochemistry -
 -------------------
 Temperature   298.150 Kelvin.  Pressure   1.00000 Atm.
 Atom     1 has atomic number  6 and mass  12.00000

 Molecular mass:   200.12349 amu.
 Principal axes and moments of inertia in atomic units:
                           1         2         3
     Eigenvalues --  1074.606676410.886486573.94200
           X            0.99994  -0.00971  -0.00461
           Y            0.00901   0.99103  -0.13334
           Z            0.00586   0.13329   0.99106
 This molecule is an asymmetric top.
 Rotational symmetry number  1.
 Warning -- assumption of classical behavior for rotation
           may cause significant error
 Rotational temperatures (Kelvin)      0.08060     0.01351     0.01318
 Rotational constants (GHZ):           1.67944     0.28151     0.27453
 Zero-point vibrational energy     765573.0 (Joules/Mol)
                                  182.97635 (Kcal/Mol)
 Warning -- explicit consideration of  25 degrees of freedom as
           vibrations may cause significant error
 Vibrational temperatures:     30.64    35.28    53.36    87.40   104.10
          (Kelvin)            158.55   199.53   242.04   291.85   350.54
                              358.82   411.41   420.73   442.96   462.99
                              467.91   515.98   534.64   579.74   609.44
                              620.41   644.81   758.92   820.41   861.03
                              955.06  1043.45  1071.58  1180.58  1188.21
                             1259.65  1303.06  1346.63  1350.99  1362.51
                             1377.64  1422.42  1427.04  1485.52  1503.96
                             1521.86  1531.93  1553.12  1609.93  1641.66
                             1732.49  1740.67  1765.80  1800.50  1810.41
                             1818.17  1840.06  1902.03  1924.44  1970.25
                             2015.41  2034.11  2056.98  2059.57  2099.84
                             2125.43  2129.46  2138.86  2169.66  2174.01
                             2181.82  2192.18  2193.91  2208.85  2215.31
                             2238.84  2494.71  2574.93  4375.12  4379.86
                             4382.54  4388.51  4392.27  4396.80  4422.20
                             4432.74  4448.96  4466.56  4475.72  4477.03
                             4486.04  4507.14  4517.13  4524.51  4536.09
                             4539.62  4544.63  4652.12

 Zero-point correction=                           0.291591 (Hartree/Particle)
 Thermal correction to Energy=                    0.307887
 Thermal correction to Enthalpy=                  0.308831
 Thermal correction to Gibbs Free Energy=         0.246028
 Sum of electronic and zero-point Energies=           -904.381316
 Sum of electronic and thermal Energies=              -904.365021
 Sum of electronic and thermal Enthalpies=            -904.364076
 Sum of electronic and thermal Free Energies=         -904.426879

                     E (Thermal)             CV                S
                      KCal/Mol        Cal/Mol-Kelvin    Cal/Mol-Kelvin
 Total                  193.202             59.635            132.179
 Electronic               0.000              0.000              0.000
 Translational            0.889              2.981             41.786
 Rotational               0.889              2.981             32.182
 Vibrational            191.424             53.673             58.210
 Vibration     1          0.593              1.985              6.509
 Vibration     2          0.593              1.985              6.230
 Vibration     3          0.594              1.982              5.409
 Vibration     4          0.597              1.973              4.433
 Vibration     5          0.598              1.967              4.088
 Vibration     6          0.606              1.941              3.265
 Vibration     7          0.614              1.915              2.822
 Vibration     8          0.625              1.882              2.455
 Vibration     9          0.639              1.836              2.107
 Vibration    10          0.659              1.773              1.776
 Vibration    11          0.662              1.764              1.735
 Vibration    12          0.684              1.700              1.498
 Vibration    13          0.688              1.688              1.460
 Vibration    14          0.698              1.659              1.374
 Vibration    15          0.707              1.632              1.301
 Vibration    16          0.709              1.625              1.284
 Vibration    17          0.733              1.558              1.128
 Vibration    18          0.743              1.531              1.073
 Vibration    19          0.768              1.464              0.952
 Vibration    20          0.786              1.419              0.880
 Vibration    21          0.792              1.402              0.855
 Vibration    22          0.807              1.365              0.801
 Vibration    23          0.882              1.189              0.593
 Vibration    24          0.926              1.096              0.504
 Vibration    25          0.956              1.035              0.452

                           ! Non-Optimized Parameters !
 Normal termination of Gaussian 16 at Mon Dec 14 13:36:50 2020.

 ----------------------------------------------------------------------
 # B3LYP/6-311++G(d,p) empiricaldispersion=gd3bj scf=xqc pop=npa geom=c
 heck
 ----------------------------------------------------------------------

 --------------------------------------
 CID_65133991_JID_3894_Energie_neutraal
 --------------------------------------
 Structure from the checkpoint file:  "JID_3894.chk"
 Charge =  0 Multiplicity = 1

 SCF Done:  E(RB3LYP) =  -904.846191396     A.U. after   15 cycles
 Normal termination of Gaussian 16 at Mon Dec 14 13:40:35 2020.

 ----------------------------------------------------------------------
 # B3LYP/6-311++G(d,p) empiricaldispersion=gd3bj scf=xqc pop=npa geom=c
 heck
 ----------------------------------------------------------------------

 ------------------------------------
 CID_65133991_JID_3894_Energie_kation
 ------------------------------------
 Structure from the checkpoint file:  "JID_3894.chk"
 Charge =  1 Multiplicity = 2

 SCF Done:  E(UB3LYP) =  -904.547841911     A.U. after   23 cycles
 Normal termination of Gaussian 16 at Mon Dec 14 13:48:07 2020.
 Gaussian 16:  ES64L-G16RevA.03 25-Dec-2016

 ----------------------------------------------------------------------
 # B3LYP/6-311++G(d,p) empiricaldispersion=gd3bj scf=xqc pop=npa geom=c
 heck
 ----------------------------------------------------------------------

 -----------------------------------
 CID_65133991_JID_3894_Energie_anion
 -----------------------------------
 Structure from the checkpoint file:  "JID_3894.chk"
 Charge = -1 Multiplicity = 2

                         Standard orientation:
 ---------------------------------------------------------------------
 Center     Atomic      Atomic             Coordinates (Angstroms)
 Number     Number       Type             X           Y           Z
 ---------------------------------------------------------------------
      1          6           0       -4.253787    0.156764   -0.689174
      2          6           0       -2.860978    0.332765   -0.066911
      3          6           0       -2.159601    1.546662   -0.690893
      4          6           0       -2.968052    0.486751    1.452428
      5         16           0       -1.973890   -1.255154   -0.525866
      6          6           0       -0.576245   -1.379337    0.661963
      7          6           0        0.448003   -0.264710    0.507897
      8          8           0        0.506058    0.632029    1.333529
      9          6           0        1.335508   -0.310987   -0.721936
     10          6           0        2.311942    0.859887   -0.851030
     11          6           0        3.433288    0.895869    0.209587
     12          6           0        4.288274   -0.341006    0.224772
     13          6           0        5.553983   -0.400299   -0.190441
     14          1           0       -4.840093    1.069830   -0.530978
     15          1           0       -4.789588   -0.682067   -0.234661
     16          1           0       -4.191137   -0.017509   -1.769281
     17          1           0       -2.747377    2.452217   -0.490830
     18          1           0       -1.164703    1.700235   -0.267393
     19          1           0       -2.067656    1.431765   -1.775259
     20          1           0       -3.430323   -0.394587    1.909129
     21          1           0       -1.989274    0.654862    1.909718
     22          1           0       -3.595717    1.357218    1.681290
     23          1           0       -0.942043   -1.393915    1.690168
     24          1           0       -0.126995   -2.350794    0.428905
     25          1           0        1.864814   -1.274302   -0.725401
     26          1           0        0.666058   -0.354948   -1.591244
     27          1           0        2.770034    0.815953   -1.846345
     28          1           0        1.747810    1.798083   -0.795093
     29          1           0        4.066372    1.769653    0.012617
     30          1           0        2.973823    1.044819    1.193172
     31          1           0        3.819873   -1.251319    0.601885
     32          1           0        6.125855   -1.324034   -0.165256
     33          1           0        6.070036    0.480910   -0.567098
 ---------------------------------------------------------------------

 SCF Done:  E(UB3LYP) =  -904.835904200     A.U. after   33 cycles
 SCF Done:  E(UB3LYP) =  -904.835904200     a.u. after    1 cycles

 The electronic state is 2-A.
 Alpha  occ. eigenvalues --  -88.72265 -18.97181 -10.11267 -10.10865 -10.08127
 Alpha  occ. eigenvalues --  -10.07787 -10.06690 -10.06657 -10.06633 -10.06094
 Alpha  occ. eigenvalues --  -10.05831 -10.05585 -10.05554  -7.80902  -5.77300
 Alpha  occ. eigenvalues --   -5.76927  -5.76257  -0.91024  -0.72763  -0.70918
 Alpha  occ. eigenvalues --   -0.66873  -0.64941  -0.59239  -0.58894  -0.58574
 Alpha  occ. eigenvalues --   -0.54362  -0.50692  -0.45508  -0.43224  -0.40142
 Alpha  occ. eigenvalues --   -0.38269  -0.36555  -0.35331  -0.34758  -0.34309
 Alpha  occ. eigenvalues --   -0.33858  -0.32830  -0.31805  -0.29865  -0.29705
 Alpha  occ. eigenvalues --   -0.28812  -0.28182  -0.27292  -0.26633  -0.25867
 Alpha  occ. eigenvalues --   -0.24865  -0.24066  -0.23874  -0.23494  -0.22508
 Alpha  occ. eigenvalues --   -0.21251  -0.19051  -0.16587  -0.13498  -0.10711
 Alpha  occ. eigenvalues --    0.04743
 Alpha virt. eigenvalues --    0.06546   0.07076   0.07921   0.08475   0.08947
 Alpha virt. eigenvalues --    0.09070   0.09255   0.10059   0.10398   0.10705
 Alpha virt. eigenvalues --    0.11205   0.11593   0.12248   0.12635   0.12956

  Beta  occ. eigenvalues --  -88.72236 -18.96862 -10.10948 -10.10866 -10.08130
  Beta  occ. eigenvalues --  -10.07776 -10.06662 -10.06655 -10.06631 -10.06060
  Beta  occ. eigenvalues --  -10.05851 -10.05573 -10.05545  -7.80868  -5.77259
  Beta  occ. eigenvalues --   -5.76892  -5.76233  -0.90406  -0.72721  -0.70884
  Beta  occ. eigenvalues --   -0.66677  -0.64861  -0.59122  -0.58848  -0.58545
  Beta  occ. eigenvalues --   -0.54165  -0.50622  -0.45408  -0.43099  -0.39725
  Beta  occ. eigenvalues --   -0.38191  -0.36471  -0.35112  -0.34668  -0.34241
  Beta  occ. eigenvalues --   -0.33817  -0.32688  -0.31670  -0.29682  -0.29580
  Beta  occ. eigenvalues --   -0.28775  -0.27815  -0.27246  -0.26597  -0.25556
  Beta  occ. eigenvalues --   -0.24780  -0.23856  -0.23736  -0.23451  -0.22449
  Beta  occ. eigenvalues --   -0.20497  -0.18874  -0.16504  -0.13316  -0.10554
  Beta virt. eigenvalues --    0.06860   0.07199   0.08064   0.08740   0.08987
  Beta virt. eigenvalues --    0.09123   0.09294   0.10116   0.10289   0.10758
  Beta virt. eigenvalues --    0.10836   0.11287   0.11769   0.12471   0.12655

 Mulliken charges and spin densities:
               1          2
     1  C    0.718875  -1.219778
     2  C   -0.796247   1.481089
     3  C   -0.459129  -0.269205
     4  C   -0.031044  -0.773090
     5  S    0.744831  -0.775650
     6  C    0.166131  -0.732568
     7  C   -0.661863   0.994797
     8  O   -0.270937   0.095132
     9  C    0.004999  -0.300480
    10  C   -0.149540  -0.112084
    11  C    0.003551  -0.276786
    12  C   -0.460875   0.667016
    13  C    0.309122  -0.942462
    14  H   -0.333507   0.466980
    15  H   -0.161449   0.299770
    16  H   -0.104263   0.249076
    17  H    0.033492   0.103540
    18  H    0.157355   0.043047
    19  H    0.061791   0.068631
    20  H   -0.022797   0.189535
    21  H    0.155036   0.039498
    22  H    0.072215   0.046042
    23  H    0.175605   0.031908
    24  H   -0.343058   0.577315
    25  H   -0.073550   0.222573
    26  H    0.114615   0.008088
    27  H    0.120862   0.009796
    28  H    0.165325  -0.033249
    29  H   -0.033767   0.182548
    30  H    0.176758   0.005488
    31  H   -0.101790   0.271460
    32  H   -0.196213   0.308112
    33  H    0.019465   0.073908
 Sum of Mulliken charges =  -1.00000   1.00000

 Dipole moment (field-independent basis, Debye):
    X=              1.1352    Y=              2.5170    Z=             -0.6944  Tot=              2.8472
 Quadrupole moment (field-independent basis, Debye-Ang):
   XX=           -179.6382   YY=           -123.5986   ZZ=           -113.8204
   XY=              6.8709   XZ=             -5.6929   YZ=             -4.2263

 Summary of Natural Population Analysis:

                                       Natural Population
                Natural  -----------------------------------------------
    Atom  No    Charge         Core      Valence    Rydberg      Total
 -----------------------------------------------------------------------
      C    1   -0.29083      0.99961     2.28317    0.00805     3.29083
      C    2   -0.09456      0.99958     2.08113    0.01385     3.09456
      C    3   -0.29316      0.99959     2.28589    0.00767     3.29316
      C    4   -0.29785      0.99959     2.29091    0.00735     3.29785
      S    5    0.09921      4.99958     2.88560    0.01562     7.90079
      C    6   -0.29349      0.99954     2.28261    0.01134     3.29349
      C    7    0.31567      0.99965     1.66207    0.02261     2.68433
      O    8   -0.27661      0.99987     3.27078    0.00595     4.27661
      C    9   -0.24544      0.99958     2.23755    0.00832     3.24544
      C   10   -0.18241      0.99963     2.17477    0.00802     3.18241
      C   11   -0.21253      0.99961     2.20411    0.00881     3.21253
      C   12   -0.07841      0.99957     2.06767    0.01117     3.07841
      C   13   -0.19822      0.99956     2.19183    0.00683     3.19822
      H   14    0.10148      0.00000     0.39680    0.00172     0.39852
      H   15    0.10406      0.00000     0.39472    0.00121     0.39594
      H   16    0.10190      0.00000     0.39715    0.00095     0.39810
      H   17    0.09608      0.00000     0.40299    0.00092     0.40392
      H   18    0.11075      0.00000     0.38806    0.00119     0.38925
      H   19    0.09994      0.00000     0.39919    0.00087     0.40006
      H   20    0.10116      0.00000     0.39798    0.00086     0.39884
      H   21    0.11441      0.00000     0.38435    0.00125     0.38559
      H   22    0.09889      0.00000     0.40016    0.00095     0.40111
      H   23    0.10804      0.00000     0.39060    0.00136     0.39196
      H   24    0.11458      0.00000     0.38290    0.00252     0.38542
      H   25    0.10861      0.00000     0.38963    0.00176     0.39139
      H   26    0.11498      0.00000     0.38387    0.00116     0.38502
      H   27    0.09269      0.00000     0.40622    0.00109     0.40731
      H   28    0.10108      0.00000     0.39771    0.00121     0.39892
      H   29    0.09325      0.00000     0.40548    0.00126     0.40675
      H   30    0.11550      0.00000     0.38318    0.00132     0.38450
      H   31    0.09334      0.00000     0.40536    0.00130     0.40666
      H   32    0.09225      0.00000     0.40647    0.00129     0.40775
      H   33    0.08567      0.00000     0.41289    0.00144     0.41433
 =======================================================================
   * Total *    0.00000     16.99496    37.84381    0.16123    55.00000

 Normal termination of Gaussian 16 at Mon Dec 14 13:58:57 2020.
