 Gaussian 16, Revision A.03,

 -----------------------------------------------------------
 # opt freq B3LYP/6-31G(d) empiricaldispersion=gd3bj scf=xqc
 -----------------------------------------------------------

 -------------------------------
 CID_135200617_JID_4595_neutraal
 -------------------------------
 Symbolic Z-matrix:
 Charge =  0 Multiplicity = 1

 SCF Done:  E(RB3LYP) =  -596.373955354     A.U. after   15 cycles
 SCF Done:  E(RB3LYP) =  -596.376880999     A.U. after   12 cycles
 SCF Done:  E(RB3LYP) =  -596.377270535     A.U. after   11 cycles
 SCF Done:  E(RB3LYP) =  -596.377384969     A.U. after   11 cycles
 SCF Done:  E(RB3LYP) =  -596.377411687     A.U. after    9 cycles
 SCF Done:  E(RB3LYP) =  -596.377424701     A.U. after    9 cycles
 SCF Done:  E(RB3LYP) =  -596.377429684     A.U. after    8 cycles
 SCF Done:  E(RB3LYP) =  -596.377431499     A.U. after    8 cycles
 SCF Done:  E(RB3LYP) =  -596.377433312     A.U. after    8 cycles
 SCF Done:  E(RB3LYP) =  -596.377434385     A.U. after    8 cycles
 SCF Done:  E(RB3LYP) =  -596.377434733     A.U. after    7 cycles
 SCF Done:  E(RB3LYP) =  -596.377434782     A.U. after    7 cycles
 Optimization completed.
    -- Stationary point found.
 Normal termination of Gaussian 16 at Thu Dec 10 10:08:55 2020.

 --------------------------------------------------------------------
 #N Geom=AllCheck Guess=TCheck SCRF=Check GenChk RB3LYP/6-31G(d) Freq
 --------------------------------------------------------------------

 Structure from the checkpoint file:  "JID_4595.chk"
 -------------------------------
 CID_135200617_JID_4595_neutraal
 -------------------------------
 Charge =  0 Multiplicity = 1

 SCF Done:  E(RB3LYP) =  -596.377434782     A.U. after    1 cycles

  Exact polarizability: 159.748   6.197 150.458 -11.712   5.617  79.667
 Approx polarizability: 226.548  19.042 243.990 -22.820  14.877 121.983

                      1                      2                      3
                      A                      A                      A
 Frequencies --     44.4343                60.6997                81.8202
 Red. masses --      2.9441                 3.4788                 3.3217
 Frc consts  --      0.0034                 0.0076                 0.0131
 IR Inten    --      0.0336                 0.1461                 0.0703

                      4                      5                      6
                      A                      A                      A
 Frequencies --     97.7309               191.5514               221.0441
 Red. masses --      5.5582                 3.5013                 2.8817
 Frc consts  --      0.0313                 0.0757                 0.0830
 IR Inten    --      0.6983                 0.2929                 0.3239

                      7                      8                      9
                      A                      A                      A
 Frequencies --    235.9705               244.7255               273.3193
 Red. masses --      1.0731                 2.8415                 1.2460
 Frc consts  --      0.0352                 0.1003                 0.0548
 IR Inten    --      0.0620                 0.4242                 0.0895

                     10                     11                     12
                      A                      A                      A
 Frequencies --    305.8328               311.1698               377.3882
 Red. masses --      3.6420                 2.6634                 3.7080
 Frc consts  --      0.2007                 0.1519                 0.3112
 IR Inten    --      0.6058                 0.1501                 1.9242

                     13                     14                     15
                      A                      A                      A
 Frequencies --    401.8810               422.0047               456.6330
 Red. masses --      2.4469                 1.8702                 1.2391
 Frc consts  --      0.2328                 0.1962                 0.1522
 IR Inten    --      0.0689                 0.5372                64.9206

                     16                     17                     18
                      A                      A                      A
 Frequencies --    495.2848               534.2575               552.3608
 Red. masses --      5.0281                 3.5066                 2.6908
 Frc consts  --      0.7267                 0.5897                 0.4837
 IR Inten    --      4.0871                11.5637                30.8167

                     19                     20                     21
                      A                      A                      A
 Frequencies --    555.1976               581.2379               609.3798
 Red. masses --      3.0934                 3.5911                 6.2138
 Frc consts  --      0.5618                 0.7148                 1.3595
 IR Inten    --     15.5583                13.8186                 3.9637

                     22                     23                     24
                      A                      A                      A
 Frequencies --    651.7839               752.0262               773.3699
 Red. masses --      5.2018                 4.3540                 1.6566
 Frc consts  --      1.3020                 1.4508                 0.5838
 IR Inten    --      8.5121                 7.4686                24.9242

                     25                     26                     27
                      A                      A                      A
 Frequencies --    791.9576               832.6524               867.4829
 Red. masses --      2.7238                 2.6126                 4.8483
 Frc consts  --      1.0065                 1.0672                 2.1496
 IR Inten    --      7.3603                 0.6991                 3.4593

                     28                     29                     30
                      A                      A                      A
 Frequencies --    879.2598               907.2022               910.0249
 Red. masses --      1.8440                 2.1657                 1.4798
 Frc consts  --      0.8399                 1.0502                 0.7220
 IR Inten    --      1.8160                 7.4208                 0.7996

                     31                     32                     33
                      A                      A                      A
 Frequencies --    940.3566               954.6822               962.6327
 Red. masses --      1.2225                 1.3039                 1.8850
 Frc consts  --      0.6369                 0.7002                 1.0292
 IR Inten    --      2.1943                 0.1754                 0.5953

                     34                     35                     36
                      A                      A                      A
 Frequencies --    976.0130               977.6331              1005.4232
 Red. masses --      2.2797                 1.5327                 3.0182
 Frc consts  --      1.2795                 0.8631                 1.7976
 IR Inten    --      4.3288                 0.5609                 5.7251

                     37                     38                     39
                      A                      A                      A
 Frequencies --   1084.1645              1135.1324              1150.4442
 Red. masses --      2.0145                 1.5846                 2.1063
 Frc consts  --      1.3951                 1.2030                 1.6425
 IR Inten    --      8.0908                 3.4191                 0.5077

                     40                     41                     42
                      A                      A                      A
 Frequencies --   1170.6536              1194.5638              1202.3630
 Red. masses --      1.1721                 1.5292                 1.5703
 Frc consts  --      0.9464                 1.2857                 1.3375
 IR Inten    --      0.2562                34.5893                21.6152

                     43                     44                     45
                      A                      A                      A
 Frequencies --   1210.1612              1228.5999              1256.1589
 Red. masses --      1.8806                 1.7483                 1.6132
 Frc consts  --      1.6226                 1.5549                 1.4998
 IR Inten    --     18.9944                62.9830                 2.3069

                     46                     47                     48
                      A                      A                      A
 Frequencies --   1284.8427              1292.8083              1317.1621
 Red. masses --      3.9835                 1.7443                 2.8172
 Frc consts  --      3.8745                 1.7177                 2.8797
 IR Inten    --     39.0995                16.5274                22.4477

                     49                     50                     51
                      A                      A                      A
 Frequencies --   1332.1755              1363.2770              1387.2349
 Red. masses --      1.3895                 2.4127                 1.3813
 Frc consts  --      1.4529                 2.6420                 1.5661
 IR Inten    --     12.8038                38.8625                 3.7884

                     52                     53                     54
                      A                      A                      A
 Frequencies --   1389.1086              1429.5353              1430.0931
 Red. masses --      1.4983                 1.6838                 1.7333
 Frc consts  --      1.7034                 2.0274                 2.0885
 IR Inten    --      2.6200                10.0494                16.6702

                     55                     56                     57
                      A                      A                      A
 Frequencies --   1448.5127              1468.4242              1500.5402
 Red. masses --      1.2374                 1.1407                 3.0225
 Frc consts  --      1.5297                 1.4491                 4.0097
 IR Inten    --      3.8707                 6.4067                75.5949

                     58                     59                     60
                      A                      A                      A
 Frequencies --   1515.6649              1521.3091              1528.4861
 Red. masses --      1.0652                 1.0665                 1.0781
 Frc consts  --      1.4417                 1.4542                 1.4841
 IR Inten    --      0.9570                 0.1101                 3.0317

                     61                     62                     63
                      A                      A                      A
 Frequencies --   1535.1854              1535.4126              1541.1539
 Red. masses --      1.3421                 1.8024                 1.0486
 Frc consts  --      1.8637                 2.5035                 1.4674
 IR Inten    --      2.3171                18.0837                14.1490

                     64                     65                     66
                      A                      A                      A
 Frequencies --   1665.6447              1676.8532              1847.1011
 Red. masses --      6.4010                 7.1414                11.0448
 Frc consts  --     10.4631                11.8311                22.2019
 IR Inten    --      3.5564                38.4613               572.2261

                     67                     68                     69
                      A                      A                      A
 Frequencies --   3019.3518              3028.6591              3035.6286
 Red. masses --      1.0756                 1.0657                 1.0403
 Frc consts  --      5.7772                 5.7596                 5.6481
 IR Inten    --      2.3900                25.6440                22.1816

                     70                     71                     72
                      A                      A                      A
 Frequencies --   3042.2545              3069.4038              3070.5679
 Red. masses --      1.0421                 1.0607                 1.0997
 Frc consts  --      5.6827                 5.8878                 6.1088
 IR Inten    --     48.7658                 8.0170                21.2541

                     73                     74                     75
                      A                      A                      A
 Frequencies --   3099.6925              3104.2909              3105.6974
 Red. masses --      1.0980                 1.1027                 1.0990
 Frc consts  --      6.2154                 6.2611                 6.2455
 IR Inten    --      9.7579                 3.6423                62.1015

                     76                     77                     78
                      A                      A                      A
 Frequencies --   3114.0600              3129.3714              3176.6865
 Red. masses --      1.1022                 1.1012                 1.0875
 Frc consts  --      6.2973                 6.3538                 6.4660
 IR Inten    --     40.3014                31.8627                 8.7527

                     79                     80                     81
                      A                      A                      A
 Frequencies --   3191.0993              3209.6615              3655.7433
 Red. masses --      1.0895                 1.0958                 1.0784
 Frc consts  --      6.5368                 6.6513                 8.4917
 IR Inten    --     12.7249                25.1598                30.5932

 - Thermochemistry -
 -------------------
 Temperature   298.150 Kelvin.  Pressure   1.00000 Atm.
 Atom     1 has atomic number  6 and mass  12.00000

 Molecular mass:   189.11536 amu.
 Principal axes and moments of inertia in atomic units:
                           1         2         3
     Eigenvalues --  1877.706823413.422024872.90521
           X            0.99877  -0.04952  -0.00347
           Y            0.04950   0.99876  -0.00437
           Z            0.00368   0.00419   0.99998
 This molecule is an asymmetric top.
 Rotational symmetry number  1.
 Warning -- assumption of classical behavior for rotation
           may cause significant error
 Rotational temperatures (Kelvin)      0.04613     0.02537     0.01777
 Rotational constants (GHZ):           0.96114     0.52872     0.37036
 Zero-point vibrational energy     651554.2 (Joules/Mol)
                                  155.72520 (Kcal/Mol)
 Warning -- explicit consideration of  21 degrees of freedom as
           vibrations may cause significant error
 Vibrational temperatures:     63.93    87.33   117.72   140.61   275.60
          (Kelvin)            318.03   339.51   352.11   393.25   440.03
                              447.70   542.98   578.22   607.17   656.99
                              712.60   768.68   794.72   798.81   836.27
                              876.76   937.77  1082.00  1112.71  1139.45
                             1198.00  1248.11  1265.06  1305.26  1309.32
                             1352.96  1373.57  1385.01  1404.26  1406.60
                             1446.58  1559.87  1633.20  1655.23  1684.31
                             1718.71  1729.93  1741.15  1767.68  1807.33
                             1848.60  1860.06  1895.10  1916.70  1961.45
                             1995.92  1998.62  2056.78  2057.59  2084.09
                             2112.73  2158.94  2180.70  2188.82  2199.15
                             2208.79  2209.12  2217.38  2396.49  2412.62
                             2657.57  4344.17  4357.56  4367.59  4377.13
                             4416.19  4417.86  4459.77  4466.38  4468.41
                             4480.44  4502.47  4570.54  4591.28  4617.99
                             5259.80

 Zero-point correction=                           0.248164 (Hartree/Particle)
 Thermal correction to Energy=                    0.261088
 Thermal correction to Enthalpy=                  0.262032
 Thermal correction to Gibbs Free Energy=         0.208612
 Sum of electronic and zero-point Energies=           -596.129271
 Sum of electronic and thermal Energies=              -596.116347
 Sum of electronic and thermal Enthalpies=            -596.115403
 Sum of electronic and thermal Free Energies=         -596.168823

                     E (Thermal)             CV                S
                      KCal/Mol        Cal/Mol-Kelvin    Cal/Mol-Kelvin
 Total                  163.835             50.605            112.432
 Electronic               0.000              0.000              0.000
 Translational            0.889              2.981             41.617
 Rotational               0.889              2.981             31.813
 Vibrational            162.058             44.643             39.001
 Vibration     1          0.595              1.980              5.051
 Vibration     2          0.597              1.973              4.434
 Vibration     3          0.600              1.962              3.847
 Vibration     4          0.603              1.951              3.499
 Vibration     5          0.634              1.852              2.213
 Vibration     6          0.648              1.809              1.951
 Vibration     7          0.655              1.786              1.833
 Vibration     8          0.660              1.772              1.768
 Vibration     9          0.676              1.723              1.575
 Vibration    10          0.696              1.663              1.385
 Vibration    11          0.700              1.652              1.356
 Vibration    12          0.748              1.518              1.050
 Vibration    13          0.767              1.466              0.956
 Vibration    14          0.784              1.422              0.885
 Vibration    15          0.815              1.346              0.776
 Vibration    16          0.851              1.260              0.670
 Vibration    17          0.889              1.174              0.578
 Vibration    18          0.908              1.135              0.539
 Vibration    19          0.911              1.128              0.534
 Vibration    20          0.938              1.072              0.483
 Vibration    21          0.968              1.012              0.434

 Optimization completed.
    -- Stationary point found.
 Normal termination of Gaussian 16 at Thu Dec 10 10:17:53 2020.

 ----------------------------------------------------------------------
 # B3LYP/6-311++G(d,p) empiricaldispersion=gd3bj scf=xqc pop=npa geom=c
 heck
 ----------------------------------------------------------------------

 ---------------------------------------
 CID_135200617_JID_4595_Energie_neutraal
 ---------------------------------------
 Structure from the checkpoint file:  "JID_4595.chk"
 Charge =  0 Multiplicity = 1

 SCF Done:  E(RB3LYP) =  -596.540522171     A.U. after   15 cycles
 Normal termination of Gaussian 16 at Thu Dec 10 10:21:14 2020.

 ----------------------------------------------------------------------
 # B3LYP/6-311++G(d,p) empiricaldispersion=gd3bj scf=xqc pop=npa geom=c
 heck
 ----------------------------------------------------------------------

 -------------------------------------
 CID_135200617_JID_4595_Energie_kation
 -------------------------------------
 Structure from the checkpoint file:  "JID_4595.chk"
 Charge =  1 Multiplicity = 2

 SCF Done:  E(UB3LYP) =  -596.247811499     A.U. after   24 cycles
 Normal termination of Gaussian 16 at Thu Dec 10 10:29:12 2020.
 Gaussian 16:  ES64L-G16RevA.03 25-Dec-2016

 ----------------------------------------------------------------------
 # B3LYP/6-311++G(d,p) empiricaldispersion=gd3bj scf=xqc pop=npa geom=c
 heck
 ----------------------------------------------------------------------

 ------------------------------------
 CID_135200617_JID_4595_Energie_anion
 ------------------------------------
 Structure from the checkpoint file:  "JID_4595.chk"
 Charge = -1 Multiplicity = 2

                         Standard orientation:
 ---------------------------------------------------------------------
 Center     Atomic      Atomic             Coordinates (Angstroms)
 Number     Number       Type             X           Y           Z
 ---------------------------------------------------------------------
      1          6           0        2.117046   -1.207658    1.281624
      2          6           0        2.767491   -0.215628    0.311797
      3          6           0        4.105204   -0.752140   -0.208913
      4          6           0        1.834798    0.136544   -0.870420
      5          6           0        0.551396    0.817344   -0.460480
      6          6           0        0.508603    2.201641   -0.224272
      7          6           0       -0.655894    2.851633    0.180564
      8          6           0       -1.842683    2.128452    0.364368
      9          6           0       -1.832607    0.761825    0.138989
     10          6           0       -0.643966    0.126998   -0.263715
     11          7           0       -0.894361   -1.244742   -0.422250
     12          6           0       -2.205329   -1.590730   -0.134220
     13          8           0       -2.668339   -2.712784   -0.176774
     14          6           0       -2.917627   -0.279711    0.242649
     15          1           0        1.912820   -2.164984    0.782777
     16          1           0        1.172457   -0.824061    1.679320
     17          1           0        2.779737   -1.416963    2.128624
     18          1           0        2.958262    0.717967    0.860535
     19          1           0        3.958694   -1.681752   -0.774094
     20          1           0        4.594787   -0.031017   -0.873761
     21          1           0        4.791555   -0.970926    0.616839
     22          1           0        2.380012    0.794017   -1.559040
     23          1           0        1.621285   -0.780690   -1.437964
     24          1           0        1.419529    2.777572   -0.370650
     25          1           0       -0.644104    3.924212    0.348707
     26          1           0       -2.753803    2.631795    0.676015
     27          1           0       -0.203877   -1.941671   -0.658744
     28          1           0       -3.755340   -0.112676   -0.444532
     29          1           0       -3.343347   -0.376777    1.248075
 ---------------------------------------------------------------------

 SCF Done:  E(UB3LYP) =  -596.528328050     A.U. after   33 cycles
 SCF Done:  E(UB3LYP) =  -596.528328050     a.u. after    1 cycles

 The electronic state is 2-A.
 Alpha  occ. eigenvalues --  -19.00613 -14.25745 -10.18733 -10.11755 -10.09517
 Alpha  occ. eigenvalues --  -10.08183 -10.08123 -10.07725 -10.07617 -10.07318
 Alpha  occ. eigenvalues --  -10.07154 -10.07042 -10.05808 -10.05619  -0.95593
 Alpha  occ. eigenvalues --   -0.86647  -0.75418  -0.71888  -0.68835  -0.65137
 Alpha  occ. eigenvalues --   -0.61861  -0.58703  -0.58319  -0.51842  -0.51230
 Alpha  occ. eigenvalues --   -0.48584  -0.46204  -0.43478  -0.38560  -0.38065
 Alpha  occ. eigenvalues --   -0.37237  -0.36365  -0.35065  -0.34261  -0.33919
 Alpha  occ. eigenvalues --   -0.32283  -0.31050  -0.30057  -0.29556  -0.28667
 Alpha  occ. eigenvalues --   -0.27848  -0.27491  -0.26260  -0.25550  -0.23634
 Alpha  occ. eigenvalues --   -0.22889  -0.22723  -0.21599  -0.17263  -0.14889
 Alpha  occ. eigenvalues --   -0.12215   0.04403
 Alpha virt. eigenvalues --    0.06404   0.06895   0.07217   0.07961   0.08609
 Alpha virt. eigenvalues --    0.08810   0.08932   0.10092   0.10490   0.10880
 Alpha virt. eigenvalues --    0.11339   0.11770   0.11974   0.12484   0.12931

  Beta  occ. eigenvalues --  -19.00608 -14.25728 -10.18718 -10.11763 -10.09511
  Beta  occ. eigenvalues --  -10.08161 -10.08058 -10.07717 -10.07582 -10.07296
  Beta  occ. eigenvalues --  -10.07154 -10.06982 -10.05774 -10.05577  -0.95575
  Beta  occ. eigenvalues --   -0.86617  -0.75344  -0.71828  -0.68765  -0.65076
  Beta  occ. eigenvalues --   -0.61789  -0.58631  -0.58238  -0.51781  -0.51193
  Beta  occ. eigenvalues --   -0.48478  -0.46119  -0.43414  -0.38509  -0.37968
  Beta  occ. eigenvalues --   -0.37187  -0.36329  -0.35012  -0.34184  -0.33869
  Beta  occ. eigenvalues --   -0.32246  -0.30990  -0.30005  -0.29492  -0.28625
  Beta  occ. eigenvalues --   -0.27773  -0.27405  -0.26214  -0.25497  -0.23580
  Beta  occ. eigenvalues --   -0.22826  -0.22678  -0.21506  -0.17250  -0.14591
  Beta  occ. eigenvalues --   -0.12088
  Beta virt. eigenvalues --    0.06624   0.07147   0.07353   0.07839   0.08457
  Beta virt. eigenvalues --    0.09042   0.09216   0.09342   0.10428   0.10869
  Beta virt. eigenvalues --    0.11219   0.11640   0.12047   0.12311   0.12660

 Mulliken charges and spin densities:
               1          2
     1  C    0.293782  -1.031928
     2  C   -1.796878   2.210979
     3  C    1.496593  -2.194155
     4  C    2.203159  -3.160185
     5  C   -0.561983   1.698460
     6  C   -0.557561   0.333257
     7  C    0.664561  -1.145334
     8  C   -0.300169  -0.158392
     9  C    0.031111   0.309243
    10  C   -0.390986   0.403287
    11  N   -0.115076  -0.004096
    12  C    0.030755   0.102195
    13  O   -0.364503   0.007578
    14  C    0.499143  -1.032497
    15  H   -0.079372   0.215763
    16  H    0.076744   0.075268
    17  H   -0.124890   0.264559
    18  H    0.020100   0.146987
    19  H   -0.174337   0.304828
    20  H   -0.445155   0.584518
    21  H   -0.213355   0.349302
    22  H   -0.135532   0.322396
    23  H   -0.112934   0.262660
    24  H   -0.477616   0.636650
    25  H   -0.267067   0.422481
    26  H   -0.387321   0.535189
    27  H    0.151065   0.179509
    28  H    0.146134   0.041348
    29  H   -0.108409   0.320128
 Sum of Mulliken charges =  -1.00000   1.00000

 Dipole moment (field-independent basis, Debye):
    X=             -3.6212    Y=             -0.0025    Z=             -0.0536  Tot=              3.6216
 Quadrupole moment (field-independent basis, Debye-Ang):
   XX=           -157.1320   YY=           -138.7532   ZZ=           -115.2366
   XY=             -4.4021   XZ=              8.3170   YZ=              0.8055

 Summary of Natural Population Analysis:

                                       Natural Population
                Natural  -----------------------------------------------
    Atom  No    Charge         Core      Valence    Rydberg      Total
 -----------------------------------------------------------------------
      C    1   -0.28531      0.99965     2.28057    0.00510     3.28531
      C    2   -0.11002      0.99961     2.10098    0.00943     3.11002
      C    3   -0.28347      0.99965     2.27779    0.00603     3.28347
      C    4   -0.19592      0.99959     2.18584    0.01049     3.19592
      C    5   -0.02841      0.99947     2.01776    0.01118     3.02841
      C    6   -0.08250      0.99952     2.07328    0.00970     3.08250
      C    7   -0.10914      0.99957     2.09991    0.00966     3.10914
      C    8   -0.09417      0.99951     2.08514    0.00952     3.09417
      C    9   -0.01989      0.99948     2.01094    0.00947     3.01989
      C   10    0.08213      0.99939     1.90818    0.01030     2.91787
      N   11   -0.30634      0.99963     2.79898    0.00772     3.80634
      C   12    0.35095      0.99971     1.62681    0.02254     2.64905
      O   13   -0.31370      0.99987     3.30797    0.00586     4.31370
      C   14   -0.24027      0.99957     2.23320    0.00750     3.24027
      H   15    0.09339      0.00000     0.40533    0.00128     0.40661
      H   16    0.10271      0.00000     0.39609    0.00119     0.39729
      H   17    0.10025      0.00000     0.39883    0.00093     0.39975
      H   18    0.09333      0.00000     0.40475    0.00192     0.40667
      H   19    0.09645      0.00000     0.40214    0.00141     0.40355
      H   20    0.10138      0.00000     0.39698    0.00164     0.39862
      H   21    0.09899      0.00000     0.39996    0.00106     0.40101
      H   22    0.10932      0.00000     0.38884    0.00184     0.39068
      H   23    0.09563      0.00000     0.40271    0.00165     0.40437
      H   24    0.10120      0.00000     0.39749    0.00131     0.39880
      H   25    0.09979      0.00000     0.39921    0.00100     0.40021
      H   26    0.10044      0.00000     0.39847    0.00109     0.39956
      H   27    0.20487      0.00000     0.29268    0.00246     0.29513
      H   28    0.11687      0.00000     0.38219    0.00094     0.38313
      H   29    0.12145      0.00000     0.37675    0.00180     0.37855
 =======================================================================
   * Total *    0.00000     13.99423    36.84977    0.15600    51.00000

 Normal termination of Gaussian 16 at Thu Dec 10 10:40:16 2020.
