 Gaussian 16, Revision A.03,

 -----------------------------------------------------------
 # opt freq B3LYP/6-31G(d) empiricaldispersion=gd3bj scf=xqc
 -----------------------------------------------------------

 -------------------------------
 CID_134859683_JID_5107_neutraal
 -------------------------------
 Symbolic Z-matrix:
 Charge =  0 Multiplicity = 1

 SCF Done:  E(RB3LYP) =  -633.192277698     A.U. after   16 cycles
 SCF Done:  E(RB3LYP) =  -633.196135672     A.U. after   13 cycles
 SCF Done:  E(RB3LYP) =  -633.196638663     A.U. after   12 cycles
 SCF Done:  E(RB3LYP) =  -633.196802522     A.U. after   12 cycles
 SCF Done:  E(RB3LYP) =  -633.196848822     A.U. after   11 cycles
 SCF Done:  E(RB3LYP) =  -633.196857604     A.U. after    9 cycles
 SCF Done:  E(RB3LYP) =  -633.196859805     A.U. after    9 cycles
 SCF Done:  E(RB3LYP) =  -633.196862444     A.U. after    9 cycles
 SCF Done:  E(RB3LYP) =  -633.196866764     A.U. after   10 cycles
 SCF Done:  E(RB3LYP) =  -633.196871765     A.U. after   10 cycles
 SCF Done:  E(RB3LYP) =  -633.196925202     A.U. after    7 cycles
 SCF Done:  E(RB3LYP) =  -633.196925229     A.U. after    7 cycles
 SCF Done:  E(RB3LYP) =  -633.196925272     A.U. after    7 cycles
 SCF Done:  E(RB3LYP) =  -633.196925305     A.U. after    7 cycles
 SCF Done:  E(RB3LYP) =  -633.196925320     A.U. after    7 cycles
 Optimization completed.
    -- Stationary point found.
 Normal termination of Gaussian 16 at Thu Dec 10 14:51:15 2020.

 --------------------------------------------------------------------
 #N Geom=AllCheck Guess=TCheck SCRF=Check GenChk RB3LYP/6-31G(d) Freq
 --------------------------------------------------------------------

 Structure from the checkpoint file:  "JID_5107.chk"
 -------------------------------
 CID_134859683_JID_5107_neutraal
 -------------------------------
 Charge =  0 Multiplicity = 1

 SCF Done:  E(RB3LYP) =  -633.196925320     A.U. after    1 cycles

  Exact polarizability: 239.941   4.433 151.043   1.784   7.621  71.422
 Approx polarizability: 341.144  21.425 292.794   2.881  14.426 113.999

                      1                      2                      3
                      A                      A                      A
 Frequencies --     33.1218                33.6464                61.0064
 Red. masses --      1.0479                 1.0320                 3.7029
 Frc consts  --      0.0007                 0.0007                 0.0081
 IR Inten    --      0.4358                 0.2392                 1.2618

                      4                      5                      6
                      A                      A                      A
 Frequencies --     66.1941                98.8897               142.8528
 Red. masses --      3.9453                 4.0911                 4.4575
 Frc consts  --      0.0102                 0.0236                 0.0536
 IR Inten    --      0.4359                 1.7990                 1.3952

                      7                      8                      9
                      A                      A                      A
 Frequencies --    183.8061               257.7625               279.6166
 Red. masses --      3.8252                 4.1635                 4.6625
 Frc consts  --      0.0761                 0.1630                 0.2148
 IR Inten    --      0.3688                 0.4246                 2.4075

                     10                     11                     12
                      A                      A                      A
 Frequencies --    315.2305               342.7036               367.3054
 Red. masses --      3.6974                 3.6554                 3.9467
 Frc consts  --      0.2165                 0.2529                 0.3137
 IR Inten    --      1.8524                 2.8463                 1.6319

                     13                     14                     15
                      A                      A                      A
 Frequencies --    388.0349               417.6096               478.1404
 Red. masses --      3.7121                 3.0789                 4.1524
 Frc consts  --      0.3293                 0.3164                 0.5593
 IR Inten    --      3.4468                 0.0954                 3.2766

                     16                     17                     18
                      A                      A                      A
 Frequencies --    480.8807               525.1593               556.4681
 Red. masses --      4.9374                 3.1277                 4.4172
 Frc consts  --      0.6727                 0.5082                 0.8059
 IR Inten    --      5.9549                 1.7533                 9.2159

                     19                     20                     21
                      A                      A                      A
 Frequencies --    587.5828               613.1126               659.2355
 Red. masses --      3.4437                 5.1175                 6.7892
 Frc consts  --      0.7005                 1.1334                 1.7384
 IR Inten    --      6.5938                 1.4753                 0.4005

                     22                     23                     24
                      A                      A                      A
 Frequencies --    716.4515               721.8604               740.0408
 Red. masses --      5.7231                 4.2889                 3.4989
 Frc consts  --      1.7308                 1.3167                 1.1290
 IR Inten    --      2.9318                 0.6323                 4.7129

                     25                     26                     27
                      A                      A                      A
 Frequencies --    805.1451               829.9390               833.4633
 Red. masses --      3.9671                 3.3556                 1.5548
 Frc consts  --      1.5152                 1.3618                 0.6363
 IR Inten    --     14.3378                 8.0019                22.4091

                     28                     29                     30
                      A                      A                      A
 Frequencies --    840.6458               855.0206               907.6270
 Red. masses --      1.7708                 1.2650                 1.4321
 Frc consts  --      0.7373                 0.5449                 0.6951
 IR Inten    --     23.6762                 3.6682                 2.9399

                     31                     32                     33
                      A                      A                      A
 Frequencies --    914.9455               943.9416               961.2710
 Red. masses --      3.8125                 1.2925                 1.3090
 Frc consts  --      1.8804                 0.6785                 0.7127
 IR Inten    --      3.4760                 1.0180                 0.3967

                     34                     35                     36
                      A                      A                      A
 Frequencies --    976.8574              1020.1484              1022.2475
 Red. masses --      1.3010                 1.5357                 1.5309
 Frc consts  --      0.7314                 0.9416                 0.9425
 IR Inten    --      2.1678                 4.5471                 9.2704

                     37                     38                     39
                      A                      A                      A
 Frequencies --   1043.9645              1074.1105              1074.5012
 Red. masses --      2.7232                 1.5631                 1.5116
 Frc consts  --      1.7487                 1.0625                 1.0283
 IR Inten    --      0.7151                 4.1141                13.4881

                     40                     41                     42
                      A                      A                      A
 Frequencies --   1078.5329              1154.0757              1158.4825
 Red. masses --      2.4361                 1.4490                 1.3393
 Frc consts  --      1.6696                 1.1370                 1.0590
 IR Inten    --      1.2152                 5.9809                 3.7935

                     43                     44                     45
                      A                      A                      A
 Frequencies --   1224.8113              1228.5474              1249.6143
 Red. masses --      1.4250                 1.7843                 2.8437
 Frc consts  --      1.2595                 1.5868                 2.6163
 IR Inten    --     15.0961                 2.4249                 0.1571

                     46                     47                     48
                      A                      A                      A
 Frequencies --   1260.1242              1296.3810              1335.8113
 Red. masses --      3.0981                 1.8731                 3.2488
 Frc consts  --      2.8985                 1.8547                 3.4156
 IR Inten    --      9.9092                15.6651                48.4203

                     49                     50                     51
                      A                      A                      A
 Frequencies --   1345.2760              1347.9571              1361.5848
 Red. masses --      2.4063                 3.0266                 2.3075
 Frc consts  --      2.5658                 3.2401                 2.5205
 IR Inten    --     19.0170                54.2881                20.5461

                     52                     53                     54
                      A                      A                      A
 Frequencies --   1441.9715              1442.3651              1447.1326
 Red. masses --      1.2702                 1.6737                 1.7565
 Frc consts  --      1.5560                 2.0515                 2.1673
 IR Inten    --      2.0244                16.0387                10.9321

                     55                     56                     57
                      A                      A                      A
 Frequencies --   1478.7807              1513.3964              1516.2797
 Red. masses --      2.7418                 1.0472                 1.2149
 Frc consts  --      3.5326                 1.4131                 1.6457
 IR Inten    --      9.9691                 6.2188                20.4054

                     58                     59                     60
                      A                      A                      A
 Frequencies --   1517.2126              1523.3722              1532.5969
 Red. masses --      1.2715                 1.2397                 1.6579
 Frc consts  --      1.7245                 1.6950                 2.2944
 IR Inten    --     39.9194                 4.1727                51.6824

                     61                     62                     63
                      A                      A                      A
 Frequencies --   1568.7939              1587.1006              1623.0717
 Red. masses --      2.6011                 5.2951                 5.4863
 Frc consts  --      3.7717                 7.8584                 8.5154
 IR Inten    --      6.4371                 4.9100                 1.5739

                     64                     65                     66
                      A                      A                      A
 Frequencies --   1674.5181              1688.9050              3042.2699
 Red. masses --      5.7772                 5.8340                 1.0398
 Frc consts  --      9.5443                 9.8046                 5.6700
 IR Inten    --     14.8960                 4.5195                38.9536

                     67                     68                     69
                      A                      A                      A
 Frequencies --   3044.7258              3095.8293              3098.6165
 Red. masses --      1.0377                 1.1010                 1.0965
 Frc consts  --      5.6680                 6.2173                 6.2030
 IR Inten    --     34.9645                17.3696                21.4294

                     70                     71                     72
                      A                      A                      A
 Frequencies --   3125.8505              3131.4719              3179.1338
 Red. masses --      1.1025                 1.1006                 1.0875
 Frc consts  --      6.3472                 6.3588                 6.4761
 IR Inten    --     16.6422                13.6861                18.2072

                     73                     74                     75
                      A                      A                      A
 Frequencies --   3181.4309              3200.5797              3203.0145
 Red. masses --      1.0899                 1.0934                 1.0907
 Frc consts  --      6.4995                 6.5989                 6.5928
 IR Inten    --     25.3358                11.5632                 8.0554

                     76                     77                     78
                      A                      A                      A
 Frequencies --   3214.8164              3263.3917              3269.9362
 Red. masses --      1.0900                 1.0922                 1.0940
 Frc consts  --      6.6373                 6.8533                 6.8921
 IR Inten    --      6.4280                 1.6310                 0.2611

 - Thermochemistry -
 -------------------
 Temperature   298.150 Kelvin.  Pressure   1.00000 Atm.
 Atom     1 has atomic number  6 and mass  12.00000

 Molecular mass:   199.09971 amu.
 Principal axes and moments of inertia in atomic units:
                           1         2         3
     Eigenvalues --  1284.383795394.990996479.65017
           X            0.99994   0.01062  -0.00102
           Y           -0.01061   0.99990   0.00986
           Z            0.00112  -0.00985   0.99995
 This molecule is an asymmetric top.
 Rotational symmetry number  1.
 Warning -- assumption of classical behavior for rotation
           may cause significant error
 Rotational temperatures (Kelvin)      0.06744     0.01605     0.01337
 Rotational constants (GHZ):           1.40514     0.33452     0.27852
 Zero-point vibrational energy     603027.4 (Joules/Mol)
                                  144.12700 (Kcal/Mol)
 Warning -- explicit consideration of  20 degrees of freedom as
           vibrations may cause significant error
 Vibrational temperatures:     47.65    48.41    87.77    95.24   142.28
          (Kelvin)            205.53   264.46   370.86   402.31   453.55
                              493.07   528.47   558.30   600.85   687.94
                              691.88   755.59   800.63   845.40   882.13
                              948.49  1030.81  1038.60  1064.75  1158.42
                             1194.10  1199.17  1209.50  1230.18  1305.87
                             1316.40  1358.12  1383.05  1405.48  1467.77
                             1470.79  1502.03  1545.41  1545.97  1551.77
                             1660.46  1666.80  1762.23  1767.61  1797.92
                             1813.04  1865.20  1921.93  1935.55  1939.41
                             1959.02  2074.68  2075.24  2082.10  2127.64
                             2177.44  2181.59  2182.93  2191.79  2205.07
                             2257.14  2283.48  2335.24  2409.26  2429.96
                             4377.15  4380.68  4454.21  4458.22  4497.40
                             4505.49  4574.06  4577.37  4604.92  4608.42
                             4625.40  4695.29  4704.71

 Zero-point correction=                           0.229681 (Hartree/Particle)
 Thermal correction to Energy=                    0.243092
 Thermal correction to Enthalpy=                  0.244036
 Thermal correction to Gibbs Free Energy=         0.187851
 Sum of electronic and zero-point Energies=           -632.967244
 Sum of electronic and thermal Energies=              -632.953833
 Sum of electronic and thermal Enthalpies=            -632.952889
 Sum of electronic and thermal Free Energies=         -633.009074

                     E (Thermal)             CV                S
                      KCal/Mol        Cal/Mol-Kelvin    Cal/Mol-Kelvin
 Total                  152.543             50.943            118.252
 Electronic               0.000              0.000              0.000
 Translational            0.889              2.981             41.771
 Rotational               0.889              2.981             32.174
 Vibrational            150.765             44.981             44.307
 Vibration     1          0.594              1.983              5.633
 Vibration     2          0.594              1.983              5.602
 Vibration     3          0.597              1.973              4.424
 Vibration     4          0.598              1.970              4.263
 Vibration     5          0.604              1.950              3.476
 Vibration     6          0.616              1.910              2.765
 Vibration     7          0.631              1.862              2.289
 Vibration     8          0.667              1.750              1.677
 Vibration     9          0.680              1.711              1.536
 Vibration    10          0.703              1.645              1.335
 Vibration    11          0.722              1.590              1.200
 Vibration    12          0.740              1.539              1.091
 Vibration    13          0.756              1.496              1.008
 Vibration    14          0.781              1.432              0.900
 Vibration    15          0.835              1.299              0.715
 Vibration    16          0.837              1.292              0.708
 Vibration    17          0.880              1.194              0.598
 Vibration    18          0.912              1.126              0.531
 Vibration    19          0.945              1.058              0.472
 Vibration    20          0.972              1.004              0.428

 Optimization completed.
    -- Stationary point found.
 Normal termination of Gaussian 16 at Thu Dec 10 14:58:26 2020.

 ----------------------------------------------------------------------
 # B3LYP/6-311++G(d,p) empiricaldispersion=gd3bj scf=xqc pop=npa geom=c
 heck
 ----------------------------------------------------------------------

 ---------------------------------------
 CID_134859683_JID_5107_Energie_neutraal
 ---------------------------------------
 Structure from the checkpoint file:  "JID_5107.chk"
 Charge =  0 Multiplicity = 1

 SCF Done:  E(RB3LYP) =  -633.362498056     A.U. after   16 cycles
 Normal termination of Gaussian 16 at Thu Dec 10 15:01:21 2020.

 ----------------------------------------------------------------------
 # B3LYP/6-311++G(d,p) empiricaldispersion=gd3bj scf=xqc pop=npa geom=c
 heck
 ----------------------------------------------------------------------

 -------------------------------------
 CID_134859683_JID_5107_Energie_kation
 -------------------------------------
 Structure from the checkpoint file:  "JID_5107.chk"
 Charge =  1 Multiplicity = 2

 SCF Done:  E(UB3LYP) =  -633.090482936     A.U. after   28 cycles
 Normal termination of Gaussian 16 at Thu Dec 10 15:08:09 2020.
 Gaussian 16:  ES64L-G16RevA.03 25-Dec-2016

 ----------------------------------------------------------------------
 # B3LYP/6-311++G(d,p) empiricaldispersion=gd3bj scf=xqc pop=npa geom=c
 heck
 ----------------------------------------------------------------------

 ------------------------------------
 CID_134859683_JID_5107_Energie_anion
 ------------------------------------
 Structure from the checkpoint file:  "JID_5107.chk"
 Charge = -1 Multiplicity = 2

                         Standard orientation:
 ---------------------------------------------------------------------
 Center     Atomic      Atomic             Coordinates (Angstroms)
 Number     Number       Type             X           Y           Z
 ---------------------------------------------------------------------
      1          6           0        4.993690   -0.508078    0.055689
      2          6           0        3.495503   -0.334810    0.046081
      3          6           0        2.658568   -1.295909   -0.530390
      4          6           0        1.278873   -1.117241   -0.563933
      5          6           0        0.684523    0.032727   -0.019884
      6          6           0        1.523819    1.005715    0.550467
      7          6           0        2.900009    0.812083    0.587356
      8          6           0       -0.785715    0.144403   -0.014291
      9          7           0       -1.382271    1.382476   -0.192986
     10          6           0       -2.752851    1.460725   -0.216816
     11          6           0       -3.559089    0.356539   -0.057731
     12          6           0       -2.997637   -0.912033    0.144653
     13          6           0       -1.607389   -0.972639    0.163904
     14          6           0       -3.854917   -2.134192    0.342143
     15          8           0       -0.700968    2.456298   -0.349952
     16          1           0        5.276559   -1.558359   -0.067728
     17          1           0        5.462069    0.056700   -0.761157
     18          1           0        5.432016   -0.144531    0.991529
     19          1           0        3.092316   -2.192119   -0.967195
     20          1           0        0.656878   -1.870136   -1.038932
     21          1           0        1.087826    1.908538    0.954478
     22          1           0        3.528904    1.573081    1.043452
     23          1           0       -3.111483    2.469085   -0.371196
     24          1           0       -4.636065    0.494559   -0.082958
     25          1           0       -1.115422   -1.922019    0.346252
     26          1           0       -4.522093   -2.019391    1.205144
     27          1           0       -4.489442   -2.321484   -0.532946
     28          1           0       -3.242739   -3.025373    0.508290
 ---------------------------------------------------------------------

 SCF Done:  E(UB3LYP) =  -633.366111914     A.U. after   33 cycles
 SCF Done:  E(UB3LYP) =  -633.366111914     a.u. after    1 cycles

 The electronic state is 2-A.
 Alpha  occ. eigenvalues --  -18.92338 -14.27251 -10.06475 -10.05637 -10.05509
 Alpha  occ. eigenvalues --  -10.05325 -10.04039 -10.03774 -10.03590 -10.03526
 Alpha  occ. eigenvalues --  -10.03276 -10.03183 -10.03046 -10.02914 -10.02305
 Alpha  occ. eigenvalues --   -0.93997  -0.74223  -0.71961  -0.66464  -0.65705
 Alpha  occ. eigenvalues --   -0.61964  -0.60628  -0.57638  -0.55803  -0.51075
 Alpha  occ. eigenvalues --   -0.47701  -0.46339  -0.43768  -0.37883  -0.37145
 Alpha  occ. eigenvalues --   -0.35575  -0.33374  -0.33024  -0.31493  -0.31375
 Alpha  occ. eigenvalues --   -0.30605  -0.30103  -0.29118  -0.28301  -0.28012
 Alpha  occ. eigenvalues --   -0.27836  -0.26640  -0.24204  -0.22915  -0.22240
 Alpha  occ. eigenvalues --   -0.20862  -0.20236  -0.18433  -0.14597  -0.11975
 Alpha  occ. eigenvalues --   -0.10108  -0.08880  -0.06414   0.05037
 Alpha virt. eigenvalues --    0.07842   0.07998   0.09642   0.10032   0.10185
 Alpha virt. eigenvalues --    0.10762   0.11218   0.11535   0.11873   0.12083
 Alpha virt. eigenvalues --    0.12687   0.13585   0.13997   0.14299   0.14757

  Beta  occ. eigenvalues --  -18.92065 -14.26772 -10.06605 -10.05648 -10.05531
  Beta  occ. eigenvalues --  -10.05042 -10.03929 -10.03798 -10.03612 -10.03303
  Beta  occ. eigenvalues --  -10.03219 -10.03083 -10.02940 -10.02769 -10.02197
  Beta  occ. eigenvalues --   -0.93279  -0.73813  -0.71700  -0.66036  -0.65369
  Beta  occ. eigenvalues --   -0.61718  -0.60443  -0.57357  -0.55680  -0.50830
  Beta  occ. eigenvalues --   -0.47349  -0.46168  -0.43506  -0.37711  -0.36950
  Beta  occ. eigenvalues --   -0.35361  -0.33179  -0.32646  -0.31328  -0.30770
  Beta  occ. eigenvalues --   -0.30335  -0.29108  -0.28847  -0.28185  -0.27860
  Beta  occ. eigenvalues --   -0.27776  -0.26526  -0.23997  -0.22800  -0.21671
  Beta  occ. eigenvalues --   -0.20658  -0.20124  -0.17390  -0.13500  -0.11466
  Beta  occ. eigenvalues --   -0.09364  -0.08513  -0.04590
  Beta virt. eigenvalues --    0.07762   0.07927   0.09551   0.09918   0.09996
  Beta virt. eigenvalues --    0.10496   0.10713   0.11427   0.11822   0.12111
  Beta virt. eigenvalues --    0.12226   0.12637   0.13547   0.13925   0.14689

 Mulliken charges and spin densities:
               1          2
     1  C   -0.581539  -0.024655
     2  C    0.755995   0.151413
     3  C   -0.954364  -0.038274
     4  C   -0.494697   0.079102
     5  C    1.324694   0.079284
     6  C   -0.541493   0.062933
     7  C   -0.222384  -0.001815
     8  C   -0.970422   0.112842
     9  N   -0.040450   0.144297
    10  C    0.259824  -0.080769
    11  C   -0.959360   0.253646
    12  C    0.673699   0.037763
    13  C   -0.079165   0.021720
    14  C   -0.495960  -0.032765
    15  O   -0.203611   0.114670
    16  H    0.123268   0.002064
    17  H    0.110040   0.035682
    18  H    0.111235   0.009674
    19  H    0.093393   0.002974
    20  H    0.127364  -0.010975
    21  H    0.156934   0.001128
    22  H    0.116908   0.001046
    23  H    0.154811   0.005925
    24  H    0.122054  -0.017843
    25  H    0.085160   0.020869
    26  H    0.094257   0.037994
    27  H    0.103393   0.032137
    28  H    0.130416  -0.000067
 Sum of Mulliken charges =  -1.00000   1.00000

 Dipole moment (field-independent basis, Debye):
    X=              0.3261    Y=             -3.7112    Z=              0.6776  Tot=              3.7867
 Quadrupole moment (field-independent basis, Debye-Ang):
   XX=           -124.2356   YY=           -109.5613   ZZ=           -100.4944
   XY=              0.8646   XZ=              0.5450   YZ=              3.6312

 Summary of Natural Population Analysis:

                                       Natural Population
                Natural  -----------------------------------------------
    Atom  No    Charge         Core      Valence    Rydberg      Total
 -----------------------------------------------------------------------
      C    1   -0.29163      0.99965     2.28754    0.00444     3.29163
      C    2    0.02001      0.99952     1.97229    0.00818     2.97999
      C    3   -0.12888      0.99953     2.12062    0.00873     3.12888
      C    4   -0.06455      0.99954     2.05684    0.00818     3.06455
      C    5   -0.03180      0.99950     2.02237    0.00993     3.03180
      C    6   -0.05520      0.99953     2.04689    0.00878     3.05520
      C    7   -0.12165      0.99953     2.11357    0.00855     3.12165
      C    8    0.13002      0.99942     1.85921    0.01135     2.86998
      N    9    0.08870      0.99957     2.39579    0.01595     3.41130
      C   10   -0.02792      0.99957     2.01712    0.01123     3.02792
      C   11   -0.07631      0.99953     2.06801    0.00877     3.07631
      C   12   -0.02031      0.99952     2.01249    0.00831     3.02031
      C   13   -0.10963      0.99951     2.10296    0.00716     3.10963
      C   14   -0.28834      0.99965     2.28424    0.00445     3.28834
      O   15   -0.27414      0.99992     3.26561    0.00860     4.27414
      H   16    0.09488      0.00000     0.40421    0.00091     0.40512
      H   17    0.09935      0.00000     0.39958    0.00107     0.40065
      H   18    0.09677      0.00000     0.40226    0.00097     0.40323
      H   19    0.08878      0.00000     0.40978    0.00144     0.41122
      H   20    0.09236      0.00000     0.40600    0.00163     0.40764
      H   21    0.11178      0.00000     0.38698    0.00124     0.38822
      H   22    0.08954      0.00000     0.40944    0.00102     0.41046
      H   23    0.09853      0.00000     0.40026    0.00121     0.40147
      H   24    0.09205      0.00000     0.40698    0.00097     0.40795
      H   25    0.09734      0.00000     0.40121    0.00145     0.40266
      H   26    0.09693      0.00000     0.40195    0.00112     0.40307
      H   27    0.09674      0.00000     0.40217    0.00110     0.40326
      H   28    0.09657      0.00000     0.40258    0.00084     0.40343
 =======================================================================
   * Total *    0.00000     14.99347    37.85894    0.14759    53.00000

 Normal termination of Gaussian 16 at Thu Dec 10 15:16:41 2020.
