 Gaussian 16, Revision A.03,

 -----------------------------------------------------------
 # opt freq B3LYP/6-31G(d) empiricaldispersion=gd3bj scf=xqc
 -----------------------------------------------------------

 -------------------------------
 CID_130142188_JID_2809_neutraal
 -------------------------------
 Symbolic Z-matrix:
 Charge =  0 Multiplicity = 1

 SCF Done:  E(RB3LYP) =  -523.726976778     A.U. after   13 cycles
 SCF Done:  E(RB3LYP) =  -523.728958136     A.U. after   10 cycles
 SCF Done:  E(RB3LYP) =  -523.729102385     A.U. after   10 cycles
 SCF Done:  E(RB3LYP) =  -523.729332602     A.U. after   10 cycles
 SCF Done:  E(RB3LYP) =  -523.729398029     A.U. after   10 cycles
 SCF Done:  E(RB3LYP) =  -523.729449960     A.U. after   10 cycles
 SCF Done:  E(RB3LYP) =  -523.729487327     A.U. after   10 cycles
 SCF Done:  E(RB3LYP) =  -523.729499745     A.U. after    9 cycles
 SCF Done:  E(RB3LYP) =  -523.729502041     A.U. after    7 cycles
 SCF Done:  E(RB3LYP) =  -523.729502276     A.U. after    7 cycles
 SCF Done:  E(RB3LYP) =  -523.729502275     A.U. after    6 cycles
 Optimization completed.
    -- Stationary point found.
 Normal termination of Gaussian 16 at Wed Dec  9 18:01:41 2020.

 --------------------------------------------------------------------
 #N Geom=AllCheck Guess=TCheck SCRF=Check GenChk RB3LYP/6-31G(d) Freq
 --------------------------------------------------------------------

 Structure from the checkpoint file:  "JID_2809.chk"
 -------------------------------
 CID_130142188_JID_2809_neutraal
 -------------------------------
 Charge =  0 Multiplicity = 1

 SCF Done:  E(RB3LYP) =  -523.729502275     A.U. after    1 cycles

  Exact polarizability: 127.592   1.019 110.039  -0.295   1.083  99.520
 Approx polarizability: 156.557   1.549 156.540   1.264   2.582 153.174

                      1                      2                      3
                      A                      A                      A
 Frequencies --     65.8517                84.9693               131.6042
 Red. masses --      3.3406                 3.1134                 2.5506
 Frc consts  --      0.0085                 0.0132                 0.0260
 IR Inten    --      0.4274                 0.4657                 0.4000

                      4                      5                      6
                      A                      A                      A
 Frequencies --    156.1704               171.9923               203.5950
 Red. masses --      2.6418                 2.2920                 1.1773
 Frc consts  --      0.0380                 0.0399                 0.0288
 IR Inten    --      1.1675                 1.5395                 0.5428

                      7                      8                      9
                      A                      A                      A
 Frequencies --    209.2417               224.8892               238.0164
 Red. masses --      1.1919                 1.3849                 2.2351
 Frc consts  --      0.0307                 0.0413                 0.0746
 IR Inten    --      0.4942                 0.7249                 0.3280

                     10                     11                     12
                      A                      A                      A
 Frequencies --    269.7032               284.5064               285.4966
 Red. masses --      1.6935                 2.3541                 1.5894
 Frc consts  --      0.0726                 0.1123                 0.0763
 IR Inten    --     21.3930                41.9838                46.2088

                     13                     14                     15
                      A                      A                      A
 Frequencies --    306.2462               342.6630               406.7514
 Red. masses --      2.2464                 1.9520                 2.3263
 Frc consts  --      0.1241                 0.1350                 0.2268
 IR Inten    --     23.0340                17.0588                 3.0134

                     16                     17                     18
                      A                      A                      A
 Frequencies --    431.3533               434.1559               493.5665
 Red. masses --      2.8555                 2.1574                 3.1939
 Frc consts  --      0.3130                 0.2396                 0.4584
 IR Inten    --      4.2638                 0.8390                 2.4967

                     19                     20                     21
                      A                      A                      A
 Frequencies --    518.6454               542.3884               589.6824
 Red. masses --      2.2016                 3.4797                 2.8537
 Frc consts  --      0.3489                 0.6031                 0.5846
 IR Inten    --      2.7526                 9.4168                 5.2545

                     22                     23                     24
                      A                      A                      A
 Frequencies --    708.9013               742.3581               817.5748
 Red. masses --      3.3576                 1.5211                 2.1205
 Frc consts  --      0.9942                 0.4939                 0.8351
 IR Inten    --      1.7227                 5.4909                11.3641

                     25                     26                     27
                      A                      A                      A
 Frequencies --    827.0239               832.2919               891.3279
 Red. masses --      2.0511                 2.1894                 2.2683
 Frc consts  --      0.8266                 0.8936                 1.0618
 IR Inten    --      0.8231                 3.9782                 1.0181

                     28                     29                     30
                      A                      A                      A
 Frequencies --    896.7492               925.0016               952.1815
 Red. masses --      1.7538                 1.8611                 1.7510
 Frc consts  --      0.8309                 0.9382                 0.9353
 IR Inten    --      1.8102                 9.2784                18.0187

                     31                     32                     33
                      A                      A                      A
 Frequencies --    967.5714               992.9590              1035.0304
 Red. masses --      1.8912                 1.7515                 2.0594
 Frc consts  --      1.0432                 1.0175                 1.2999
 IR Inten    --      5.0934                 3.8238                26.6380

                     34                     35                     36
                      A                      A                      A
 Frequencies --   1052.7112              1070.5014              1083.1735
 Red. masses --      1.9913                 1.8619                 2.0034
 Frc consts  --      1.3002                 1.2572                 1.3849
 IR Inten    --     22.4123                16.4646                 5.2975

                     37                     38                     39
                      A                      A                      A
 Frequencies --   1091.1357              1118.3014              1126.9604
 Red. masses --      2.1439                 1.9289                 1.8179
 Frc consts  --      1.5039                 1.4213                 1.3603
 IR Inten    --      1.5972                 2.5590                 2.1560

                     40                     41                     42
                      A                      A                      A
 Frequencies --   1149.6377              1159.2146              1175.3326
 Red. masses --      1.4783                 1.5880                 1.5575
 Frc consts  --      1.1512                 1.2573                 1.2677
 IR Inten    --      3.5969                92.1405                10.4531

                     43                     44                     45
                      A                      A                      A
 Frequencies --   1185.4934              1228.4518              1233.8146
 Red. masses --      2.2731                 1.5779                 1.7903
 Frc consts  --      1.8822                 1.4030                 1.6057
 IR Inten    --     18.0253                 0.5899                 2.5748

                     46                     47                     48
                      A                      A                      A
 Frequencies --   1279.2092              1288.5516              1313.5754
 Red. masses --      1.3702                 1.4606                 1.4170
 Frc consts  --      1.3210                 1.4288                 1.4406
 IR Inten    --     13.8291                 2.9012                 0.4418

                     49                     50                     51
                      A                      A                      A
 Frequencies --   1320.6382              1342.2058              1350.4602
 Red. masses --      1.5513                 1.2750                 1.3497
 Frc consts  --      1.5941                 1.3533                 1.4503
 IR Inten    --     11.4339                 0.3322                 2.7989

                     52                     53                     54
                      A                      A                      A
 Frequencies --   1372.7864              1377.1973              1393.5945
 Red. masses --      1.2971                 1.4711                 1.4617
 Frc consts  --      1.4402                 1.6440                 1.6725
 IR Inten    --      4.7611                 4.8871                 7.4154

                     55                     56                     57
                      A                      A                      A
 Frequencies --   1402.1932              1410.3156              1418.3691
 Red. masses --      1.4418                 1.3656                 1.4442
 Frc consts  --      1.6702                 1.6003                 1.7118
 IR Inten    --      3.5607                 2.4216                 8.0338

                     58                     59                     60
                      A                      A                      A
 Frequencies --   1429.5767              1436.7791              1444.2325
 Red. masses --      1.4396                 1.2247                 1.2659
 Frc consts  --      1.7334                 1.4895                 1.5556
 IR Inten    --     15.7943                11.1220                 4.3414

                     61                     62                     63
                      A                      A                      A
 Frequencies --   1452.4094              1485.6986              1505.2460
 Red. masses --      1.2235                 1.1692                 1.0814
 Frc consts  --      1.5206                 1.5206                 1.4436
 IR Inten    --     15.3920                 1.0339                 9.8867

                     64                     65                     66
                      A                      A                      A
 Frequencies --   1519.5864              1521.6696              1525.5989
 Red. masses --      1.0617                 1.0715                 1.0663
 Frc consts  --      1.4445                 1.4618                 1.4623
 IR Inten    --      5.1885                 5.5739                 3.7840

                     67                     68                     69
                      A                      A                      A
 Frequencies --   1528.3867              1531.2164              1531.5266
 Red. masses --      1.0559                 1.0537                 1.0518
 Frc consts  --      1.4532                 1.4556                 1.4536
 IR Inten    --      1.9781                 7.4923                 4.4902

                     70                     71                     72
                      A                      A                      A
 Frequencies --   1539.0867              1542.8455              1545.5029
 Red. masses --      1.0622                 1.0652                 1.0727
 Frc consts  --      1.4824                 1.4939                 1.5097
 IR Inten    --     12.0952                 5.3821                 3.5055

                     73                     74                     75
                      A                      A                      A
 Frequencies --   2956.3612              3016.8078              3026.3344
 Red. masses --      1.0603                 1.0712                 1.0769
 Frc consts  --      5.4601                 5.7438                 5.8112
 IR Inten    --     64.5304                 5.1054                15.2382

                     76                     77                     78
                      A                      A                      A
 Frequencies --   3036.5222              3042.0580              3045.1863
 Red. masses --      1.0667                 1.0705                 1.0395
 Frc consts  --      5.7949                 5.8367                 5.6791
 IR Inten    --     44.6497                22.1868                 8.2441

                     79                     80                     81
                      A                      A                      A
 Frequencies --   3047.6223              3048.8521              3053.8780
 Red. masses --      1.0609                 1.0390                 1.0818
 Frc consts  --      5.8058                 5.6902                 5.9445
 IR Inten    --     34.3325                49.1583                20.0456

                     82                     83                     84
                      A                      A                      A
 Frequencies --   3065.4177              3069.0014              3071.1402
 Red. masses --      1.0884                 1.0930                 1.0733
 Frc consts  --      6.0258                 6.0654                 5.9647
 IR Inten    --     56.5630                43.9693                48.1520

                     85                     86                     87
                      A                      A                      A
 Frequencies --   3081.2649              3085.0340              3103.6427
 Red. masses --      1.0966                 1.0972                 1.0957
 Frc consts  --      6.1341                 6.1528                 6.2185
 IR Inten    --     43.9950                38.9039                36.5502

                     88                     89                     90
                      A                      A                      A
 Frequencies --   3110.4451              3111.6809              3115.1943
 Red. masses --      1.1025                 1.1006                 1.1034
 Frc consts  --      6.2847                 6.2785                 6.3090
 IR Inten    --     22.5702                65.9632                47.1960

                     91                     92                     93
                      A                      A                      A
 Frequencies --   3117.1966              3127.2681              3769.8741
 Red. masses --      1.1018                 1.1009                 1.0651
 Frc consts  --      6.3077                 6.3436                 8.9187
 IR Inten    --     34.3945                31.3123                15.3216

 - Thermochemistry -
 -------------------
 Temperature   298.150 Kelvin.  Pressure   1.00000 Atm.
 Atom     1 has atomic number  6 and mass  12.00000

 Molecular mass:   171.16231 amu.
 Principal axes and moments of inertia in atomic units:
                           1         2         3
     Eigenvalues --  1375.712572618.374503349.11598
           X            0.99997   0.00613  -0.00425
           Y           -0.00603   0.99974   0.02183
           Z            0.00438  -0.02180   0.99975
 This molecule is an asymmetric top.
 Rotational symmetry number  1.
 Warning -- assumption of classical behavior for rotation
           may cause significant error
 Rotational temperatures (Kelvin)      0.06296     0.03308     0.02586
 Rotational constants (GHZ):           1.31186     0.68926     0.53887
 Zero-point vibrational energy     804874.0 (Joules/Mol)
                                  192.36951 (Kcal/Mol)
 Warning -- explicit consideration of  21 degrees of freedom as
           vibrations may cause significant error
 Vibrational temperatures:     94.75   122.25   189.35   224.69   247.46
          (Kelvin)            292.93   301.05   323.57   342.45   388.04
                              409.34   410.77   440.62   493.02   585.22
                              620.62   624.65   710.13   746.22   780.38
                              848.42  1019.95  1068.09  1176.31  1189.90
                             1197.48  1282.42  1290.22  1330.87  1369.98
                             1392.12  1428.65  1489.18  1514.62  1540.21
                             1558.45  1569.90  1608.99  1621.44  1654.07
                             1667.85  1691.04  1705.66  1767.47  1775.18
                             1840.50  1853.94  1889.94  1900.10  1931.13
                             1943.01  1975.13  1981.48  2005.07  2017.44
                             2029.13  2040.72  2056.84  2067.20  2077.93
                             2089.69  2137.59  2165.71  2186.35  2189.34
                             2195.00  2199.01  2203.08  2203.53  2214.40
                             2219.81  2223.63  4253.54  4340.51  4354.22
                             4368.88  4376.84  4381.34  4384.85  4386.62
                             4393.85  4410.45  4415.61  4418.69  4433.25
                             4438.68  4465.45  4475.24  4477.01  4482.07
                             4484.95  4499.44  5424.01

 Zero-point correction=                           0.306560 (Hartree/Particle)
 Thermal correction to Energy=                    0.319962
 Thermal correction to Enthalpy=                  0.320906
 Thermal correction to Gibbs Free Energy=         0.268063
 Sum of electronic and zero-point Energies=           -523.422942
 Sum of electronic and thermal Energies=              -523.409541
 Sum of electronic and thermal Enthalpies=            -523.408596
 Sum of electronic and thermal Free Energies=         -523.461439

                     E (Thermal)             CV                S
                      KCal/Mol        Cal/Mol-Kelvin    Cal/Mol-Kelvin
 Total                  200.779             52.232            111.216
 Electronic               0.000              0.000              0.000
 Translational            0.889              2.981             41.320
 Rotational               0.889              2.981             30.868
 Vibrational            199.002             46.270             39.029
 Vibration     1          0.597              1.971              4.274
 Vibration     2          0.601              1.960              3.773
 Vibration     3          0.612              1.922              2.922
 Vibration     4          0.620              1.896              2.596
 Vibration     5          0.626              1.877              2.414
 Vibration     6          0.639              1.835              2.100
 Vibration     7          0.642              1.827              2.050
 Vibration     8          0.650              1.803              1.919
 Vibration     9          0.656              1.782              1.818
 Vibration    10          0.674              1.729              1.598
 Vibration    11          0.683              1.702              1.506
 Vibration    12          0.683              1.701              1.501
 Vibration    13          0.697              1.662              1.383
 Vibration    14          0.722              1.590              1.200
 Vibration    15          0.772              1.456              0.938
 Vibration    16          0.792              1.402              0.854
 Vibration    17          0.795              1.396              0.845
 Vibration    18          0.849              1.264              0.674
 Vibration    19          0.874              1.209              0.613
 Vibration    20          0.897              1.156              0.560
 Vibration    21          0.947              1.054              0.468

 Optimization completed.
    -- Stationary point found.
 Normal termination of Gaussian 16 at Wed Dec  9 18:11:01 2020.

 ----------------------------------------------------------------------
 # B3LYP/6-311++G(d,p) empiricaldispersion=gd3bj scf=xqc pop=npa geom=c
 heck
 ----------------------------------------------------------------------

 ---------------------------------------
 CID_130142188_JID_2809_Energie_neutraal
 ---------------------------------------
 Structure from the checkpoint file:  "JID_2809.chk"
 Charge =  0 Multiplicity = 1

 SCF Done:  E(RB3LYP) =  -523.884147193     A.U. after   13 cycles
 Normal termination of Gaussian 16 at Wed Dec  9 18:14:30 2020.

 ----------------------------------------------------------------------
 # B3LYP/6-311++G(d,p) empiricaldispersion=gd3bj scf=xqc pop=npa geom=c
 heck
 ----------------------------------------------------------------------

 -------------------------------------
 CID_130142188_JID_2809_Energie_kation
 -------------------------------------
 Structure from the checkpoint file:  "JID_2809.chk"
 Charge =  1 Multiplicity = 2

 SCF Done:  E(UB3LYP) =  -523.599296659     A.U. after   18 cycles
 Normal termination of Gaussian 16 at Wed Dec  9 18:20:25 2020.
 Gaussian 16:  ES64L-G16RevA.03 25-Dec-2016

 ----------------------------------------------------------------------
 # B3LYP/6-311++G(d,p) empiricaldispersion=gd3bj scf=xqc pop=npa geom=c
 heck
 ----------------------------------------------------------------------

 ------------------------------------
 CID_130142188_JID_2809_Energie_anion
 ------------------------------------
 Structure from the checkpoint file:  "JID_2809.chk"
 Charge = -1 Multiplicity = 2

                         Standard orientation:
 ---------------------------------------------------------------------
 Center     Atomic      Atomic             Coordinates (Angstroms)
 Number     Number       Type             X           Y           Z
 ---------------------------------------------------------------------
      1          6           0       -3.739662   -0.184699    0.355396
      2          6           0       -2.699445   -0.834904   -0.561707
      3          6           0       -1.578012    0.116201   -1.000066
      4          6           0       -0.759483    0.763508    0.138213
      5          6           0       -0.267984   -0.195773    1.248811
      6          6           0        0.910851   -1.082646    0.826629
      7          6           0        2.039515   -0.218311    0.227030
      8          6           0        1.471135    0.708304   -0.866501
      9          7           0        0.346437    1.547824   -0.445086
     10          6           0        0.758283    2.670258    0.386061
     11          6           0        3.200533   -1.062771   -0.297400
     12          8           0        0.505988   -2.148487   -0.040941
     13          1           0       -3.304530    0.122794    1.312956
     14          1           0       -4.559277   -0.877589    0.574780
     15          1           0       -4.172365    0.708184   -0.112776
     16          1           0       -2.263239   -1.713845   -0.071978
     17          1           0       -3.202386   -1.208237   -1.463265
     18          1           0       -0.915379   -0.414710   -1.696901
     19          1           0       -1.998821    0.939663   -1.590437
     20          1           0       -1.425287    1.490169    0.617931
     21          1           0        0.059912    0.414909    2.100426
     22          1           0       -1.083148   -0.827574    1.614972
     23          1           0        1.299463   -1.604557    1.708762
     24          1           0        2.409724    0.416260    1.045050
     25          1           0        1.154471    0.099319   -1.725072
     26          1           0        2.261643    1.365434   -1.246687
     27          1           0        1.180466    2.397068    1.370476
     28          1           0        1.516110    3.254394   -0.147668
     29          1           0       -0.103811    3.322163    0.564282
     30          1           0        4.003310   -0.428475   -0.691131
     31          1           0        3.621637   -1.689262    0.497253
     32          1           0        2.864989   -1.731118   -1.096633
     33          1           0        0.169171   -1.756868   -0.860010
 ---------------------------------------------------------------------

 SCF Done:  E(UB3LYP) =  -523.869604524     A.U. after   29 cycles

 The electronic state is 2-A.
 Alpha  occ. eigenvalues --  -19.01850 -14.19698 -10.11521 -10.09457 -10.08774
 Alpha  occ. eigenvalues --  -10.07807 -10.06774 -10.06615 -10.06522 -10.05893
 Alpha  occ. eigenvalues --  -10.05865 -10.05708  -0.92153  -0.82212  -0.69992
 Alpha  occ. eigenvalues --   -0.69256  -0.65324  -0.60889  -0.59274  -0.55938
 Alpha  occ. eigenvalues --   -0.52411  -0.50283  -0.47911  -0.44113  -0.40730
 Alpha  occ. eigenvalues --   -0.37830  -0.36247  -0.35791  -0.35462  -0.34158
 Alpha  occ. eigenvalues --   -0.32869  -0.32458  -0.31001  -0.29795  -0.29089
 Alpha  occ. eigenvalues --   -0.28019  -0.27480  -0.26898  -0.25924  -0.25401
 Alpha  occ. eigenvalues --   -0.24416  -0.24041  -0.23418  -0.22882  -0.22050
 Alpha  occ. eigenvalues --   -0.20239  -0.16895  -0.10577   0.04499
 Alpha virt. eigenvalues --    0.06574   0.07238   0.07830   0.08725   0.09074
 Alpha virt. eigenvalues --    0.09388   0.10108   0.10404   0.11256   0.11846
 Alpha virt. eigenvalues --    0.12246   0.12434   0.12542   0.13276   0.14230

  Beta  occ. eigenvalues --  -19.01834 -14.19696 -10.11511 -10.09447 -10.08754
  Beta  occ. eigenvalues --  -10.07764 -10.06763 -10.06602 -10.06510 -10.05875
  Beta  occ. eigenvalues --  -10.05832 -10.05684  -0.92116  -0.82195  -0.69964
  Beta  occ. eigenvalues --   -0.69223  -0.65287  -0.60842  -0.59223  -0.55879
  Beta  occ. eigenvalues --   -0.52363  -0.50224  -0.47858  -0.44069  -0.40680
  Beta  occ. eigenvalues --   -0.37796  -0.36211  -0.35753  -0.35427  -0.34117
  Beta  occ. eigenvalues --   -0.32836  -0.32421  -0.30968  -0.29761  -0.29056
  Beta  occ. eigenvalues --   -0.27984  -0.27438  -0.26862  -0.25891  -0.25369
  Beta  occ. eigenvalues --   -0.24380  -0.24007  -0.23386  -0.22849  -0.22021
  Beta  occ. eigenvalues --   -0.20209  -0.16871  -0.10559
  Beta virt. eigenvalues --    0.06635   0.07408   0.07834   0.08430   0.09227
  Beta virt. eigenvalues --    0.09674   0.09811   0.10472   0.10951   0.11643
  Beta virt. eigenvalues --    0.12118   0.12533   0.12767   0.12948   0.13593

 Mulliken charges and spin densities:
               1          2
     1  C    0.627153  -1.220539
     2  C   -0.509226   0.318862
     3  C    0.452904  -0.499188
     4  C   -1.802233   1.124114
     5  C    0.511245  -1.068769
     6  C    0.643742  -0.791810
     7  C   -1.384992   1.826668
     8  C    0.632169  -1.470728
     9  N    0.180327   0.130304
    10  C    1.222296  -1.395977
    11  C    0.503774  -1.205649
    12  O   -0.170912   0.008598
    13  H   -0.342069   0.481585
    14  H   -0.339601   0.479686
    15  H   -0.112665   0.249997
    16  H    0.093713   0.036478
    17  H   -0.185613   0.334722
    18  H   -0.028266   0.112072
    19  H   -0.012663   0.207096
    20  H    0.236183  -0.017238
    21  H   -0.265756   0.420060
    22  H    0.289395  -0.089239
    23  H   -0.083859   0.305239
    24  H   -0.085043   0.272058
    25  H   -0.015931   0.181249
    26  H    0.085244   0.081083
    27  H   -0.248888   0.369446
    28  H   -0.248338   0.386134
    29  H   -0.469911   0.619869
    30  H   -0.295832   0.430104
    31  H   -0.108591   0.246604
    32  H    0.056919   0.093613
    33  H    0.175324   0.043493
 Sum of Mulliken charges =  -1.00000   1.00000

 Dipole moment (field-independent basis, Debye):
    X=              0.3823    Y=             -2.5532    Z=             -1.9930  Tot=              3.2615
 Quadrupole moment (field-independent basis, Debye-Ang):
   XX=           -146.0549   YY=           -127.1763   ZZ=           -112.1449
   XY=             -1.7653   XZ=             -0.2072   YZ=             -1.6297

 Summary of Natural Population Analysis:

                                       Natural Population
                Natural  -----------------------------------------------
    Atom  No    Charge         Core      Valence    Rydberg      Total
 -----------------------------------------------------------------------
      C    1   -0.28723      0.99967     2.28270    0.00487     3.28723
      C    2   -0.19603      0.99964     2.18772    0.00867     3.19603
      C    3   -0.19068      0.99960     2.18066    0.01042     3.19068
      C    4   -0.00480      0.99957     1.99128    0.01396     3.00480
      C    5   -0.21401      0.99958     2.20450    0.00993     3.21401
      C    6    0.06725      0.99952     1.91741    0.01581     2.93275
      C    7   -0.13385      0.99957     2.12390    0.01038     3.13385
      C    8   -0.08575      0.99958     2.07296    0.01321     3.08575
      N    9   -0.28395      0.99973     2.76919    0.01504     3.78395
      C   10   -0.17564      0.99963     2.16719    0.00882     3.17564
      C   11   -0.28548      0.99965     2.27842    0.00741     3.28548
      O   12   -0.37537      0.99990     3.36919    0.00628     4.37537
      H   13    0.09726      0.00000     0.40157    0.00117     0.40274
      H   14    0.09847      0.00000     0.40053    0.00099     0.40153
      H   15    0.09671      0.00000     0.40211    0.00118     0.40329
      H   16    0.09863      0.00000     0.39999    0.00138     0.40137
      H   17    0.09515      0.00000     0.40385    0.00100     0.40485
      H   18    0.08704      0.00000     0.41138    0.00158     0.41296
      H   19    0.10245      0.00000     0.39598    0.00157     0.39755
      H   20    0.10073      0.00000     0.39707    0.00219     0.39927
      H   21    0.10588      0.00000     0.39259    0.00152     0.39412
      H   22    0.10497      0.00000     0.39393    0.00110     0.39503
      H   23    0.08855      0.00000     0.41032    0.00113     0.41145
      H   24    0.10155      0.00000     0.39640    0.00205     0.39845
      H   25    0.08835      0.00000     0.41004    0.00161     0.41165
      H   26    0.10089      0.00000     0.39800    0.00111     0.39911
      H   27    0.08134      0.00000     0.41666    0.00200     0.41866
      H   28    0.09518      0.00000     0.40354    0.00128     0.40482
      H   29    0.09638      0.00000     0.40215    0.00147     0.40362
      H   30    0.09846      0.00000     0.40058    0.00096     0.40154
      H   31    0.10026      0.00000     0.39885    0.00088     0.39974
      H   32    0.10028      0.00000     0.39868    0.00103     0.39972
      H   33    0.22699      0.00000     0.26992    0.00309     0.27301
 =======================================================================
   * Total *    0.00000     11.99563    35.84928    0.15509    48.00000

 Normal termination of Gaussian 16 at Wed Dec  9 18:30:41 2020.
