 Gaussian 16, Revision A.03,

 -----------------------------------------------------------
 # opt freq B3LYP/6-31G(d) empiricaldispersion=gd3bj scf=xqc
 -----------------------------------------------------------

 -------------------------------
 CID_112546406_JID_4379_neutraal
 -------------------------------
 Symbolic Z-matrix:
 Charge =  0 Multiplicity = 1

 SCF Done:  E(RB3LYP) =  -616.005322517     A.U. after   14 cycles
 SCF Done:  E(RB3LYP) =  -616.011284451     A.U. after   12 cycles
 SCF Done:  E(RB3LYP) =  -616.011699380     A.U. after   11 cycles
 SCF Done:  E(RB3LYP) =  -616.012148648     A.U. after   11 cycles
 SCF Done:  E(RB3LYP) =  -616.012413791     A.U. after   10 cycles
 SCF Done:  E(RB3LYP) =  -616.012594041     A.U. after   11 cycles
 SCF Done:  E(RB3LYP) =  -616.012627820     A.U. after   10 cycles
 SCF Done:  E(RB3LYP) =  -616.012639653     A.U. after    9 cycles
 SCF Done:  E(RB3LYP) =  -616.012645899     A.U. after    9 cycles
 SCF Done:  E(RB3LYP) =  -616.012652058     A.U. after    9 cycles
 SCF Done:  E(RB3LYP) =  -616.012949316     A.U. after   11 cycles
 SCF Done:  E(RB3LYP) =  -616.012989260     A.U. after   10 cycles
 SCF Done:  E(RB3LYP) =  -616.012995931     A.U. after    9 cycles
 SCF Done:  E(RB3LYP) =  -616.012996554     A.U. after    9 cycles
 SCF Done:  E(RB3LYP) =  -616.012996757     A.U. after    7 cycles
 SCF Done:  E(RB3LYP) =  -616.012996900     A.U. after    7 cycles
 Optimization completed.
    -- Stationary point found.
 Normal termination of Gaussian 16 at Thu Dec 10 09:37:30 2020.

 --------------------------------------------------------------------
 #N Geom=AllCheck Guess=TCheck SCRF=Check GenChk RB3LYP/6-31G(d) Freq
 --------------------------------------------------------------------

 Structure from the checkpoint file:  "JID_4379.chk"
 -------------------------------
 CID_112546406_JID_4379_neutraal
 -------------------------------
 Charge =  0 Multiplicity = 1

 SCF Done:  E(RB3LYP) =  -616.012996900     A.U. after    1 cycles

  Exact polarizability: 149.336   1.945 125.166   1.795  -4.007 104.505
 Approx polarizability: 177.726   1.160 186.296   6.825 -14.855 165.202

                      1                      2                      3
                      A                      A                      A
 Frequencies --     37.0845                52.8745                68.9557
 Red. masses --      2.3381                 3.7248                 3.3520
 Frc consts  --      0.0019                 0.0061                 0.0094
 IR Inten    --      0.4344                 0.2159                 0.4568

                      4                      5                      6
                      A                      A                      A
 Frequencies --     87.0295               139.9046               161.2183
 Red. masses --      3.6823                 2.5561                 2.5210
 Frc consts  --      0.0164                 0.0295                 0.0386
 IR Inten    --      1.8490                 0.9612                 1.6773

                      7                      8                      9
                      A                      A                      A
 Frequencies --    209.3572               232.8644               242.0289
 Red. masses --      2.1650                 1.6442                 1.8346
 Frc consts  --      0.0559                 0.0525                 0.0633
 IR Inten    --      0.7638                 0.5440                 0.5967

                     10                     11                     12
                      A                      A                      A
 Frequencies --    276.8866               300.1012               345.6943
 Red. masses --      3.1249                 2.7289                 2.8403
 Frc consts  --      0.1412                 0.1448                 0.2000
 IR Inten    --      7.3154                 2.0817                 0.5611

                     13                     14                     15
                      A                      A                      A
 Frequencies --    359.7453               404.8131               416.6682
 Red. masses --      2.8476                 1.9777                 2.7217
 Frc consts  --      0.2171                 0.1910                 0.2784
 IR Inten    --      2.3766                 0.5529                 0.2424

                     16                     17                     18
                      A                      A                      A
 Frequencies --    463.6508               532.7202               555.9143
 Red. masses --      3.3142                 2.9196                 2.4353
 Frc consts  --      0.4198                 0.4882                 0.4434
 IR Inten    --      1.4628                 6.6722                 2.0653

                     19                     20                     21
                      A                      A                      A
 Frequencies --    570.5932               616.9002               641.4465
 Red. masses --      3.0751                 2.5627                 2.3951
 Frc consts  --      0.5899                 0.5746                 0.5806
 IR Inten    --     11.5218                 0.5294                 3.8725

                     22                     23                     24
                      A                      A                      A
 Frequencies --    729.4073               740.5789               809.8313
 Red. masses --      3.7792                 2.5977                 1.4479
 Frc consts  --      1.1847                 0.8394                 0.5595
 IR Inten    --      4.0628                 0.2799                 2.4421

                     25                     26                     27
                      A                      A                      A
 Frequencies --    814.3138               853.0012               868.2427
 Red. masses --      2.3442                 2.8309                 1.6144
 Frc consts  --      0.9159                 1.2136                 0.7170
 IR Inten    --      1.6444                10.8310                37.4515

                     28                     29                     30
                      A                      A                      A
 Frequencies --    897.5684               899.7529               907.7056
 Red. masses --      1.8717                 2.2897                 2.6438
 Frc consts  --      0.8884                 1.0922                 1.2834
 IR Inten    --     10.1323                 7.7861                15.9126

                     31                     32                     33
                      A                      A                      A
 Frequencies --    957.1857               959.9897               971.6902
 Red. masses --      1.9994                 1.4032                 2.0371
 Frc consts  --      1.0793                 0.7619                 1.1333
 IR Inten    --     11.7925                 9.0968                44.5386

                     34                     35                     36
                      A                      A                      A
 Frequencies --    992.7317              1007.4680              1023.4118
 Red. masses --      1.7019                 1.8425                 2.1162
 Frc consts  --      0.9882                 1.1019                 1.3059
 IR Inten    --     25.3176                 4.2584                 2.4590

                     37                     38                     39
                      A                      A                      A
 Frequencies --   1038.8406              1048.8294              1077.7734
 Red. masses --      2.7040                 1.8374                 2.3203
 Frc consts  --      1.7193                 1.1908                 1.5880
 IR Inten    --      4.1495                 2.9272                 7.1270

                     40                     41                     42
                      A                      A                      A
 Frequencies --   1097.3498              1101.0455              1110.7598
 Red. masses --      2.4181                 3.9308                 2.1849
 Frc consts  --      1.7156                 2.8077                 1.5882
 IR Inten    --     16.1034                27.6157                22.1941

                     43                     44                     45
                      A                      A                      A
 Frequencies --   1124.7263              1176.2263              1201.2450
 Red. masses --      1.7119                 1.5798                 1.7045
 Frc consts  --      1.2759                 1.2877                 1.4492
 IR Inten    --     22.9731                21.3894                 2.2632

                     46                     47                     48
                      A                      A                      A
 Frequencies --   1226.0385              1228.5180              1237.2070
 Red. masses --      1.3415                 1.5420                 1.8144
 Frc consts  --      1.1881                 1.3712                 1.6363
 IR Inten    --      6.1806                74.2830                22.7321

                     49                     50                     51
                      A                      A                      A
 Frequencies --   1265.4363              1290.7383              1306.4145
 Red. masses --      1.2185                 1.5180                 1.3588
 Frc consts  --      1.1496                 1.4900                 1.3664
 IR Inten    --      8.4232                20.4885                 0.1556

                     52                     53                     54
                      A                      A                      A
 Frequencies --   1309.0798              1322.9416              1337.4515
 Red. masses --      1.3052                 1.5982                 1.3614
 Frc consts  --      1.3178                 1.6481                 1.4348
 IR Inten    --     20.4707                 4.1636                 9.5976

                     55                     56                     57
                      A                      A                      A
 Frequencies --   1345.7469              1357.6258              1362.3906
 Red. masses --      1.4138                 1.3236                 1.3621
 Frc consts  --      1.5085                 1.4373                 1.4895
 IR Inten    --     10.6529                 7.5056                 2.8072

                     58                     59                     60
                      A                      A                      A
 Frequencies --   1365.8906              1394.4154              1396.0313
 Red. masses --      1.3347                 1.2190                 1.3682
 Frc consts  --      1.4672                 1.3964                 1.5710
 IR Inten    --      1.1175                24.1642                28.2877

                     61                     62                     63
                      A                      A                      A
 Frequencies --   1411.9356              1423.0812              1427.7500
 Red. masses --      1.4264                 1.5592                 1.4120
 Frc consts  --      1.6754                 1.8604                 1.6958
 IR Inten    --      4.3500                 2.3077                21.6986

                     64                     65                     66
                      A                      A                      A
 Frequencies --   1441.9421              1468.8822              1485.2910
 Red. masses --      1.2329                 1.9279                 1.1804
 Frc consts  --      1.5104                 2.4508                 1.5342
 IR Inten    --      2.6681               120.2308                 7.3799

                     67                     68                     69
                      A                      A                      A
 Frequencies --   1506.9920              1509.3538              1517.4146
 Red. masses --      1.0918                 1.1120                 1.0835
 Frc consts  --      1.4608                 1.4925                 1.4699
 IR Inten    --      0.5796                26.2426                 2.9838

                     70                     71                     72
                      A                      A                      A
 Frequencies --   1523.2225              1527.3422              1528.5351
 Red. masses --      1.0997                 1.0873                 1.0470
 Frc consts  --      1.5033                 1.4945                 1.4413
 IR Inten    --      5.5150                 2.3011                 7.3146

                     73                     74                     75
                      A                      A                      A
 Frequencies --   1532.2863              1541.2253              1545.0625
 Red. masses --      1.0604                 1.0903                 1.1146
 Frc consts  --      1.4669                 1.5259                 1.5676
 IR Inten    --      3.5544                 3.3390                25.6290

                     76                     77                     78
                      A                      A                      A
 Frequencies --   1767.0492              2991.4537              3031.7429
 Red. masses --     10.4366                 1.0827                 1.0609
 Frc consts  --     19.2002                 5.7087                 5.7454
 IR Inten    --    282.2020                20.7097                24.0157

                     79                     80                     81
                      A                      A                      A
 Frequencies --   3036.3620              3042.9688              3045.0507
 Red. masses --      1.0566                 1.0485                 1.0619
 Frc consts  --      5.7395                 5.7200                 5.8014
 IR Inten    --      9.5876                28.2730                26.6256

                     82                     83                     84
                      A                      A                      A
 Frequencies --   3052.8844              3058.7453              3059.6840
 Red. masses --      1.0681                 1.0685                 1.0632
 Frc consts  --      5.8654                 5.8898                 5.8644
 IR Inten    --     24.7762                69.8032                 8.6366

                     85                     86                     87
                      A                      A                      A
 Frequencies --   3072.0921              3076.6072              3083.0248
 Red. masses --      1.0649                 1.1030                 1.0996
 Frc consts  --      5.9217                 6.1511                 6.1581
 IR Inten    --     33.3071                19.4792                42.4842

                     88                     89                     90
                      A                      A                      A
 Frequencies --   3100.7041              3103.5140              3107.8323
 Red. masses --      1.0992                 1.0971                 1.1018
 Frc consts  --      6.2264                 6.2258                 6.2698
 IR Inten    --      8.9223                42.6749                49.1012

                     91                     92                     93
                      A                      A                      A
 Frequencies --   3112.5763              3116.5911              3124.8143
 Red. masses --      1.1025                 1.0991                 1.1036
 Frc consts  --      6.2930                 6.2897                 6.3490
 IR Inten    --     37.0013                10.3967                53.1003

                     94                     95                     96
                      A                      A                      A
 Frequencies --   3135.4361              3139.8401              3443.5385
 Red. masses --      1.0945                 1.0890                 1.0730
 Frc consts  --      6.3394                 6.3254                 7.4962
 IR Inten    --     12.7335                17.8644                 3.8514

 - Thermochemistry -
 -------------------
 Temperature   298.150 Kelvin.  Pressure   1.00000 Atm.
 Atom     1 has atomic number  6 and mass  12.00000

 Molecular mass:   196.15756 amu.
 Principal axes and moments of inertia in atomic units:
                           1         2         3
     Eigenvalues --  1500.910464167.213664957.16032
           X            0.99998  -0.00532  -0.00438
           Y            0.00538   0.99986   0.01565
           Z            0.00430  -0.01567   0.99987
 This molecule is an asymmetric top.
 Rotational symmetry number  1.
 Warning -- assumption of classical behavior for rotation
           may cause significant error
 Rotational temperatures (Kelvin)      0.05771     0.02078     0.01747
 Rotational constants (GHZ):           1.20243     0.43308     0.36407
 Zero-point vibrational energy     813250.6 (Joules/Mol)
                                  194.37156 (Kcal/Mol)
 Warning -- explicit consideration of  20 degrees of freedom as
           vibrations may cause significant error
 Vibrational temperatures:     53.36    76.07    99.21   125.22   201.29
          (Kelvin)            231.96   301.22   335.04   348.23   398.38
                              431.78   497.38   517.59   582.44   599.49
                              667.09   766.47   799.84   820.96   887.58
                              922.90  1049.45  1065.53  1165.17  1171.62
                             1227.28  1249.21  1291.40  1294.54  1305.99
                             1377.18  1381.21  1398.05  1428.32  1449.52
                             1472.46  1494.66  1509.03  1550.68  1578.84
                             1584.16  1598.14  1618.23  1692.33  1728.32
                             1764.00  1767.56  1780.06  1820.68  1857.08
                             1879.64  1883.47  1903.42  1924.29  1936.23
                             1953.32  1960.18  1965.21  2006.25  2008.58
                             2031.46  2047.50  2054.21  2074.63  2113.39
                             2137.00  2168.23  2171.62  2183.22  2191.58
                             2197.50  2199.22  2204.62  2217.48  2223.00
                             2542.39  4304.03  4362.00  4368.65  4378.15
                             4381.15  4392.42  4400.85  4402.20  4420.06
                             4426.55  4435.79  4461.22  4465.26  4471.48
                             4478.30  4484.08  4495.91  4511.19  4517.53
                             4954.48

 Zero-point correction=                           0.309751 (Hartree/Particle)
 Thermal correction to Energy=                    0.323291
 Thermal correction to Enthalpy=                  0.324236
 Thermal correction to Gibbs Free Energy=         0.268977
 Sum of electronic and zero-point Energies=           -615.703246
 Sum of electronic and thermal Energies=              -615.689706
 Sum of electronic and thermal Enthalpies=            -615.688761
 Sum of electronic and thermal Free Energies=         -615.744020

                     E (Thermal)             CV                S
                      KCal/Mol        Cal/Mol-Kelvin    Cal/Mol-Kelvin
 Total                  202.868             52.711            116.301
 Electronic               0.000              0.000              0.000
 Translational            0.889              2.981             41.726
 Rotational               0.889              2.981             31.806
 Vibrational            201.091             46.750             42.769
 Vibration     1          0.594              1.982              5.409
 Vibration     2          0.596              1.976              4.707
 Vibration     3          0.598              1.969              4.183
 Vibration     4          0.601              1.958              3.726
 Vibration     5          0.615              1.913              2.805
 Vibration     6          0.622              1.890              2.535
 Vibration     7          0.642              1.826              2.049
 Vibration     8          0.654              1.791              1.857
 Vibration     9          0.658              1.776              1.788
 Vibration    10          0.678              1.716              1.553
 Vibration    11          0.693              1.673              1.416
 Vibration    12          0.724              1.584              1.186
 Vibration    13          0.734              1.555              1.123
 Vibration    14          0.770              1.460              0.945
 Vibration    15          0.780              1.434              0.903
 Vibration    16          0.821              1.331              0.756
 Vibration    17          0.888              1.178              0.581
 Vibration    18          0.911              1.127              0.532
 Vibration    19          0.927              1.095              0.503
 Vibration    20          0.977              0.996              0.421

 Optimization completed.
    -- Stationary point found.
 Normal termination of Gaussian 16 at Thu Dec 10 09:49:16 2020.

 ----------------------------------------------------------------------
 # B3LYP/6-311++G(d,p) empiricaldispersion=gd3bj scf=xqc pop=npa geom=c
 heck
 ----------------------------------------------------------------------

 ---------------------------------------
 CID_112546406_JID_4379_Energie_neutraal
 ---------------------------------------
 Structure from the checkpoint file:  "JID_4379.chk"
 Charge =  0 Multiplicity = 1

 SCF Done:  E(RB3LYP) =  -616.186853614     A.U. after   14 cycles
 Normal termination of Gaussian 16 at Thu Dec 10 09:54:48 2020.

 ----------------------------------------------------------------------
 # B3LYP/6-311++G(d,p) empiricaldispersion=gd3bj scf=xqc pop=npa geom=c
 heck
 ----------------------------------------------------------------------

 -------------------------------------
 CID_112546406_JID_4379_Energie_kation
 -------------------------------------
 Structure from the checkpoint file:  "JID_4379.chk"
 Charge =  1 Multiplicity = 2

 SCF Done:  E(UB3LYP) =  -615.881834130     A.U. after   26 cycles
 Normal termination of Gaussian 16 at Thu Dec 10 10:09:29 2020.
 Gaussian 16:  ES64L-G16RevA.03 25-Dec-2016

 ----------------------------------------------------------------------
 # B3LYP/6-311++G(d,p) empiricaldispersion=gd3bj scf=xqc pop=npa geom=c
 heck
 ----------------------------------------------------------------------

 ------------------------------------
 CID_112546406_JID_4379_Energie_anion
 ------------------------------------
 Structure from the checkpoint file:  "JID_4379.chk"
 Charge = -1 Multiplicity = 2

                         Standard orientation:
 ---------------------------------------------------------------------
 Center     Atomic      Atomic             Coordinates (Angstroms)
 Number     Number       Type             X           Y           Z
 ---------------------------------------------------------------------
      1          6           0        3.716738   -1.712150   -0.481257
      2          6           0        2.763210   -0.765636    0.256266
      3          6           0        2.768914    0.622164   -0.403068
      4          6           0        1.911919    1.692919    0.303149
      5          6           0        0.439023    1.627805   -0.077879
      6          8           0       -0.072168    2.509323   -0.760609
      7          7           0       -0.266831    0.526030    0.355055
      8          6           0        0.347996   -0.541617    1.140486
      9          6           0        1.364316   -1.391112    0.362568
     10          6           0       -1.620896    0.338291   -0.135296
     11          6           0       -2.725967    0.324327    0.954875
     12          6           0       -3.842493   -0.559017    0.344928
     13          6           0       -3.249407   -1.029244   -1.015326
     14          7           0       -1.787104   -0.904159   -0.919013
     15          1           0        3.383640   -1.871213   -1.514410
     16          1           0        3.763789   -2.691576    0.008728
     17          1           0        4.733033   -1.303521   -0.517444
     18          1           0        3.138405   -0.636905    1.284649
     19          1           0        3.805970    0.979105   -0.431411
     20          1           0        2.445155    0.537124   -1.449416
     21          1           0        2.238161    2.689946    0.000898
     22          1           0        2.043510    1.619693    1.390917
     23          1           0       -0.464749   -1.179016    1.500113
     24          1           0        0.815187   -0.123785    2.040706
     25          1           0        0.959979   -1.583445   -0.639641
     26          1           0        1.460665   -2.364341    0.863206
     27          1           0       -1.798627    1.172568   -0.814910
     28          1           0       -2.342638   -0.110015    1.885038
     29          1           0       -3.056680    1.340657    1.187463
     30          1           0       -4.056417   -1.417959    0.990157
     31          1           0       -4.782733   -0.015260    0.210928
     32          1           0       -3.527399   -2.052288   -1.283116
     33          1           0       -3.591937   -0.371271   -1.822841
     34          1           0       -1.451545   -1.686558   -0.353719
 ---------------------------------------------------------------------

 SCF Done:  E(UB3LYP) =  -616.175066938     A.U. after   32 cycles

 The electronic state is 2-A.
 Alpha  occ. eigenvalues --  -18.98717 -14.24047 -14.20061 -10.17077 -10.12634
 Alpha  occ. eigenvalues --  -10.10677 -10.09400 -10.08131 -10.07875 -10.07849
 Alpha  occ. eigenvalues --  -10.06862 -10.06797 -10.06681 -10.06377  -0.93998
 Alpha  occ. eigenvalues --   -0.85593  -0.80463  -0.72609  -0.67100  -0.66204
 Alpha  occ. eigenvalues --   -0.64360  -0.61037  -0.55841  -0.55204  -0.51066
 Alpha  occ. eigenvalues --   -0.49027  -0.46859  -0.45329  -0.41558  -0.39314
 Alpha  occ. eigenvalues --   -0.37384  -0.36671  -0.35748  -0.35254  -0.34084
 Alpha  occ. eigenvalues --   -0.33200  -0.32318  -0.31833  -0.30820  -0.30457
 Alpha  occ. eigenvalues --   -0.28671  -0.27771  -0.27660  -0.26308  -0.25680
 Alpha  occ. eigenvalues --   -0.25387  -0.24687  -0.23317  -0.22788  -0.22681
 Alpha  occ. eigenvalues --   -0.22140  -0.15724  -0.15013  -0.13839   0.04395
 Alpha virt. eigenvalues --    0.06267   0.07393   0.07566   0.08537   0.08857
 Alpha virt. eigenvalues --    0.09276   0.10040   0.10582   0.10958   0.11125
 Alpha virt. eigenvalues --    0.11530   0.11767   0.11928   0.12787   0.13518

  Beta  occ. eigenvalues --  -18.98716 -14.24039 -14.20045 -10.17077 -10.12634
  Beta  occ. eigenvalues --  -10.10641 -10.09384 -10.08121 -10.07861 -10.07838
  Beta  occ. eigenvalues --  -10.06837 -10.06779 -10.06655 -10.06352  -0.93995
  Beta  occ. eigenvalues --   -0.85573  -0.80434  -0.72577  -0.67069  -0.66161
  Beta  occ. eigenvalues --   -0.64320  -0.61003  -0.55794  -0.55143  -0.51023
  Beta  occ. eigenvalues --   -0.48970  -0.46805  -0.45284  -0.41517  -0.39286
  Beta  occ. eigenvalues --   -0.37353  -0.36633  -0.35699  -0.35228  -0.34039
  Beta  occ. eigenvalues --   -0.33171  -0.32287  -0.31788  -0.30785  -0.30431
  Beta  occ. eigenvalues --   -0.28644  -0.27731  -0.27630  -0.26285  -0.25652
  Beta  occ. eigenvalues --   -0.25349  -0.24652  -0.23268  -0.22751  -0.22647
  Beta  occ. eigenvalues --   -0.22104  -0.15713  -0.14976  -0.13811
  Beta virt. eigenvalues --    0.06737   0.07119   0.07844   0.08326   0.08970
  Beta virt. eigenvalues --    0.09317   0.09492   0.10551   0.10892   0.11090
  Beta virt. eigenvalues --    0.11204   0.11780   0.12133   0.12313   0.12995

 Mulliken charges and spin densities:
               1          2
     1  C    0.284746  -0.941221
     2  C   -0.308474   0.597142
     3  C   -0.058667  -0.182167
     4  C    0.141567  -0.495085
     5  C   -0.038922  -0.007304
     6  O   -0.343891   0.006997
     7  N    0.234856   0.090412
     8  C    1.189739  -1.487167
     9  C   -0.058153  -0.381718
    10  C   -1.585164   0.832188
    11  C    0.479976  -0.666813
    12  C    0.389204  -0.610805
    13  C    0.041693  -0.433291
    14  N   -0.020750  -0.014390
    15  H    0.076947   0.052929
    16  H   -0.243890   0.391527
    17  H   -0.249554   0.382816
    18  H   -0.211566   0.379449
    19  H    0.062504   0.103454
    20  H    0.127230   0.032458
    21  H    0.171232   0.031075
    22  H   -0.025455   0.174823
    23  H   -0.366303   0.546679
    24  H   -0.050480   0.247513
    25  H    0.210987  -0.041911
    26  H   -0.382239   0.564139
    27  H    0.110003   0.119921
    28  H   -0.284701   0.451919
    29  H    0.165433  -0.010382
    30  H   -0.303942   0.439453
    31  H   -0.002199   0.128348
    32  H   -0.430528   0.615330
    33  H    0.182584  -0.052281
    34  H    0.096174   0.135962
 Sum of Mulliken charges =  -1.00000   1.00000

 Dipole moment (field-independent basis, Debye):
    X=              0.0579    Y=              4.5754    Z=             -2.7069  Tot=              5.3165
 Quadrupole moment (field-independent basis, Debye-Ang):
   XX=           -151.2351   YY=           -140.8748   ZZ=           -124.3665
   XY=             -2.1642   XZ=             -1.1505   YZ=             11.1896

 Summary of Natural Population Analysis:

                                       Natural Population
                Natural  -----------------------------------------------
    Atom  No    Charge         Core      Valence    Rydberg      Total
 -----------------------------------------------------------------------
      C    1   -0.28160      0.99965     2.27554    0.00641     3.28160
      C    2   -0.11029      0.99959     2.10059    0.01011     3.11029
      C    3   -0.18612      0.99960     2.17717    0.00935     3.18612
      C    4   -0.23211      0.99959     2.22423    0.00830     3.23211
      C    5    0.35390      0.99964     1.62444    0.02202     2.64610
      O    6   -0.33028      0.99988     3.32539    0.00501     4.33028
      N    7   -0.25698      0.99961     2.74593    0.01143     3.75698
      C    8   -0.09126      0.99960     2.07910    0.01257     3.09126
      C    9   -0.19760      0.99960     2.18762    0.01038     3.19760
      C   10    0.08352      0.99957     1.90138    0.01553     2.91648
      C   11   -0.20319      0.99962     2.19556    0.00801     3.20319
      C   12   -0.20379      0.99965     2.19627    0.00787     3.20379
      C   13   -0.09115      0.99965     2.08046    0.01105     3.09115
      N   14   -0.33634      0.99976     2.82533    0.01126     3.83634
      H   15    0.09523      0.00000     0.40379    0.00098     0.40477
      H   16    0.10241      0.00000     0.39660    0.00099     0.39759
      H   17    0.09789      0.00000     0.40117    0.00094     0.40211
      H   18    0.09315      0.00000     0.40423    0.00262     0.40685
      H   19    0.09967      0.00000     0.39937    0.00096     0.40033
      H   20    0.09762      0.00000     0.40116    0.00121     0.40238
      H   21    0.11060      0.00000     0.38845    0.00095     0.38940
      H   22    0.10543      0.00000     0.39327    0.00130     0.39457
      H   23    0.10634      0.00000     0.39102    0.00264     0.39366
      H   24    0.09959      0.00000     0.39865    0.00176     0.40041
      H   25    0.10140      0.00000     0.39686    0.00173     0.39860
      H   26    0.10560      0.00000     0.39224    0.00216     0.39440
      H   27    0.11144      0.00000     0.38705    0.00151     0.38856
      H   28    0.10164      0.00000     0.39672    0.00164     0.39836
      H   29    0.10042      0.00000     0.39865    0.00094     0.39958
      H   30    0.10183      0.00000     0.39572    0.00245     0.39817
      H   31    0.09578      0.00000     0.40328    0.00093     0.40422
      H   32    0.09878      0.00000     0.40008    0.00114     0.40122
      H   33    0.08655      0.00000     0.41231    0.00113     0.41345
      H   34    0.17190      0.00000     0.32459    0.00351     0.32810
 =======================================================================
   * Total *    0.00000     13.99499    39.82424    0.18077    54.00000

 Normal termination of Gaussian 16 at Thu Dec 10 10:27:36 2020.
