 Gaussian 16, Revision A.03,

 -----------------------------------------------------------
 # opt freq B3LYP/6-31G(d) empiricaldispersion=gd3bj scf=xqc
 -----------------------------------------------------------

 -------------------------------
 CID_111152152_JID_7341_neutraal
 -------------------------------
 Symbolic Z-matrix:
 Charge =  0 Multiplicity = 1

 SCF Done:  E(RB3LYP) =  -711.657640616     A.U. after   14 cycles
 SCF Done:  E(RB3LYP) =  -711.663179057     A.U. after   12 cycles
 SCF Done:  E(RB3LYP) =  -711.663700312     A.U. after   12 cycles
 SCF Done:  E(RB3LYP) =  -711.664136204     A.U. after   11 cycles
 SCF Done:  E(RB3LYP) =  -711.664574069     A.U. after   12 cycles
 SCF Done:  E(RB3LYP) =  -711.664676955     A.U. after   12 cycles
 SCF Done:  E(RB3LYP) =  -711.664853548     A.U. after   11 cycles
 SCF Done:  E(RB3LYP) =  -711.665183931     A.U. after   12 cycles
 SCF Done:  E(RB3LYP) =  -711.665887320     A.U. after   12 cycles
 SCF Done:  E(RB3LYP) =  -711.666147568     A.U. after   11 cycles
 SCF Done:  E(RB3LYP) =  -711.668154831     A.U. after   10 cycles
 SCF Done:  E(RB3LYP) =  -711.668155694     A.U. after    8 cycles
 SCF Done:  E(RB3LYP) =  -711.668155981     A.U. after    7 cycles
 SCF Done:  E(RB3LYP) =  -711.668156038     A.U. after    7 cycles
 SCF Done:  E(RB3LYP) =  -711.668156074     A.U. after    7 cycles
 Optimization completed.
    -- Stationary point found.
 Normal termination of Gaussian 16 at Fri Dec 11 12:26:52 2020.

 --------------------------------------------------------------------
 #N Geom=AllCheck Guess=TCheck SCRF=Check GenChk RB3LYP/6-31G(d) Freq
 --------------------------------------------------------------------

 Structure from the checkpoint file:  "JID_7341.chk"
 -------------------------------
 CID_111152152_JID_7341_neutraal
 -------------------------------
 Charge =  0 Multiplicity = 1

 SCF Done:  E(RB3LYP) =  -711.668156074     A.U. after    1 cycles

  Exact polarizability: 205.503  12.385 161.265   2.122  23.669 135.056
 Approx polarizability: 273.807  11.979 231.873   4.055  48.662 218.527

                      1                      2                      3
                      A                      A                      A
 Frequencies --     20.7549                26.3418                44.1408
 Red. masses --      3.2147                 3.8170                 3.6791
 Frc consts  --      0.0008                 0.0016                 0.0042
 IR Inten    --      0.1286                 0.0778                 0.6858

                      4                      5                      6
                      A                      A                      A
 Frequencies --     60.0009                71.8690               100.5920
 Red. masses --      3.3819                 3.4484                 2.0740
 Frc consts  --      0.0072                 0.0105                 0.0124
 IR Inten    --      0.0134                 0.8471                 1.0338

                      7                      8                      9
                      A                      A                      A
 Frequencies --    122.2231               132.2019               144.9342
 Red. masses --      1.6050                 3.4009                 1.7074
 Frc consts  --      0.0141                 0.0350                 0.0211
 IR Inten    --      0.1013                 1.2912                 0.4987

                     10                     11                     12
                      A                      A                      A
 Frequencies --    171.9883               184.6128               200.6762
 Red. masses --      2.4447                 2.3198                 1.7590
 Frc consts  --      0.0426                 0.0466                 0.0417
 IR Inten    --      3.2676                 1.9156                 0.4257

                     13                     14                     15
                      A                      A                      A
 Frequencies --    223.4408               251.5238               254.9816
 Red. masses --      1.5066                 1.9718                 2.3059
 Frc consts  --      0.0443                 0.0735                 0.0883
 IR Inten    --      2.7122                 0.9573                 2.3679

                     16                     17                     18
                      A                      A                      A
 Frequencies --    272.5675               315.0035               335.1236
 Red. masses --      2.6817                 2.7044                 3.1627
 Frc consts  --      0.1174                 0.1581                 0.2093
 IR Inten    --      1.1306                 3.9273                 1.1941

                     19                     20                     21
                      A                      A                      A
 Frequencies --    372.4883               390.6596               413.0969
 Red. masses --      2.6695                 1.9322                 2.4434
 Frc consts  --      0.2182                 0.1737                 0.2457
 IR Inten    --      4.5476                 0.3582                 1.7296

                     22                     23                     24
                      A                      A                      A
 Frequencies --    455.2676               474.2975               514.1359
 Red. masses --      2.9194                 2.4361                 3.3400
 Frc consts  --      0.3565                 0.3229                 0.5202
 IR Inten    --      2.5819                 0.5805                 2.3595

                     25                     26                     27
                      A                      A                      A
 Frequencies --    530.9324               558.4021               590.5030
 Red. masses --      4.0911                 2.7453                 3.9203
 Frc consts  --      0.6795                 0.5044                 0.8054
 IR Inten    --      1.6289                22.0827                 6.5059

                     28                     29                     30
                      A                      A                      A
 Frequencies --    617.9902               682.5846               720.7990
 Red. masses --      3.7421                 1.4345                 2.2287
 Frc consts  --      0.8420                 0.3938                 0.6822
 IR Inten    --      4.1491                78.1574                35.6879

                     31                     32                     33
                      A                      A                      A
 Frequencies --    743.2767               756.1542               767.0037
 Red. masses --      2.2631                 3.7455                 1.6900
 Frc consts  --      0.7366                 1.2618                 0.5858
 IR Inten    --     32.5642                47.8925                16.2971

                     34                     35                     36
                      A                      A                      A
 Frequencies --    771.8746               778.5315               820.7710
 Red. masses --      1.3301                 2.4831                 2.3589
 Frc consts  --      0.4669                 0.8867                 0.9363
 IR Inten    --      5.0477                11.1569                 2.4004

                     37                     38                     39
                      A                      A                      A
 Frequencies --    854.6146               874.7769               885.6797
 Red. masses --      3.2040                 1.6918                 1.4405
 Frc consts  --      1.3787                 0.7628                 0.6657
 IR Inten    --      1.1020                 3.4316                 0.9709

                     40                     41                     42
                      A                      A                      A
 Frequencies --    917.7772               942.5934               967.3743
 Red. masses --      2.0107                 1.3644                 1.9382
 Frc consts  --      0.9979                 0.7142                 1.0687
 IR Inten    --      8.2448                 1.0295                 5.7573

                     43                     44                     45
                      A                      A                      A
 Frequencies --    983.1773               999.2181              1015.5057
 Red. masses --      1.2586                 1.5791                 1.8182
 Frc consts  --      0.7168                 0.9289                 1.1047
 IR Inten    --      0.0321                 4.3470                 0.9964

                     46                     47                     48
                      A                      A                      A
 Frequencies --   1028.0608              1038.5056              1061.1113
 Red. masses --      1.5882                 4.3034                 1.9817
 Frc consts  --      0.9890                 2.7345                 1.3147
 IR Inten    --      1.8988                28.8115                10.7323

                     49                     50                     51
                      A                      A                      A
 Frequencies --   1081.9059              1087.5180              1113.6036
 Red. masses --      1.5891                 2.0206                 2.5494
 Frc consts  --      1.0959                 1.4080                 1.8627
 IR Inten    --      3.7616                 8.5230                14.0311

                     52                     53                     54
                      A                      A                      A
 Frequencies --   1128.4936              1141.9450              1144.4463
 Red. masses --      1.3371                 1.7523                 2.5219
 Frc consts  --      1.0033                 1.3463                 1.9461
 IR Inten    --      3.0815                11.8759                35.0134

                     55                     56                     57
                      A                      A                      A
 Frequencies --   1150.3164              1165.0298              1194.1190
 Red. masses --      1.8463                 1.9901                 1.8861
 Frc consts  --      1.4394                 1.5915                 1.5846
 IR Inten    --      0.5093                 6.5462                30.7657

                     58                     59                     60
                      A                      A                      A
 Frequencies --   1196.8452              1214.5004              1242.4714
 Red. masses --      1.1020                 2.3645                 1.3468
 Frc consts  --      0.9301                 2.0549                 1.2250
 IR Inten    --      0.1333                 0.8754                57.7065

                     61                     62                     63
                      A                      A                      A
 Frequencies --   1253.9069              1275.3128              1288.4369
 Red. masses --      2.2571                 1.3334                 1.2690
 Frc consts  --      2.0909                 1.2778                 1.2412
 IR Inten    --      7.9475                 1.8033                 3.2735

                     64                     65                     66
                      A                      A                      A
 Frequencies --   1330.6811              1341.7545              1356.7317
 Red. masses --      1.4104                 1.1164                 3.7018
 Frc consts  --      1.4714                 1.1842                 4.0147
 IR Inten    --      2.8887                 1.3994                 0.3521

                     67                     68                     69
                      A                      A                      A
 Frequencies --   1376.8922              1390.2460              1408.0583
 Red. masses --      1.4246                 1.4629                 1.4530
 Frc consts  --      1.5913                 1.6659                 1.6973
 IR Inten    --     53.3931                55.9109                 3.4094

                     70                     71                     72
                      A                      A                      A
 Frequencies --   1410.3039              1443.6208              1446.7866
 Red. masses --      1.4106                 1.2980                 2.2898
 Frc consts  --      1.6531                 1.5938                 2.8240
 IR Inten    --     25.8454                11.5229               174.9029

                     73                     74                     75
                      A                      A                      A
 Frequencies --   1457.3894              1463.1991              1475.6958
 Red. masses --      1.4164                 1.2805                 1.3833
 Frc consts  --      1.7724                 1.6153                 1.7749
 IR Inten    --     37.1879                50.9065                44.9404

                     76                     77                     78
                      A                      A                      A
 Frequencies --   1495.5457              1496.9563              1515.2860
 Red. masses --      1.3811                 1.6304                 1.0824
 Frc consts  --      1.8200                 2.1526                 1.4643
 IR Inten    --     15.6697                 2.2631                 0.1674

                     79                     80                     81
                      A                      A                      A
 Frequencies --   1516.3211              1519.8461              1528.9253
 Red. masses --      1.0739                 1.0699                 1.0656
 Frc consts  --      1.4547                 1.4562                 1.4676
 IR Inten    --      5.9906                 6.1605                 2.1052

                     82                     83                     84
                      A                      A                      A
 Frequencies --   1531.9682              1534.5803              1537.3397
 Red. masses --      1.2764                 1.0928                 1.0924
 Frc consts  --      1.7649                 1.5163                 1.5211
 IR Inten    --     15.5857                 4.3741                 1.6033

                     85                     86                     87
                      A                      A                      A
 Frequencies --   1540.5757              1543.4474              1545.9858
 Red. masses --      1.0865                 1.4374                 1.2767
 Frc consts  --      1.5194                 2.0175                 1.7978
 IR Inten    --      5.6694                 9.0345                 9.0519

                     88                     89                     90
                      A                      A                      A
 Frequencies --   1557.1811              1640.0478              1668.1041
 Red. masses --      1.1087                 5.6340                 5.7441
 Frc consts  --      1.5840                 8.9285                 9.4171
 IR Inten    --      9.1479                 0.2561                 0.7682

                     91                     92                     93
                      A                      A                      A
 Frequencies --   1736.6355              2956.8802              3003.6551
 Red. masses --      4.8445                 1.0475                 1.0828
 Frc consts  --      8.6083                 5.3962                 5.7556
 IR Inten    --    468.3968                99.9710                 4.7086

                     94                     95                     96
                      A                      A                      A
 Frequencies --   3005.8297              3023.8069              3031.9118
 Red. masses --      1.0874                 1.0663                 1.0708
 Frc consts  --      5.7884                 5.7441                 5.7993
 IR Inten    --     98.1761                56.1386                54.8578

                     97                     98                     99
                      A                      A                      A
 Frequencies --   3046.8520              3047.1831              3049.2343
 Red. masses --      1.0371                 1.0612                 1.0394
 Frc consts  --      5.6724                 5.8054                 5.6940
 IR Inten    --     11.5846                31.6200                18.0084

                    100                    101                    102
                      A                      A                      A
 Frequencies --   3063.4808              3082.1343              3099.5853
 Red. masses --      1.0984                 1.0996                 1.0911
 Frc consts  --      6.0736                 6.1546                 6.1762
 IR Inten    --     31.5139                33.5670                48.6410

                    103                    104                    105
                      A                      A                      A
 Frequencies --   3104.8396              3109.2559              3113.3384
 Red. masses --      1.1001                 1.0923                 1.1010
 Frc consts  --      6.2483                 6.2218                 6.2875
 IR Inten    --     20.6631                16.9304                47.4419

                    106                    107                    108
                      A                      A                      A
 Frequencies --   3125.0499              3125.9248              3142.4586
 Red. masses --      1.1002                 1.1021                 1.0884
 Frc consts  --      6.3304                 6.3451                 6.3327
 IR Inten    --     46.5982                14.4794                23.0267

                    109                    110                    111
                      A                      A                      A
 Frequencies --   3173.3693              3178.5111              3192.8434
 Red. masses --      1.0862                 1.0883                 1.0916
 Frc consts  --      6.4446                 6.4780                 6.5564
 IR Inten    --     13.3296                 2.4087                31.5607

                    112                    113                    114
                      A                      A                      A
 Frequencies --   3207.8862              3576.5922              3579.6852
 Red. masses --      1.0974                 1.0750                 1.0739
 Frc consts  --      6.6537                 8.1024                 8.1076
 IR Inten    --     32.6717                14.5784                10.1586

 - Thermochemistry -
 -------------------
 Temperature   298.150 Kelvin.  Pressure   1.00000 Atm.
 Atom     1 has atomic number  6 and mass  12.00000

 Molecular mass:   233.18920 amu.
 Principal axes and moments of inertia in atomic units:
                           1         2         3
     Eigenvalues --  2917.290946458.414378080.81335
           X            0.99992  -0.01284   0.00203
           Y            0.01280   0.99977   0.01728
           Z           -0.00225  -0.01725   0.99985
 This molecule is an asymmetric top.
 Rotational symmetry number  1.
 Warning -- assumption of classical behavior for rotation
           may cause significant error
 Rotational temperatures (Kelvin)      0.02969     0.01341     0.01072
 Rotational constants (GHZ):           0.61864     0.27944     0.22334
 Zero-point vibrational energy     939005.2 (Joules/Mol)
                                  224.42762 (Kcal/Mol)
 Warning -- explicit consideration of  28 degrees of freedom as
           vibrations may cause significant error
 Vibrational temperatures:     29.86    37.90    63.51    86.33   103.40
          (Kelvin)            144.73   175.85   190.21   208.53   247.45
                              265.62   288.73   321.48   361.89   366.86
                              392.16   453.22   482.17   535.93   562.07
                              594.35   655.03   682.41   739.73   763.89
                              803.42   849.60   889.15   982.09  1037.07
                             1069.41  1087.94  1103.55  1110.56  1120.13
                             1180.91  1229.60  1258.61  1274.30  1320.48
                             1356.18  1391.84  1414.57  1437.65  1461.09
                             1479.15  1494.18  1526.70  1556.62  1564.70
                             1602.23  1623.65  1643.00  1646.60  1655.05
                             1676.22  1718.07  1721.99  1747.40  1787.64
                             1804.09  1834.89  1853.77  1914.55  1930.49
                             1952.03  1981.04  2000.25  2025.88  2029.11
                             2077.05  2081.60  2096.86  2105.22  2123.20
                             2151.76  2153.79  2180.16  2181.65  2186.72
                             2199.78  2204.16  2207.92  2211.89  2216.54
                             2220.68  2224.33  2240.44  2359.66  2400.03
                             2498.63  4254.29  4321.59  4324.72  4350.58
                             4362.24  4383.74  4384.22  4387.17  4407.67
                             4434.50  4459.61  4467.17  4473.53  4479.40
                             4496.25  4497.51  4521.30  4565.77  4573.17
                             4593.79  4615.43  5145.92  5150.37

 Zero-point correction=                           0.357648 (Hartree/Particle)
 Thermal correction to Energy=                    0.376018
 Thermal correction to Enthalpy=                  0.376963
 Thermal correction to Gibbs Free Energy=         0.309544
 Sum of electronic and zero-point Energies=           -711.310508
 Sum of electronic and thermal Energies=              -711.292138
 Sum of electronic and thermal Enthalpies=            -711.291193
 Sum of electronic and thermal Free Energies=         -711.358612

                     E (Thermal)             CV                S
                      KCal/Mol        Cal/Mol-Kelvin    Cal/Mol-Kelvin
 Total                  235.955             68.643            141.895
 Electronic               0.000              0.000              0.000
 Translational            0.889              2.981             42.242
 Rotational               0.889              2.981             33.387
 Vibrational            234.178             62.681             66.266
 Vibration     1          0.593              1.986              6.561
 Vibration     2          0.593              1.985              6.087
 Vibration     3          0.595              1.980              5.064
 Vibration     4          0.597              1.973              4.457
 Vibration     5          0.598              1.967              4.101
 Vibration     6          0.604              1.949              3.443
 Vibration     7          0.610              1.931              3.065
 Vibration     8          0.612              1.921              2.914
 Vibration     9          0.616              1.908              2.738
 Vibration    10          0.626              1.877              2.414
 Vibration    11          0.631              1.861              2.281
 Vibration    12          0.638              1.839              2.127
 Vibration    13          0.649              1.805              1.931
 Vibration    14          0.663              1.760              1.720
 Vibration    15          0.665              1.754              1.696
 Vibration    16          0.676              1.724              1.580
 Vibration    17          0.702              1.645              1.336
 Vibration    18          0.716              1.605              1.235
 Vibration    19          0.744              1.529              1.070
 Vibration    20          0.758              1.490              0.998
 Vibration    21          0.777              1.442              0.916
 Vibration    22          0.814              1.349              0.780
 Vibration    23          0.831              1.307              0.726
 Vibration    24          0.869              1.219              0.624
 Vibration    25          0.886              1.182              0.585
 Vibration    26          0.914              1.121              0.527
 Vibration    27          0.948              1.052              0.466
 Vibration    28          0.978              0.994              0.420

                           ! Non-Optimized Parameters !
 Normal termination of Gaussian 16 at Fri Dec 11 12:45:10 2020.

 ----------------------------------------------------------------------
 # B3LYP/6-311++G(d,p) empiricaldispersion=gd3bj scf=xqc pop=npa geom=c
 heck
 ----------------------------------------------------------------------

 ---------------------------------------
 CID_111152152_JID_7341_Energie_neutraal
 ---------------------------------------
 Structure from the checkpoint file:  "JID_7341.chk"
 Charge =  0 Multiplicity = 1

 SCF Done:  E(RB3LYP) =  -711.865797682     A.U. after   14 cycles
 Normal termination of Gaussian 16 at Fri Dec 11 12:53:51 2020.

 ----------------------------------------------------------------------
 # B3LYP/6-311++G(d,p) empiricaldispersion=gd3bj scf=xqc pop=npa geom=c
 heck
 ----------------------------------------------------------------------

 -------------------------------------
 CID_111152152_JID_7341_Energie_kation
 -------------------------------------
 Structure from the checkpoint file:  "JID_7341.chk"
 Charge =  1 Multiplicity = 2

 SCF Done:  E(UB3LYP) =  -711.590222886     A.U. after   23 cycles
 Normal termination of Gaussian 16 at Fri Dec 11 13:14:28 2020.
 Gaussian 16:  ES64L-G16RevA.03 25-Dec-2016

 ----------------------------------------------------------------------
 # B3LYP/6-311++G(d,p) empiricaldispersion=gd3bj scf=xqc pop=npa geom=c
 heck
 ----------------------------------------------------------------------

 ------------------------------------
 CID_111152152_JID_7341_Energie_anion
 ------------------------------------
 Structure from the checkpoint file:  "JID_7341.chk"
 Charge = -1 Multiplicity = 2

                         Standard orientation:
 ---------------------------------------------------------------------
 Center     Atomic      Atomic             Coordinates (Angstroms)
 Number     Number       Type             X           Y           Z
 ---------------------------------------------------------------------
      1          6           0        2.287291   -3.178252    0.499663
      2          6           0        3.077094   -2.005783    1.089275
      3          6           0        3.781096   -1.142759    0.032611
      4          6           0        2.838474   -0.310224   -0.839893
      5          7           0        2.125406    0.681376   -0.024484
      6          6           0        1.064396    1.423811   -0.542669
      7          7           0        0.880663    2.691258   -0.417390
      8          6           0        1.949268    3.502676    0.129262
      9          7           0        0.119073    0.677545   -1.239317
     10          6           0       -0.412783   -0.586633   -0.706755
     11          6           0       -1.876148   -0.498533   -0.330767
     12          6           0       -2.820727   -1.156856   -1.123809
     13          6           0       -4.183007   -1.098837   -0.830213
     14          6           0       -4.609634   -0.371942    0.278375
     15          6           0       -3.673222    0.285930    1.076870
     16          6           0       -2.304875    0.242479    0.791315
     17          6           0       -1.330164    0.990889    1.667628
     18          1           0        1.489426   -2.839283   -0.169314
     19          1           0        1.818938   -3.774782    1.290107
     20          1           0        2.942464   -3.842755   -0.077084
     21          1           0        2.410049   -1.368176    1.682339
     22          1           0        3.832016   -2.396998    1.783067
     23          1           0        4.490428   -0.463402    0.527871
     24          1           0        4.384333   -1.781649   -0.626386
     25          1           0        3.412306    0.178732   -1.642250
     26          1           0        2.102110   -0.948469   -1.330817
     27          1           0        2.763603    1.259578    0.508972
     28          1           0        1.974216    3.467776    1.231311
     29          1           0        2.956641    3.226782   -0.231561
     30          1           0        1.783207    4.548535   -0.148883
     31          1           0       -0.597312    1.298644   -1.598402
     32          1           0        0.192603   -0.862512    0.161088
     33          1           0       -0.287268   -1.382906   -1.452261
     34          1           0       -2.477862   -1.725560   -1.985268
     35          1           0       -4.899929   -1.617498   -1.460314
     36          1           0       -5.666185   -0.317059    0.525968
     37          1           0       -4.009081    0.847703    1.945175
     38          1           0       -0.958427    1.894310    1.170773
     39          1           0       -1.805073    1.287438    2.607797
     40          1           0       -0.449557    0.384508    1.911052
 ---------------------------------------------------------------------

 SCF Done:  E(UB3LYP) =  -711.853827861     A.U. after   33 cycles
 SCF Done:  E(UB3LYP) =  -711.853827861     a.u. after    1 cycles

 The electronic state is 2-A.
 Alpha  occ. eigenvalues --  -14.23163 -14.22786 -14.17877 -10.16667 -10.11800
 Alpha  occ. eigenvalues --  -10.10884 -10.09942 -10.09504 -10.09149 -10.09008
 Alpha  occ. eigenvalues --  -10.08944 -10.08859 -10.08736 -10.07406 -10.07396
 Alpha  occ. eigenvalues --  -10.07099 -10.06617  -0.89021  -0.80914  -0.78244
 Alpha  occ. eigenvalues --   -0.77063  -0.69882  -0.68943  -0.67791  -0.63039
 Alpha  occ. eigenvalues --   -0.61680  -0.59579  -0.57060  -0.55172  -0.51678
 Alpha  occ. eigenvalues --   -0.50536  -0.49315  -0.48307  -0.42519  -0.41392
 Alpha  occ. eigenvalues --   -0.40015  -0.39372  -0.37856  -0.37293  -0.36184
 Alpha  occ. eigenvalues --   -0.35165  -0.34704  -0.34280  -0.32955  -0.32861
 Alpha  occ. eigenvalues --   -0.32558  -0.31188  -0.30851  -0.30524  -0.30052
 Alpha  occ. eigenvalues --   -0.29611  -0.28827  -0.27184  -0.26080  -0.25436
 Alpha  occ. eigenvalues --   -0.25113  -0.24418  -0.23662  -0.23265  -0.17294
 Alpha  occ. eigenvalues --   -0.16544  -0.16186  -0.15381  -0.12576   0.03958
 Alpha virt. eigenvalues --    0.05334   0.06336   0.06608   0.06798   0.07108
 Alpha virt. eigenvalues --    0.07394   0.07578   0.08643   0.09140   0.09478
 Alpha virt. eigenvalues --    0.09670   0.09893   0.10951   0.11268   0.11907

  Beta  occ. eigenvalues --  -14.23148 -14.22784 -14.17870 -10.16662 -10.11793
  Beta  occ. eigenvalues --  -10.10869 -10.09942 -10.09494 -10.09122 -10.08989
  Beta  occ. eigenvalues --  -10.08931 -10.08852 -10.08726 -10.07387 -10.07375
  Beta  occ. eigenvalues --  -10.07081 -10.06593  -0.89004  -0.80894  -0.78223
  Beta  occ. eigenvalues --   -0.77043  -0.69839  -0.68920  -0.67764  -0.62999
  Beta  occ. eigenvalues --   -0.61647  -0.59550  -0.57024  -0.55111  -0.51645
  Beta  occ. eigenvalues --   -0.50509  -0.49286  -0.48230  -0.42484  -0.41367
  Beta  occ. eigenvalues --   -0.39980  -0.39343  -0.37806  -0.37261  -0.36160
  Beta  occ. eigenvalues --   -0.35134  -0.34674  -0.34253  -0.32933  -0.32833
  Beta  occ. eigenvalues --   -0.32535  -0.31161  -0.30832  -0.30500  -0.30027
  Beta  occ. eigenvalues --   -0.29576  -0.28789  -0.27147  -0.26055  -0.25414
  Beta  occ. eigenvalues --   -0.25082  -0.24374  -0.23615  -0.23230  -0.17234
  Beta  occ. eigenvalues --   -0.16519  -0.16154  -0.15352  -0.12557
  Beta virt. eigenvalues --    0.05756   0.06330   0.06685   0.06829   0.07002
  Beta virt. eigenvalues --    0.07437   0.07858   0.08036   0.08943   0.09621
  Beta virt. eigenvalues --    0.09752   0.09916   0.10155   0.11112   0.11420

 Mulliken charges and spin densities:
               1          2
     1  C    0.548034  -1.061423
     2  C   -0.823397   0.735820
     3  C    1.161004  -1.615232
     4  C   -0.115439  -0.072635
     5  N   -0.120694   0.044478
     6  C   -0.492022  -0.072453
     7  N   -0.163281   0.075277
     8  C    0.135585  -0.575661
     9  N    0.093834  -0.033005
    10  C   -0.003456  -0.195944
    11  C   -0.084248   0.344387
    12  C   -0.793039   0.401980
    13  C    0.779267  -1.059008
    14  C    0.585454  -0.897285
    15  C   -0.673846   0.313333
    16  C    0.119664   0.248423
    17  C    0.030600  -0.414413
    18  H   -0.113126   0.220484
    19  H   -0.060808   0.193958
    20  H   -0.192654   0.329090
    21  H   -0.105189   0.228770
    22  H   -0.359452   0.540520
    23  H   -0.473603   0.633587
    24  H   -0.211537   0.361578
    25  H   -0.291689   0.495698
    26  H    0.182111  -0.037878
    27  H    0.435800  -0.166277
    28  H   -0.085867   0.232810
    29  H   -0.254952   0.383577
    30  H   -0.017749   0.157462
    31  H    0.284824  -0.000617
    32  H    0.519210  -0.535977
    33  H    0.037535   0.217372
    34  H   -0.162560   0.296060
    35  H   -0.290425   0.453212
    36  H   -0.240453   0.395989
    37  H   -0.051503   0.188521
    38  H    0.278788  -0.078028
    39  H   -0.038615   0.210648
    40  H    0.027895   0.112798
 Sum of Mulliken charges =  -1.00000   1.00000

 Dipole moment (field-independent basis, Debye):
    X=             -4.2908    Y=              1.0449    Z=             -0.1565  Tot=              4.4190
 Quadrupole moment (field-independent basis, Debye-Ang):
   XX=           -209.3739   YY=           -162.9650   ZZ=           -139.3624
   XY=             -0.3530   XZ=             -4.7785   YZ=              2.7181

 Summary of Natural Population Analysis:

                                       Natural Population
                Natural  -----------------------------------------------
    Atom  No    Charge         Core      Valence    Rydberg      Total
 -----------------------------------------------------------------------
      C    1   -0.28540      0.99966     2.28144    0.00431     3.28540
      C    2   -0.19363      0.99964     2.18562    0.00837     3.19363
      C    3   -0.19234      0.99962     2.18314    0.00958     3.19234
      C    4   -0.08565      0.99960     2.07483    0.01122     3.08565
      N    5   -0.33990      0.99967     2.83012    0.01011     3.83990
      C    6    0.31587      0.99957     1.66723    0.01733     2.68413
      N    7   -0.30565      0.99964     2.79519    0.01082     3.80565
      C    8   -0.19559      0.99964     2.18631    0.00964     3.19559
      N    9   -0.32675      0.99968     2.81717    0.00990     3.82675
      C   10   -0.11329      0.99960     2.09831    0.01539     3.11329
      C   11    0.02417      0.99946     1.97086    0.00551     2.97583
      C   12   -0.11378      0.99956     2.09754    0.01668     3.11378
      C   13   -0.10606      0.99956     2.09654    0.00997     3.10606
      C   14   -0.09719      0.99955     2.08746    0.01017     3.09719
      C   15   -0.10081      0.99952     2.09223    0.00906     3.10081
      C   16   -0.02386      0.99951     2.01033    0.01401     3.02386
      C   17   -0.30369      0.99963     2.29888    0.00519     3.30369
      H   18    0.09430      0.00000     0.40437    0.00133     0.40570
      H   19    0.09903      0.00000     0.39998    0.00099     0.40097
      H   20    0.09579      0.00000     0.40306    0.00115     0.40421
      H   21    0.09721      0.00000     0.40119    0.00160     0.40279
      H   22    0.09708      0.00000     0.40160    0.00132     0.40292
      H   23    0.09917      0.00000     0.39847    0.00236     0.40083
      H   24    0.09950      0.00000     0.39907    0.00143     0.40050
      H   25    0.08943      0.00000     0.40910    0.00147     0.41057
      H   26    0.09682      0.00000     0.40119    0.00198     0.40318
      H   27    0.18986      0.00000     0.30632    0.00382     0.31014
      H   28    0.08725      0.00000     0.41159    0.00117     0.41275
      H   29    0.08445      0.00000     0.41376    0.00179     0.41555
      H   30    0.09386      0.00000     0.40497    0.00118     0.40614
      H   31    0.19198      0.00000     0.30500    0.00302     0.30802
      H   32    0.10829      0.00000     0.38935    0.00237     0.39171
      H   33    0.09383      0.00000     0.40467    0.00150     0.40617
      H   34    0.10060      0.00000     0.39827    0.00113     0.39940
      H   35    0.10125      0.00000     0.39745    0.00129     0.39875
      H   36    0.10032      0.00000     0.39846    0.00122     0.39968
      H   37    0.09843      0.00000     0.40060    0.00096     0.40157
      H   38    0.11984      0.00000     0.37858    0.00158     0.38016
      H   39    0.10006      0.00000     0.39910    0.00084     0.39994
      H   40    0.10535      0.00000     0.39334    0.00131     0.39465
 =======================================================================
   * Total *    0.00015     16.99312    46.79268    0.21405    63.99985

 Normal termination of Gaussian 16 at Fri Dec 11 13:44:44 2020.
