 Gaussian 16, Revision A.03,

 -----------------------------------------------------------
 # opt freq B3LYP/6-31G(d) empiricaldispersion=gd3bj scf=xqc
 -----------------------------------------------------------

 ------------------------------
 CID_62860891_JID_9676_neutraal
 ------------------------------
 Symbolic Z-matrix:
 Charge =  0 Multiplicity = 1

 SCF Done:  E(RB3LYP) =  -906.631605608     A.U. after   14 cycles
 SCF Done:  E(RB3LYP) =  -906.642735013     A.U. after   12 cycles
 SCF Done:  E(RB3LYP) =  -906.645552284     A.U. after   12 cycles
 SCF Done:  E(RB3LYP) =  -906.646660521     A.U. after   13 cycles
 SCF Done:  E(RB3LYP) =  -906.647181395     A.U. after   13 cycles
 SCF Done:  E(RB3LYP) =  -906.647385030     A.U. after   11 cycles
 SCF Done:  E(RB3LYP) =  -906.647435533     A.U. after   10 cycles
 SCF Done:  E(RB3LYP) =  -906.647444885     A.U. after   10 cycles
 SCF Done:  E(RB3LYP) =  -906.647450007     A.U. after    9 cycles
 SCF Done:  E(RB3LYP) =  -906.647454435     A.U. after    9 cycles
 SCF Done:  E(RB3LYP) =  -906.647909453     A.U. after   10 cycles
 SCF Done:  E(RB3LYP) =  -906.647909586     A.U. after    7 cycles
 SCF Done:  E(RB3LYP) =  -906.647909935     A.U. after    9 cycles
 SCF Done:  E(RB3LYP) =  -906.647909945     A.U. after    6 cycles
 SCF Done:  E(RB3LYP) =  -906.647909951     A.U. after    5 cycles
 Optimization completed.
    -- Stationary point found.
 Normal termination of Gaussian 16 at Sat Dec 12 10:57:07 2020.

 --------------------------------------------------------------------
 #N Geom=AllCheck Guess=TCheck SCRF=Check GenChk RB3LYP/6-31G(d) Freq
 --------------------------------------------------------------------

 Structure from the checkpoint file:  "JID_9676.chk"
 ------------------------------
 CID_62860891_JID_9676_neutraal
 ------------------------------
 Charge =  0 Multiplicity = 1

 SCF Done:  E(RB3LYP) =  -906.647909951     A.U. after    1 cycles

  Exact polarizability: 206.638  22.559 139.775  13.344  -2.894 122.505
 Approx polarizability: 276.714  27.140 215.113  25.375 -10.777 208.882

                      1                      2                      3
                      A                      A                      A
 Frequencies --      8.0180                17.9967                34.2099
 Red. masses --      4.5976                 5.1197                 1.0267
 Frc consts  --      0.0002                 0.0010                 0.0007
 IR Inten    --      0.7991                 0.0727                 0.6059

                      4                      5                      6
                      A                      A                      A
 Frequencies --     35.5896                81.9543               132.1047
 Red. masses --      5.3194                 3.1200                 5.2284
 Frc consts  --      0.0040                 0.0123                 0.0538
 IR Inten    --      0.1430                 7.2396                 0.0913

                      7                      8                      9
                      A                      A                      A
 Frequencies --    139.6462               146.6194               158.6123
 Red. masses --      3.2005                 2.2925                 1.5479
 Frc consts  --      0.0368                 0.0290                 0.0229
 IR Inten    --      0.3759                 0.2792                 1.6537

                     10                     11                     12
                      A                      A                      A
 Frequencies --    175.0616               183.7565               190.0363
 Red. masses --      2.7741                 1.8439                 3.4061
 Frc consts  --      0.0501                 0.0367                 0.0725
 IR Inten    --      0.5320                 0.7936                 6.7617

                     13                     14                     15
                      A                      A                      A
 Frequencies --    203.0144               220.7672               226.4525
 Red. masses --      3.2622                 2.7928                 4.1680
 Frc consts  --      0.0792                 0.0802                 0.1259
 IR Inten    --      1.5286                 1.6668                 2.5070

                     16                     17                     18
                      A                      A                      A
 Frequencies --    254.9779               283.7972               334.3199
 Red. masses --      5.1511                 3.3462                 4.3247
 Frc consts  --      0.1973                 0.1588                 0.2848
 IR Inten    --      1.9140                 8.8570                11.3780

                     19                     20                     21
                      A                      A                      A
 Frequencies --    398.6438               414.8458               435.9519
 Red. masses --      3.7800                 4.1103                 3.2505
 Frc consts  --      0.3539                 0.4168                 0.3640
 IR Inten    --      5.2337                 4.0251                 0.9970

                     22                     23                     24
                      A                      A                      A
 Frequencies --    452.0169               531.5561               553.1793
 Red. masses --      1.1211                 3.7236                 3.5578
 Frc consts  --      0.1350                 0.6199                 0.6414
 IR Inten    --     81.0411                31.7788                 3.5029

                     25                     26                     27
                      A                      A                      A
 Frequencies --    565.4704               583.2453               609.9690
 Red. masses --      9.9972                 4.9811                 6.3039
 Frc consts  --      1.8834                 0.9983                 1.3819
 IR Inten    --      2.4862                 0.5324                 4.9060

                     28                     29                     30
                      A                      A                      A
 Frequencies --    644.0762               658.9725               728.4618
 Red. masses --      5.7184                 5.3746                 4.5681
 Frc consts  --      1.3977                 1.3751                 1.4282
 IR Inten    --     13.9046                 8.1380                 1.2540

                     31                     32                     33
                      A                      A                      A
 Frequencies --    739.5977               746.8106               774.0746
 Red. masses --     10.2309                11.5350                 4.4829
 Frc consts  --      3.2973                 3.7904                 1.5826
 IR Inten    --      0.3742                 0.0184                 2.6885

                     34                     35                     36
                      A                      A                      A
 Frequencies --    780.6711               827.7312               852.8643
 Red. masses --      5.0360                11.5693                 1.2647
 Frc consts  --      1.8083                 4.6702                 0.5420
 IR Inten    --      5.6800                48.2027                 4.7892

                     37                     38                     39
                      A                      A                      A
 Frequencies --    931.4180               968.3530               990.0702
 Red. masses --      4.3550                 5.1662                 2.8345
 Frc consts  --      2.2260                 2.8543                 1.6371
 IR Inten    --      5.5157                 6.1399                18.0345

                     40                     41                     42
                      A                      A                      A
 Frequencies --    995.4642              1000.3491              1016.5149
 Red. masses --     12.6456                 1.4046                 8.6792
 Frc consts  --      7.3831                 0.8281                 5.2839
 IR Inten    --      0.9609                 0.0981                 1.1317

                     43                     44                     45
                      A                      A                      A
 Frequencies --   1028.2512              1064.9033              1080.1128
 Red. masses --      1.6904                 5.1358                 1.6665
 Frc consts  --      1.0530                 3.4315                 1.1455
 IR Inten    --      5.1624                 9.9408                 6.0375

                     46                     47                     48
                      A                      A                      A
 Frequencies --   1095.9574              1139.4232              1173.2646
 Red. masses --      4.0852                 1.4008                 2.6339
 Frc consts  --      2.8910                 1.0715                 2.1362
 IR Inten    --      4.5917                 4.6733                31.2142

                     49                     50                     51
                      A                      A                      A
 Frequencies --   1178.8259              1185.6542              1186.3566
 Red. masses --      2.9037                 1.2673                 1.2664
 Frc consts  --      2.3774                 1.0496                 1.0501
 IR Inten    --    163.5487                 0.9116                 0.3386

                     52                     53                     54
                      A                      A                      A
 Frequencies --   1223.2016              1238.1043              1251.4295
 Red. masses --      1.7672                 1.8251                 5.5272
 Frc consts  --      1.5579                 1.6484                 5.1000
 IR Inten    --    114.1110                14.8329                 0.8213

                     55                     56                     57
                      A                      A                      A
 Frequencies --   1286.1512              1295.0015              1326.9390
 Red. masses --      2.1481                 2.4910                 2.4645
 Frc consts  --      2.0935                 2.4613                 2.5567
 IR Inten    --     28.0548                14.5303                 8.1845

                     58                     59                     60
                      A                      A                      A
 Frequencies --   1331.5636              1370.4923              1397.1210
 Red. masses --      2.7405                 1.6526                 2.6683
 Frc consts  --      2.8629                 1.8288                 3.0687
 IR Inten    --      6.5957                72.4467               334.4754

                     61                     62                     63
                      A                      A                      A
 Frequencies --   1418.7329              1435.9346              1452.8871
 Red. masses --      1.6888                 1.8792                 1.6110
 Frc consts  --      2.0028                 2.2830                 2.0036
 IR Inten    --    288.8911               301.7150               187.5423

                     64                     65                     66
                      A                      A                      A
 Frequencies --   1455.0756              1474.3266              1486.6005
 Red. masses --      2.1969                 1.1929                 2.1421
 Frc consts  --      2.7406                 1.5277                 2.7892
 IR Inten    --     22.6647                21.6226                72.3307

                     67                     68                     69
                      A                      A                      A
 Frequencies --   1508.4352              1512.0862              1512.2536
 Red. masses --      1.0463                 1.0492                 1.0490
 Frc consts  --      1.4026                 1.4133                 1.4134
 IR Inten    --      5.0862                 5.6793                 7.7762

                     70                     71                     72
                      A                      A                      A
 Frequencies --   1514.3785              1521.1319              1522.5972
 Red. masses --      1.2176                 1.3076                 1.0827
 Frc consts  --      1.6452                 1.7827                 1.4789
 IR Inten    --     12.3100                56.9150               132.7782

                     73                     74                     75
                      A                      A                      A
 Frequencies --   1526.5805              1539.2277              1601.5280
 Red. masses --      1.2813                 2.1223                 7.1605
 Frc consts  --      1.7594                 2.9625                10.8209
 IR Inten    --     55.1931               156.6205               505.2338

                     76                     77                     78
                      A                      A                      A
 Frequencies --   1618.7607              1627.4692              1634.0231
 Red. masses --      7.7191                 6.3605                 6.0262
 Frc consts  --     11.9173                 9.9259                 9.4800
 IR Inten    --    428.2881               113.1815               296.7364

                     79                     80                     81
                      A                      A                      A
 Frequencies --   1648.1929              3063.7279              3070.5032
 Red. masses --      4.9173                 1.0377                 1.0299
 Frc consts  --      7.8704                 5.7391                 5.7207
 IR Inten    --    547.2727                 9.8272                44.6430

                     82                     83                     84
                      A                      A                      A
 Frequencies --   3072.5657              3081.8590              3119.7738
 Red. masses --      1.0297                 1.0600                 1.1002
 Frc consts  --      5.7275                 5.9317                 6.3089
 IR Inten    --     26.1499                18.9633                10.0950

                     85                     86                     87
                      A                      A                      A
 Frequencies --   3126.1273              3143.0461              3146.2437
 Red. masses --      1.1045                 1.1073                 1.1074
 Frc consts  --      6.3597                 6.4448                 6.4585
 IR Inten    --      4.3872                25.1885                20.7947

                     88                     89                     90
                      A                      A                      A
 Frequencies --   3169.6374              3171.4634              3176.9863
 Red. masses --      1.1017                 1.0913                 1.1065
 Frc consts  --      6.5212                 6.4673                 6.5801
 IR Inten    --     15.9657                18.4977                26.8141

                     91                     92                     93
                      A                      A                      A
 Frequencies --   3179.0127              3240.0919              3650.5972
 Red. masses --      1.1069                 1.0931                 1.0775
 Frc consts  --      6.5906                 6.7611                 8.4603
 IR Inten    --     25.2082                 5.2166                54.2538

 - Thermochemistry -
 -------------------
 Temperature   298.150 Kelvin.  Pressure   1.00000 Atm.
 Atom     1 has atomic number  6 and mass  12.00000

 Molecular mass:   262.11782 amu.
 Principal axes and moments of inertia in atomic units:
                           1         2         3
     Eigenvalues --  2518.116018967.05813**********
           X            0.99980   0.01936   0.00409
           Y           -0.01940   0.99975   0.01079
           Z           -0.00388  -0.01087   0.99993
 This molecule is an asymmetric top.
 Rotational symmetry number  1.
 Warning -- assumption of classical behavior for rotation
           may cause significant error
 Rotational temperatures (Kelvin)      0.03440     0.00966     0.00855
 Rotational constants (GHZ):           0.71670     0.20126     0.17825
 Zero-point vibrational energy     689658.2 (Joules/Mol)
                                  164.83227 (Kcal/Mol)
 Warning -- explicit consideration of  27 degrees of freedom as
           vibrations may cause significant error
 Vibrational temperatures:     11.54    25.89    49.22    51.21   117.91
          (Kelvin)            190.07   200.92   210.95   228.21   251.87
                              264.38   273.42   292.09   317.63   325.81
                              366.86   408.32   481.01   573.56   596.87
                              627.24   650.35   764.79   795.90   813.59
                              839.16   877.61   926.68   948.11  1048.09
                             1064.12  1074.49  1113.72  1123.21  1190.92
                             1227.08  1340.10  1393.24  1424.49  1432.25
                             1439.28  1462.54  1479.42  1532.16  1554.04
                             1576.84  1639.38  1688.07  1696.07  1705.89
                             1706.90  1759.91  1781.36  1800.53  1850.48
                             1863.22  1909.17  1915.82  1971.83  2010.15
                             2041.24  2065.99  2090.38  2093.53  2121.23
                             2138.89  2170.30  2175.55  2175.80  2178.85
                             2188.57  2190.68  2196.41  2214.61  2304.24
                             2329.04  2341.57  2350.99  2371.38  4408.02
                             4417.77  4420.74  4434.11  4488.66  4497.80
                             4522.14  4526.74  4560.40  4563.03  4570.97
                             4573.89  4661.77  5252.40

 Zero-point correction=                           0.262677 (Hartree/Particle)
 Thermal correction to Energy=                    0.280664
 Thermal correction to Enthalpy=                  0.281608
 Thermal correction to Gibbs Free Energy=         0.212780
 Sum of electronic and zero-point Energies=           -906.385233
 Sum of electronic and thermal Energies=              -906.367246
 Sum of electronic and thermal Enthalpies=            -906.366302
 Sum of electronic and thermal Free Energies=         -906.435130

                     E (Thermal)             CV                S
                      KCal/Mol        Cal/Mol-Kelvin    Cal/Mol-Kelvin
 Total                  176.119             64.835            144.862
 Electronic               0.000              0.000              0.000
 Translational            0.889              2.981             42.590
 Rotational               0.889              2.981             33.791
 Vibrational            174.342             58.874             68.481
 Vibration     1          0.593              1.987              8.450
 Vibration     2          0.593              1.986              6.844
 Vibration     3          0.594              1.983              5.569
 Vibration     4          0.594              1.982              5.491
 Vibration     5          0.600              1.962              3.844
 Vibration     6          0.612              1.921              2.915
 Vibration     7          0.615              1.914              2.809
 Vibration     8          0.617              1.906              2.716
 Vibration     9          0.621              1.893              2.566
 Vibration    10          0.627              1.873              2.380
 Vibration    11          0.631              1.862              2.290
 Vibration    12          0.633              1.854              2.227
 Vibration    13          0.639              1.836              2.106
 Vibration    14          0.647              1.809              1.953
 Vibration    15          0.650              1.801              1.907
 Vibration    16          0.665              1.754              1.696
 Vibration    17          0.682              1.704              1.511
 Vibration    18          0.716              1.607              1.239
 Vibration    19          0.765              1.473              0.968
 Vibration    20          0.778              1.438              0.910
 Vibration    21          0.796              1.392              0.839
 Vibration    22          0.811              1.356              0.790
 Vibration    23          0.887              1.180              0.584
 Vibration    24          0.909              1.133              0.538
 Vibration    25          0.921              1.106              0.513
 Vibration    26          0.940              1.068              0.479
 Vibration    27          0.969              1.011              0.433

 Optimization completed.
    -- Stationary point found.
 Normal termination of Gaussian 16 at Sat Dec 12 11:10:51 2020.

 ----------------------------------------------------------------------
 # B3LYP/6-311++G(d,p) empiricaldispersion=gd3bj scf=xqc pop=npa geom=c
 heck
 ----------------------------------------------------------------------

 --------------------------------------
 CID_62860891_JID_9676_Energie_neutraal
 --------------------------------------
 Structure from the checkpoint file:  "JID_9676.chk"
 Charge =  0 Multiplicity = 1

 SCF Done:  E(RB3LYP) =  -906.895804958     A.U. after   15 cycles
 Normal termination of Gaussian 16 at Sat Dec 12 11:16:31 2020.

 ----------------------------------------------------------------------
 # B3LYP/6-311++G(d,p) empiricaldispersion=gd3bj scf=xqc pop=npa geom=c
 heck
 ----------------------------------------------------------------------

 ------------------------------------
 CID_62860891_JID_9676_Energie_kation
 ------------------------------------
 Structure from the checkpoint file:  "JID_9676.chk"
 Charge =  1 Multiplicity = 2

 SCF Done:  E(UB3LYP) =  -906.581929948     A.U. after   26 cycles
 Normal termination of Gaussian 16 at Sat Dec 12 11:30:26 2020.
 Gaussian 16:  ES64L-G16RevA.03 25-Dec-2016

 ----------------------------------------------------------------------
 # B3LYP/6-311++G(d,p) empiricaldispersion=gd3bj scf=xqc pop=npa geom=c
 heck
 ----------------------------------------------------------------------

 -----------------------------------
 CID_62860891_JID_9676_Energie_anion
 -----------------------------------
 Structure from the checkpoint file:  "JID_9676.chk"
 Charge = -1 Multiplicity = 2

                         Standard orientation:
 ---------------------------------------------------------------------
 Center     Atomic      Atomic             Coordinates (Angstroms)
 Number     Number       Type             X           Y           Z
 ---------------------------------------------------------------------
      1          6           0       -5.482978   -0.289865   -0.265887
      2          6           0       -4.118363    0.179619    0.155951
      3          7           0       -3.912078    0.337848    1.475576
      4          6           0       -2.697358    0.759061    1.834815
      5          6           0       -1.684347    1.025091    0.916436
      6          6           0       -1.999657    0.824291   -0.424256
      7          7           0       -3.214097    0.403581   -0.806706
      8          6           0       -1.021865    1.055398   -1.561872
      9          7           0        0.315782    1.428455   -1.157674
     10          6           0        1.210657    0.547358   -0.646670
     11          7           0        0.825563   -0.734739   -0.540141
     12          6           0        1.759344   -1.534989   -0.013779
     13          7           0        2.981998   -1.183377    0.385002
     14          6           0        3.236392    0.117288    0.217143
     15          7           0        2.409955    1.041031   -0.281506
     16          8           0        4.458069    0.490549    0.607104
     17          6           0        4.804137    1.871222    0.456210
     18          8           0        1.470677   -2.827236    0.151511
     19          6           0        0.159740   -3.260724   -0.233124
     20          1           0       -5.719291   -1.245721    0.214053
     21          1           0       -6.246152    0.426636    0.057694
     22          1           0       -5.527139   -0.403570   -1.350223
     23          1           0       -2.527453    0.886412    2.903004
     24          1           0       -0.703746    1.362180    1.228814
     25          1           0       -0.981971    0.138431   -2.156908
     26          1           0       -1.417497    1.842572   -2.211272
     27          1           0        0.615370    2.391268   -1.190035
     28          1           0        4.751325    2.174751   -0.592908
     29          1           0        4.135995    2.507885    1.042771
     30          1           0        5.827287    1.948810    0.825653
     31          1           0       -0.609078   -2.716540    0.321705
     32          1           0       -0.002635   -3.108529   -1.303576
     33          1           0        0.130938   -4.323189    0.010645
 ---------------------------------------------------------------------

 SCF Done:  E(UB3LYP) =  -906.894787391     A.U. after   33 cycles
 SCF Done:  E(UB3LYP) =  -906.894787391     a.u. after    1 cycles

 The electronic state is 2-A.
 Alpha  occ. eigenvalues --  -19.07657 -19.07454 -14.24139 -14.21127 -14.21020
 Alpha  occ. eigenvalues --  -14.20740 -14.17489 -14.17128 -10.20768 -10.20688
 Alpha  occ. eigenvalues --  -10.18907 -10.13702 -10.13202 -10.11842 -10.10056
 Alpha  occ. eigenvalues --  -10.08141 -10.07760 -10.05976 -10.05384  -1.01356
 Alpha  occ. eigenvalues --   -1.00304  -0.91888  -0.85647  -0.84854  -0.79420
 Alpha  occ. eigenvalues --   -0.78538  -0.75571  -0.68151  -0.65786  -0.62922
 Alpha  occ. eigenvalues --   -0.62241  -0.60242  -0.55685  -0.53293  -0.51176
 Alpha  occ. eigenvalues --   -0.49599  -0.48281  -0.46126  -0.42325  -0.40855
 Alpha  occ. eigenvalues --   -0.40779  -0.39614  -0.38684  -0.38637  -0.35937
 Alpha  occ. eigenvalues --   -0.35026  -0.34204  -0.33816  -0.33355  -0.33118
 Alpha  occ. eigenvalues --   -0.31216  -0.30003  -0.29341  -0.28750  -0.27801
 Alpha  occ. eigenvalues --   -0.27113  -0.27022  -0.26706  -0.26455  -0.26157
 Alpha  occ. eigenvalues --   -0.19649  -0.18576  -0.18412  -0.18263  -0.17838
 Alpha  occ. eigenvalues --   -0.17585  -0.15056  -0.14681  -0.12195   0.04244
 Alpha virt. eigenvalues --    0.05944   0.07186   0.07594   0.08123   0.08383
 Alpha virt. eigenvalues --    0.08502   0.09104   0.09499   0.09837   0.10242
 Alpha virt. eigenvalues --    0.10575   0.10999   0.11633   0.12013   0.12477

  Beta  occ. eigenvalues --  -19.07649 -19.07447 -14.24118 -14.21109 -14.21024
  Beta  occ. eigenvalues --  -14.20739 -14.17313 -14.16887 -10.20763 -10.20655
  Beta  occ. eigenvalues --  -10.18902 -10.13702 -10.13175 -10.11885 -10.10080
  Beta  occ. eigenvalues --  -10.07801 -10.07507 -10.05976 -10.05480  -1.01335
  Beta  occ. eigenvalues --   -1.00286  -0.91867  -0.85417  -0.84684  -0.79397
  Beta  occ. eigenvalues --   -0.78497  -0.75061  -0.67903  -0.65762  -0.62895
  Beta  occ. eigenvalues --   -0.62148  -0.60166  -0.55565  -0.53200  -0.50781
  Beta  occ. eigenvalues --   -0.49512  -0.48215  -0.46062  -0.42280  -0.40809
  Beta  occ. eigenvalues --   -0.40724  -0.39430  -0.38617  -0.38557  -0.35880
  Beta  occ. eigenvalues --   -0.34975  -0.34147  -0.33785  -0.33038  -0.32926
  Beta  occ. eigenvalues --   -0.30995  -0.29864  -0.29312  -0.28682  -0.27747
  Beta  occ. eigenvalues --   -0.27030  -0.26966  -0.26640  -0.26210  -0.25679
  Beta  occ. eigenvalues --   -0.19591  -0.18427  -0.18370  -0.17826  -0.17295
  Beta  occ. eigenvalues --   -0.16832  -0.14803  -0.14129  -0.11944
  Beta virt. eigenvalues --    0.06567   0.07284   0.08086   0.08135   0.08443
  Beta virt. eigenvalues --    0.08563   0.09142   0.09545   0.09666   0.10168
  Beta virt. eigenvalues --    0.10592   0.10839   0.10977   0.11807   0.12022

 Mulliken charges and spin densities:
               1          2
     1  C   -0.527994  -0.000292
     2  C   -0.087311  -0.034366
     3  N   -0.088670   0.098883
     4  C   -0.567866   0.291402
     5  C    0.125895  -0.184248
     6  C   -0.286369   0.447706
     7  N    0.004532   0.124497
     8  C    0.439412  -0.783191
     9  N   -0.254787   0.096877
    10  C    0.177816  -0.404328
    11  N   -0.101455  -0.026922
    12  C    0.083200   0.023841
    13  N   -0.443349   0.012256
    14  C   -0.063803   0.112300
    15  N   -0.213283   0.139276
    16  O   -0.141116   0.038309
    17  C    0.616284  -0.844381
    18  O   -0.100805   0.002141
    19  C   -0.223486  -0.001099
    20  H    0.137825   0.002263
    21  H    0.146333  -0.002177
    22  H    0.138734  -0.000137
    23  H    0.125857  -0.000404
    24  H    0.131917   0.046618
    25  H    0.283113  -0.049376
    26  H   -0.346352   0.545088
    27  H   -0.122028   0.475157
    28  H   -0.194295   0.373111
    29  H   -0.127698   0.302907
    30  H   -0.043926   0.197878
    31  H    0.213702  -0.001790
    32  H    0.154001  -0.001308
    33  H    0.155973   0.003509
 Sum of Mulliken charges =  -1.00000   1.00000

 Dipole moment (field-independent basis, Debye):
    X=              0.0152    Y=             -4.4766    Z=             -0.3353  Tot=              4.4891
 Quadrupole moment (field-independent basis, Debye-Ang):
   XX=           -190.8476   YY=           -141.8918   ZZ=           -135.1792
   XY=              2.9586   XZ=              1.7189   YZ=              8.8203

 Summary of Natural Population Analysis:

                                       Natural Population
                Natural  -----------------------------------------------
    Atom  No    Charge         Core      Valence    Rydberg      Total
 -----------------------------------------------------------------------
      C    1   -0.29991      0.99963     2.29541    0.00487     3.29991
      C    2    0.20852      0.99964     1.77546    0.01639     2.79148
      N    3   -0.23910      0.99968     2.72834    0.01109     3.73910
      C    4    0.08673      0.99961     1.89813    0.01554     2.91327
      C    5   -0.17131      0.99949     2.16315    0.00867     3.17131
      C    6    0.17398      0.99953     1.81323    0.01326     2.82602
      N    7   -0.24756      0.99964     2.73833    0.00958     3.74756
      C    8   -0.10625      0.99958     2.09307    0.01360     3.10625
      N    9   -0.29262      0.99965     2.78192    0.01104     3.79262
      C   10    0.31878      0.99962     1.66319    0.01841     2.68122
      N   11   -0.31810      0.99963     2.81098    0.00750     3.81810
      C   12    0.38415      0.99956     1.59744    0.01884     2.61585
      N   13   -0.29375      0.99961     2.78513    0.00900     3.79375
      C   14    0.37543      0.99956     1.60194    0.02307     2.62457
      N   15   -0.31532      0.99963     2.80675    0.00894     3.81532
      O   16   -0.26183      0.99984     3.25302    0.00896     4.26183
      C   17   -0.10321      0.99960     2.09452    0.00910     3.10321
      O   18   -0.26177      0.99984     3.25307    0.00885     4.26177
      C   19   -0.10391      0.99960     2.09631    0.00800     3.10391
      H   20    0.10183      0.00000     0.39731    0.00086     0.39817
      H   21    0.10213      0.00000     0.39701    0.00086     0.39787
      H   22    0.10324      0.00000     0.39599    0.00077     0.39676
      H   23    0.07968      0.00000     0.41896    0.00136     0.42032
      H   24    0.10437      0.00000     0.39421    0.00142     0.39563
      H   25    0.11143      0.00000     0.38725    0.00132     0.38857
      H   26    0.11121      0.00000     0.38638    0.00242     0.38879
      H   27    0.20234      0.00000     0.29328    0.00438     0.29766
      H   28    0.09308      0.00000     0.40551    0.00142     0.40692
      H   29    0.09310      0.00000     0.40552    0.00138     0.40690
      H   30    0.08915      0.00000     0.40987    0.00097     0.41085
      H   31    0.09791      0.00000     0.40123    0.00086     0.40209
      H   32    0.09080      0.00000     0.40833    0.00087     0.40920
      H   33    0.08680      0.00000     0.41247    0.00073     0.41320
 =======================================================================
   * Total *   -0.00000     18.99295    49.76272    0.24433    69.00000

 Normal termination of Gaussian 16 at Sat Dec 12 11:47:44 2020.
