 Gaussian 16, Revision A.03,

 -----------------------------------------------------------
 # opt freq B3LYP/6-31G(d) empiricaldispersion=gd3bj scf=xqc
 -----------------------------------------------------------

 ------------------------------
 CID_89347236_JID_1723_neutraal
 ------------------------------
 Symbolic Z-matrix:
 Charge =  0 Multiplicity = 1

 SCF Done:  E(RB3LYP) =  -459.692615355     A.U. after   14 cycles
 SCF Done:  E(RB3LYP) =  -459.695393054     A.U. after   12 cycles
 SCF Done:  E(RB3LYP) =  -459.696819781     A.U. after   12 cycles
 SCF Done:  E(RB3LYP) =  -459.695893101     A.U. after   14 cycles
 SCF Done:  E(RB3LYP) =  -459.697327189     A.U. after   12 cycles
 SCF Done:  E(RB3LYP) =  -459.697740502     A.U. after   12 cycles
 SCF Done:  E(RB3LYP) =  -459.697826318     A.U. after   11 cycles
 SCF Done:  E(RB3LYP) =  -459.697837220     A.U. after   11 cycles
 SCF Done:  E(RB3LYP) =  -459.697840935     A.U. after    9 cycles
 SCF Done:  E(RB3LYP) =  -459.697841928     A.U. after    8 cycles
 SCF Done:  E(RB3LYP) =  -459.697842003     A.U. after    7 cycles
 Optimization completed.
    -- Stationary point found.

 1\1\GINC-NODE103\FOpt\RB3LYP\6-31G(d)\C9H12N2\VSC10255\08-Dec-2020\0\\
 # opt freq B3LYP/6-31G(d) empiricaldispersion=gd3bj scf=xqc\\CID_89347
 236_JID_1723_neutraal\\0,1\C,0.5252415798,-0.311101471,-0.2042584258\C
 ,0.0331348715,0.8880212569,-0.5499507556\N,-1.1157546062,1.4906186548,
 -0.0510003329\C,-1.905065119,2.3267178117,-0.9440185739\C,-2.589710927
 1,1.5701046841,-2.1089846816\C,-3.5234146441,0.494546969,-1.6187379152
 \C,-4.8894538908,0.7456841444,-1.4385893559\N,-5.7675424429,-0.1384928
 2,-0.9540549638\C,-5.2972134561,-1.3462386326,-0.6187636424\C,-3.95795

 Normal termination of Gaussian 16 at Tue Dec  8 20:56:00 2020.

 --------------------------------------------------------------------
 #N Geom=AllCheck Guess=TCheck SCRF=Check GenChk RB3LYP/6-31G(d) Freq
 --------------------------------------------------------------------

 Structure from the checkpoint file:  "JID_1723.chk"
 ------------------------------
 CID_89347236_JID_1723_neutraal
 ------------------------------
 Charge =  0 Multiplicity = 1

 SCF Done:  E(RB3LYP) =  -459.697842003     A.U. after    1 cycles

  Exact polarizability: 118.695   0.011 123.849  18.276   1.204  61.021
 Approx polarizability: 168.473   2.763 207.100  35.068   6.102  96.202

                      1                      2                      3
                      A                      A                      A
 Frequencies --     46.8497                72.0956               105.7184
 Red. masses --      4.6199                 4.0738                 2.9410
 Frc consts  --      0.0060                 0.0125                 0.0194
 IR Inten    --      1.9564                 2.7172                 0.7451

                      4                      5                      6
                      A                      A                      A
 Frequencies --    114.4735               171.9646               247.9327
 Red. masses --      4.0842                 1.8728                 3.7474
 Frc consts  --      0.0315                 0.0326                 0.1357
 IR Inten    --      1.0974                 1.2474                 1.6177

                      7                      8                      9
                      A                      A                      A
 Frequencies --    324.6417               343.8258               417.7000
 Red. masses --      2.1948                 2.2515                 3.1250
 Frc consts  --      0.1363                 0.1568                 0.3212
 IR Inten    --      0.9797                 1.7004                 1.6292

                     10                     11                     12
                      A                      A                      A
 Frequencies --    434.0711               508.5486               512.8827
 Red. masses --      2.5468                 2.2559                 4.1776
 Frc consts  --      0.2827                 0.3437                 0.6475
 IR Inten    --      1.5076                12.6620                 1.7836

                     13                     14                     15
                      A                      A                      A
 Frequencies --    600.9118               643.3239               658.1902
 Red. masses --      2.8099                 4.6495                 1.4104
 Frc consts  --      0.5978                 1.1337                 0.3600
 IR Inten    --     11.9828                12.9890                92.8070

                     16                     17                     18
                      A                      A                      A
 Frequencies --    733.6729               740.6668               798.1569
 Red. masses --      1.8155                 2.0599                 3.1483
 Frc consts  --      0.5758                 0.6658                 1.1817
 IR Inten    --     58.1556                 2.6773                23.3398

                     19                     20                     21
                      A                      A                      A
 Frequencies --    802.6923               817.7013               858.2452
 Red. masses --      1.5300                 1.5845                 1.9905
 Frc consts  --      0.5808                 0.6242                 0.8638
 IR Inten    --     42.8850                 7.3325                 5.5655

                     22                     23                     24
                      A                      A                      A
 Frequencies --    945.5942               949.8913               960.6743
 Red. masses --      2.3161                 1.3333                 1.6393
 Frc consts  --      1.2202                 0.7088                 0.8914
 IR Inten    --      7.8902                 0.2032                 3.6426

                     25                     26                     27
                      A                      A                      A
 Frequencies --    979.2269              1009.3047              1014.4829
 Red. masses --      1.5152                 1.2950                 1.1644
 Frc consts  --      0.8560                 0.7773                 0.7061
 IR Inten    --      0.9335                 8.3494                32.8379

                     28                     29                     30
                      A                      A                      A
 Frequencies --   1040.2130              1050.9920              1076.6614
 Red. masses --      2.2038                 2.6953                 2.5790
 Frc consts  --      1.4050                 1.7541                 1.7614
 IR Inten    --      9.7482                 6.7522                 1.0549

                     31                     32                     33
                      A                      A                      A
 Frequencies --   1147.1382              1153.4556              1187.3962
 Red. masses --      2.5653                 1.6130                 1.3854
 Frc consts  --      1.9889                 1.2644                 1.1509
 IR Inten    --     18.3444                 4.8241                31.6270

                     34                     35                     36
                      A                      A                      A
 Frequencies --   1231.3425              1251.0476              1259.7455
 Red. masses --      1.7578                 1.8447                 1.5198
 Frc consts  --      1.5703                 1.7011                 1.4210
 IR Inten    --     28.6255                31.1543                 9.3882

                     37                     38                     39
                      A                      A                      A
 Frequencies --   1315.5403              1321.7022              1349.6668
 Red. masses --      2.4518                 2.5798                 1.2297
 Frc consts  --      2.5000                 2.6553                 1.3198
 IR Inten    --     12.1415                22.7313                14.0349

                     40                     41                     42
                      A                      A                      A
 Frequencies --   1380.9328              1388.1706              1407.2776
 Red. masses --      1.3677                 1.2197                 1.2581
 Frc consts  --      1.5367                 1.3849                 1.4680
 IR Inten    --      8.0496                 1.8288                 6.7059

                     43                     44                     45
                      A                      A                      A
 Frequencies --   1444.6494              1476.8131              1509.8413
 Red. masses --      1.2077                 2.3170                 1.1054
 Frc consts  --      1.4850                 2.9773                 1.4847
 IR Inten    --      3.7903                22.1071                 5.6941

                     46                     47                     48
                      A                      A                      A
 Frequencies --   1513.7106              1528.0997              1530.5789
 Red. masses --      1.1098                 1.8832                 1.4260
 Frc consts  --      1.4982                 2.5908                 1.9683
 IR Inten    --      1.8077                23.3600                 7.0558

                     49                     50                     51
                      A                      A                      A
 Frequencies --   1630.6840              1652.6387              1726.1271
 Red. masses --      5.0568                 5.5001                 4.0124
 Frc consts  --      7.9225                 8.8506                 7.0438
 IR Inten    --     13.1300                 2.7719               142.6900

                     52                     53                     54
                      A                      A                      A
 Frequencies --   3049.4810              3057.8426              3090.8283
 Red. masses --      1.0601                 1.0606                 1.1045
 Frc consts  --      5.8085                 5.8427                 6.2170
 IR Inten    --     14.9714                51.7016                16.5234

                     55                     56                     57
                      A                      A                      A
 Frequencies --   3108.6195              3151.6416              3161.0016
 Red. masses --      1.1052                 1.0896                 1.0804
 Frc consts  --      6.2927                 6.3765                 6.3605
 IR Inten    --     35.1475                32.1543                20.0759

                     58                     59                     60
                      A                      A                      A
 Frequencies --   3169.9019              3173.5748              3187.0832
 Red. masses --      1.0708                 1.0888                 1.0907
 Frc consts  --      6.3392                 6.4610                 6.5276
 IR Inten    --      0.7432                18.8061                 4.5198

                     61                     62                     63
                      A                      A                      A
 Frequencies --   3209.2515              3260.6570              3549.6776
 Red. masses --      1.0963                 1.1137                 1.0745
 Frc consts  --      6.6523                 6.9765                 7.9766
 IR Inten    --     19.5463                15.2920                 2.6902

 - Thermochemistry -
 -------------------
 Temperature   298.150 Kelvin.  Pressure   1.00000 Atm.
 Atom     1 has atomic number  6 and mass  12.00000

 Molecular mass:   148.10005 amu.
 Principal axes and moments of inertia in atomic units:
                           1         2         3
     Eigenvalues --   878.155952522.929693120.28451
           X            0.99997  -0.00155   0.00704
           Y            0.00160   0.99998  -0.00639
           Z           -0.00703   0.00640   0.99995
 This molecule is an asymmetric top.
 Rotational symmetry number  1.
 Warning -- assumption of classical behavior for rotation
           may cause significant error
 Rotational temperatures (Kelvin)      0.09863     0.03433     0.02776
 Rotational constants (GHZ):           2.05515     0.71534     0.57839
 Zero-point vibrational energy     517728.4 (Joules/Mol)
                                  123.74005 (Kcal/Mol)
 Warning -- explicit consideration of  13 degrees of freedom as
           vibrations may cause significant error
 Vibrational temperatures:     67.41   103.73   152.11   164.70   247.42
          (Kelvin)            356.72   467.09   494.69   600.98   624.53
                              731.69   737.92   864.58   925.60   946.99
                             1055.59  1065.65  1148.37  1154.90  1176.49
                             1234.82  1360.50  1366.68  1382.20  1408.89
                             1452.16  1459.61  1496.63  1512.14  1549.08
                             1650.48  1659.57  1708.40  1771.63  1799.98
                             1812.49  1892.77  1901.63  1941.87  1986.85
                             1997.27  2024.76  2078.53  2124.80  2172.32
                             2177.89  2198.59  2202.16  2346.19  2377.78
                             2483.51  4387.52  4399.55  4447.01  4472.61
                             4534.51  4547.98  4560.78  4566.07  4585.50
                             4617.40  4691.36  5107.19

 Zero-point correction=                           0.197192 (Hartree/Particle)
 Thermal correction to Energy=                    0.207384
 Thermal correction to Enthalpy=                  0.208328
 Thermal correction to Gibbs Free Energy=         0.160705
 Sum of electronic and zero-point Energies=           -459.500650
 Sum of electronic and thermal Energies=              -459.490458
 Sum of electronic and thermal Enthalpies=            -459.489514
 Sum of electronic and thermal Free Energies=         -459.537137

                     E (Thermal)             CV                S
                      KCal/Mol        Cal/Mol-Kelvin    Cal/Mol-Kelvin
 Total                  130.135             38.726            100.231
 Electronic               0.000              0.000              0.000
 Translational            0.889              2.981             40.889
 Rotational               0.889              2.981             30.315
 Vibrational            128.358             32.764             29.028
 Vibration     1          0.595              1.979              4.946
 Vibration     2          0.598              1.967              4.095
 Vibration     3          0.605              1.945              3.346
 Vibration     4          0.607              1.937              3.192
 Vibration     5          0.626              1.877              2.414
 Vibration     6          0.662              1.766              1.745
 Vibration     7          0.709              1.626              1.287
 Vibration     8          0.723              1.588              1.194
 Vibration     9          0.781              1.432              0.900
 Vibration    10          0.795              1.396              0.845
 Vibration    11          0.864              1.231              0.637
 Vibration    12          0.868              1.221              0.627
 Vibration    13          0.959              1.030              0.448

                           ! Non-Optimized Parameters !

 1\1\GINC-NODE103\Freq\RB3LYP\6-31G(d)\C9H12N2\VSC10255\08-Dec-2020\0\\
 #N Geom=AllCheck Guess=TCheck SCRF=Check GenChk RB3LYP/6-31G(d) Freq\\
 CID_89347236_JID_1723_neutraal\\0,1\C,0.5252415798,-0.311101471,-0.204
 2584258\C,0.0331348715,0.8880212569,-0.5499507556\N,-1.1157546062,1.49
 06186548,-0.0510003329\C,-1.905065119,2.3267178117,-0.9440185739\C,-2.
 5897109271,1.5701046841,-2.1089846816\C,-3.5234146441,0.494546969,-1.6
 187379152\C,-4.8894538908,0.7456841444,-1.4385893559\N,-5.7675424429,-
 0.13849282,-0.9540549638\C,-5.2972134561,-1.3462386326,-0.6187636424\C

 Normal termination of Gaussian 16 at Tue Dec  8 21:01:21 2020.

 ----------------------------------------------------------------------
 # B3LYP/6-311++G(d,p) empiricaldispersion=gd3bj scf=xqc pop=npa geom=c
 heck
 ----------------------------------------------------------------------

 --------------------------------------
 CID_89347236_JID_1723_Energie_neutraal
 --------------------------------------
 Structure from the checkpoint file:  "JID_1723.chk"
 Charge =  0 Multiplicity = 1

 SCF Done:  E(RB3LYP) =  -459.825598026     A.U. after   14 cycles
 Normal termination of Gaussian 16 at Tue Dec  8 21:06:16 2020.

 ----------------------------------------------------------------------
 # B3LYP/6-311++G(d,p) empiricaldispersion=gd3bj scf=xqc pop=npa geom=c
 heck
 ----------------------------------------------------------------------

 ------------------------------------
 CID_89347236_JID_1723_Energie_kation
 ------------------------------------
 Structure from the checkpoint file:  "JID_1723.chk"
 Charge =  1 Multiplicity = 2

 SCF Done:  E(UB3LYP) =  -459.534265161     A.U. after   25 cycles
 Normal termination of Gaussian 16 at Tue Dec  8 21:14:06 2020.
 Gaussian 16:  ES64L-G16RevA.03 25-Dec-2016

 -----------------------------------
 CID_89347236_JID_1723_Energie_anion
 -----------------------------------
 Structure from the checkpoint file:  "JID_1723.chk"
 Charge = -1 Multiplicity = 2

                         Standard orientation:
 ---------------------------------------------------------------------
 Center     Atomic      Atomic             Coordinates (Angstroms)
 Number     Number       Type             X           Y           Z
 ---------------------------------------------------------------------
      1          6           0        2.988755    1.701089    0.047733
      2          6           0        2.860964    0.367819   -0.027280
      3          7           0        2.004184   -0.339728   -0.862342
      4          6           0        1.433260   -1.587261   -0.375248
      5          6           0        0.445727   -1.433435    0.807742
      6          6           0       -0.725397   -0.551850    0.460978
      7          6           0       -1.925149   -1.093292   -0.017585
      8          7           0       -2.985133   -0.373462   -0.399502
      9          6           0       -2.881568    0.958685   -0.316205
     10          6           0       -1.738696    1.611503    0.146480
     11          6           0       -0.644734    0.843724    0.540350
     12          1           0        2.367489    2.372449   -0.540054
     13          1           0        3.759511    2.147141    0.664859
     14          1           0        3.499472   -0.279651    0.573367
     15          1           0        1.324540    0.249802   -1.332481
     16          1           0        0.926952   -2.075651   -1.214725
     17          1           0        2.258997   -2.241338   -0.070151
     18          1           0        0.095871   -2.430656    1.101891
     19          1           0        0.989023   -1.014519    1.663106
     20          1           0       -2.034317   -2.175766   -0.090427
     21          1           0       -3.754074    1.527774   -0.632047
     22          1           0       -1.709349    2.695799    0.199413
     23          1           0        0.263558    1.315047    0.908376
 ---------------------------------------------------------------------

 SCF Done:  E(UB3LYP) =  -459.813984559     A.U. after   33 cycles
 SCF Done:  E(UB3LYP) =  -459.813984560     a.u. after    1 cycles

 The electronic state is 2-A.
 Alpha  occ. eigenvalues --  -14.21185 -14.17260 -10.09532 -10.08773 -10.07652
 Alpha  occ. eigenvalues --  -10.07355 -10.05711 -10.05522 -10.05445 -10.04760
 Alpha  occ. eigenvalues --  -10.04184  -0.82203  -0.81264  -0.69235  -0.65857
 Alpha  occ. eigenvalues --   -0.63765  -0.59551  -0.52481  -0.50434  -0.48818
 Alpha  occ. eigenvalues --   -0.47082  -0.39462  -0.38193  -0.37401  -0.35985
 Alpha  occ. eigenvalues --   -0.33802  -0.31956  -0.30999  -0.30089  -0.27504
 Alpha  occ. eigenvalues --   -0.27293  -0.26812  -0.26480  -0.24190  -0.22905
 Alpha  occ. eigenvalues --   -0.20795  -0.16420  -0.13682  -0.13157  -0.10146
 Alpha  occ. eigenvalues --    0.05239
 Alpha virt. eigenvalues --    0.07835   0.08056   0.08631   0.09540   0.10019
 Alpha virt. eigenvalues --    0.10428   0.10618   0.11294   0.11730   0.12457
 Alpha virt. eigenvalues --    0.12570   0.13569   0.14644   0.15257   0.16119

  Beta  occ. eigenvalues --  -14.21187 -14.17001 -10.09511 -10.08725 -10.07670
  Beta  occ. eigenvalues --  -10.07251 -10.05748 -10.05457 -10.05426 -10.04525
  Beta  occ. eigenvalues --  -10.04177  -0.82179  -0.80912  -0.68959  -0.65666
  Beta  occ. eigenvalues --   -0.63664  -0.59432  -0.52359  -0.50148  -0.48741
  Beta  occ. eigenvalues --   -0.46948  -0.39337  -0.38129  -0.37330  -0.35857
  Beta  occ. eigenvalues --   -0.33684  -0.31859  -0.30922  -0.29981  -0.27358
  Beta  occ. eigenvalues --   -0.27218  -0.26512  -0.26047  -0.24112  -0.22797
  Beta  occ. eigenvalues --   -0.20732  -0.15297  -0.13104  -0.12870  -0.10111
  Beta virt. eigenvalues --    0.07841   0.08615   0.08960   0.09594   0.09803
  Beta virt. eigenvalues --    0.10441   0.10650   0.10891   0.11628   0.12098
  Beta virt. eigenvalues --    0.12616   0.12955   0.13833   0.14871   0.15614

 Mulliken charges and spin densities:
               1          2
     1  C    0.214358  -0.736076
     2  C    0.162538  -0.195124
     3  N   -0.146016   0.113919
     4  C    0.828552  -1.381616
     5  C    0.006637  -0.456162
     6  C    0.152984   0.601467
     7  C   -0.168297  -0.273236
     8  N   -0.118689   0.125324
     9  C   -0.199523  -0.158708
    10  C   -0.055099  -0.020186
    11  C   -0.158023   0.023476
    12  H    0.103995  -0.018200
    13  H   -0.007449   0.114955
    14  H   -0.554332   0.712625
    15  H    0.236678  -0.016578
    16  H   -0.064590   0.224801
    17  H   -0.903964   1.083919
    18  H   -0.437059   0.617664
    19  H   -0.156959   0.307459
    20  H   -0.006863   0.166521
    21  H    0.131431  -0.012524
    22  H    0.060799   0.082678
    23  H    0.078892   0.093603
 Sum of Mulliken charges =  -1.00000   1.00000

 Dipole moment (field-independent basis, Debye):
    X=             -2.7339    Y=              5.2947    Z=             -1.9695  Tot=              6.2759
 Quadrupole moment (field-independent basis, Debye-Ang):
   XX=           -126.7223   YY=           -101.4681   ZZ=            -89.9967
   XY=              7.7352   XZ=             -6.6979   YZ=              2.4195

 Summary of Natural Population Analysis:

                                       Natural Population
                Natural  -----------------------------------------------
    Atom  No    Charge         Core      Valence    Rydberg      Total
 -----------------------------------------------------------------------
      C    1   -0.26551      0.99959     2.25691    0.00901     3.26551
      C    2    0.02076      0.99956     1.96643    0.01325     2.97924
      N    3   -0.32094      0.99971     2.80993    0.01129     3.82094
      C    4   -0.08020      0.99961     2.06779    0.01280     3.08020
      C    5   -0.20767      0.99960     2.19700    0.01107     3.20767
      C    6   -0.02948      0.99950     2.01964    0.01034     3.02948
      C    7    0.01800      0.99953     1.96659    0.01588     2.98200
      N    8   -0.20861      0.99971     2.69711    0.01178     3.70861
      C    9    0.03065      0.99960     1.95463    0.01512     2.96935
      C   10   -0.13323      0.99956     2.12475    0.00892     3.13323
      C   11   -0.05552      0.99951     2.04591    0.01010     3.05552
      H   12    0.08890      0.00000     0.41012    0.00099     0.41110
      H   13    0.09609      0.00000     0.40317    0.00074     0.40391
      H   14    0.09359      0.00000     0.40459    0.00182     0.40641
      H   15    0.18294      0.00000     0.31429    0.00277     0.31706
      H   16    0.09425      0.00000     0.40461    0.00114     0.40575
      H   17    0.10053      0.00000     0.39359    0.00589     0.39947
      H   18    0.10505      0.00000     0.39306    0.00189     0.39495
      H   19    0.10517      0.00000     0.39271    0.00212     0.39483
      H   20    0.08487      0.00000     0.41317    0.00196     0.41513
      H   21    0.08136      0.00000     0.41756    0.00108     0.41864
      H   22    0.09618      0.00000     0.40282    0.00100     0.40382
      H   23    0.10284      0.00000     0.39557    0.00159     0.39716
 =======================================================================
   * Total *   -0.00000     10.99548    28.85193    0.15259    40.00000

 Normal termination of Gaussian 16 at Tue Dec  8 21:25:10 2020.
