 Gaussian 16, Revision A.03,

 -----------------------------------------------------------
 # opt freq B3LYP/6-31G(d) empiricaldispersion=gd3bj scf=xqc
 -----------------------------------------------------------

 ------------------------------
 CID_69723045_JID_9475_neutraal
 ------------------------------
 Symbolic Z-matrix:
 Charge =  0 Multiplicity = 1

 SCF Done:  E(RB3LYP) =  -825.007066328     A.U. after   15 cycles
 SCF Done:  E(RB3LYP) =  -825.013909960     A.U. after   12 cycles
 SCF Done:  E(RB3LYP) =  -825.014528115     A.U. after   11 cycles
 SCF Done:  E(RB3LYP) =  -825.014702917     A.U. after   12 cycles
 SCF Done:  E(RB3LYP) =  -825.014790172     A.U. after   11 cycles
 SCF Done:  E(RB3LYP) =  -825.014887194     A.U. after   12 cycles
 SCF Done:  E(RB3LYP) =  -825.014962899     A.U. after   11 cycles
 SCF Done:  E(RB3LYP) =  -825.015089816     A.U. after   12 cycles
 SCF Done:  E(RB3LYP) =  -825.015174090     A.U. after   10 cycles
 SCF Done:  E(RB3LYP) =  -825.015250746     A.U. after   11 cycles
 SCF Done:  E(RB3LYP) =  -825.015320279     A.U. after    7 cycles
 SCF Done:  E(RB3LYP) =  -825.015320378     A.U. after    7 cycles
 SCF Done:  E(RB3LYP) =  -825.015320433     A.U. after    7 cycles
 SCF Done:  E(RB3LYP) =  -825.015320524     A.U. after    7 cycles
 SCF Done:  E(RB3LYP) =  -825.015320548     A.U. after    7 cycles
 Optimization completed.
    -- Stationary point found.
 Normal termination of Gaussian 16 at Sat Dec 12 09:54:49 2020.

 --------------------------------------------------------------------
 #N Geom=AllCheck Guess=TCheck SCRF=Check GenChk RB3LYP/6-31G(d) Freq
 --------------------------------------------------------------------

 Structure from the checkpoint file:  "JID_9475.chk"
 ------------------------------
 CID_69723045_JID_9475_neutraal
 ------------------------------
 Charge =  0 Multiplicity = 1

 SCF Done:  E(RB3LYP) =  -825.015320548     A.U. after    1 cycles

  Exact polarizability: 228.332 -13.152 184.026 -20.475  -5.933 126.189
 Approx polarizability: 312.043 -20.069 286.335 -47.022 -11.799 198.287

                      1                      2                      3
                      A                      A                      A
 Frequencies --     21.2256                32.6649                39.1939
 Red. masses --      4.0179                 4.4600                 6.4015
 Frc consts  --      0.0011                 0.0028                 0.0058
 IR Inten    --      2.3118                 0.2740                 6.0818

                      4                      5                      6
                      A                      A                      A
 Frequencies --     50.1373                94.8512               133.9255
 Red. masses --      4.1764                 3.0675                 3.2341
 Frc consts  --      0.0062                 0.0163                 0.0342
 IR Inten    --      1.7435                 0.8127                 1.6853

                      7                      8                      9
                      A                      A                      A
 Frequencies --    157.7664               173.3284               178.1735
 Red. masses --      3.6133                 1.9520                 1.5915
 Frc consts  --      0.0530                 0.0346                 0.0298
 IR Inten    --      0.8608                 6.0897                 1.8773

                     10                     11                     12
                      A                      A                      A
 Frequencies --    206.7196               224.6422               236.5517
 Red. masses --      2.8713                 2.8247                 2.9251
 Frc consts  --      0.0723                 0.0840                 0.0964
 IR Inten    --      5.8186                 2.0341                 1.7979

                     13                     14                     15
                      A                      A                      A
 Frequencies --    270.0170               273.2240               303.1313
 Red. masses --      2.0707                 1.5809                 2.9378
 Frc consts  --      0.0890                 0.0695                 0.1590
 IR Inten    --      8.4832                12.2555                 2.0631

                     16                     17                     18
                      A                      A                      A
 Frequencies --    308.5472               332.7081               337.8337
 Red. masses --      2.5406                 2.3716                 1.9690
 Frc consts  --      0.1425                 0.1547                 0.1324
 IR Inten    --      9.5869                 0.2966                10.0827

                     19                     20                     21
                      A                      A                      A
 Frequencies --    348.1369               348.8039               379.4371
 Red. masses --      3.7034                 1.2328                 4.1213
 Frc consts  --      0.2645                 0.0884                 0.3496
 IR Inten    --     10.9663               189.5706                 5.1829

                     22                     23                     24
                      A                      A                      A
 Frequencies --    421.8044               437.4619               444.7828
 Red. masses --      2.9959                 2.1527                 3.0763
 Frc consts  --      0.3140                 0.2427                 0.3586
 IR Inten    --      3.9779                 6.9817                 1.2573

                     25                     26                     27
                      A                      A                      A
 Frequencies --    459.2153               512.7068               537.9330
 Red. masses --      2.1451                 3.0920                 2.4393
 Frc consts  --      0.2665                 0.4789                 0.4159
 IR Inten    --      4.3365                 4.7644                14.2133

                     28                     29                     30
                      A                      A                      A
 Frequencies --    557.5764               569.1273               580.5183
 Red. masses --      2.7107                 1.4921                 2.7880
 Frc consts  --      0.4965                 0.2847                 0.5536
 IR Inten    --      4.6508                16.1128                 7.1066

                     31                     32                     33
                      A                      A                      A
 Frequencies --    609.7685               616.0391               688.2662
 Red. masses --      3.4878                 2.7181                 1.9643
 Frc consts  --      0.7641                 0.6078                 0.5482
 IR Inten    --      4.1701                29.9578               241.4506

                     34                     35                     36
                      A                      A                      A
 Frequencies --    717.3761               718.9806               737.4170
 Red. masses --      3.5994                 2.9197                 2.4608
 Frc consts  --      1.0914                 0.8892                 0.7884
 IR Inten    --      6.2047                12.4613               103.7596

                     37                     38                     39
                      A                      A                      A
 Frequencies --    766.2431               782.8975               803.8554
 Red. masses --      2.9243                 2.9915                 2.8683
 Frc consts  --      1.0116                 1.0803                 1.0920
 IR Inten    --      8.3558                 2.5701                 3.4228

                     40                     41                     42
                      A                      A                      A
 Frequencies --    813.9046               824.6137               857.9472
 Red. masses --      1.6051                 1.6388                 2.3716
 Frc consts  --      0.6265                 0.6566                 1.0285
 IR Inten    --     54.6055                 7.2072                 3.1904

                     43                     44                     45
                      A                      A                      A
 Frequencies --    868.9202               887.2743               911.7393
 Red. masses --      1.3945                 2.6156                 1.3157
 Frc consts  --      0.6203                 1.2132                 0.6444
 IR Inten    --     17.2369                 3.0920                 0.5346

                     46                     47                     48
                      A                      A                      A
 Frequencies --    919.4253               946.9613               958.8435
 Red. masses --      1.9205                 2.5322                 2.2516
 Frc consts  --      0.9565                 1.3379                 1.2197
 IR Inten    --      4.8405                 6.6652                 3.7131

                     49                     50                     51
                      A                      A                      A
 Frequencies --    996.3662              1013.5758              1034.2880
 Red. masses --      1.9078                 1.8853                 2.0119
 Frc consts  --      1.1159                 1.1412                 1.2681
 IR Inten    --      2.8032                 1.3171                 8.2569

                     52                     53                     54
                      A                      A                      A
 Frequencies --   1051.2841              1071.9314              1077.5549
 Red. masses --      2.3366                 1.4878                 2.1217
 Frc consts  --      1.5215                 1.0072                 1.4515
 IR Inten    --     11.8893                 1.3795                29.5531

                     55                     56                     57
                      A                      A                      A
 Frequencies --   1090.6433              1102.7690              1119.6533
 Red. masses --      1.7183                 1.6102                 2.3179
 Frc consts  --      1.2043                 1.1537                 1.7121
 IR Inten    --     19.3310                 1.6736                 3.6238

                     58                     59                     60
                      A                      A                      A
 Frequencies --   1136.9423              1145.1831              1185.2679
 Red. masses --      2.6605                 2.2906                 1.4247
 Frc consts  --      2.0262                 1.7699                 1.1793
 IR Inten    --      4.6046                15.3568                14.1844

                     61                     62                     63
                      A                      A                      A
 Frequencies --   1197.9235              1210.9002              1227.7725
 Red. masses --      1.2437                 2.0796                 1.7529
 Frc consts  --      1.0515                 1.7966                 1.5569
 IR Inten    --      9.6660                34.3589                21.4176

                     64                     65                     66
                      A                      A                      A
 Frequencies --   1270.9133              1275.4225              1291.1511
 Red. masses --      1.5430                 1.2847                 1.3927
 Frc consts  --      1.4684                 1.2312                 1.3679
 IR Inten    --     80.7341                 9.2618                26.5428

                     67                     68                     69
                      A                      A                      A
 Frequencies --   1303.7680              1318.3217              1322.7034
 Red. masses --      1.5014                 2.2373                 1.2164
 Frc consts  --      1.5036                 2.2910                 1.2539
 IR Inten    --     59.6700                29.8819                 9.4139

                     70                     71                     72
                      A                      A                      A
 Frequencies --   1334.0168              1352.7425              1364.1870
 Red. masses --      1.3440                 1.5490                 1.7340
 Frc consts  --      1.4092                 1.6700                 1.9012
 IR Inten    --     12.7654                16.8968                31.1463

                     73                     74                     75
                      A                      A                      A
 Frequencies --   1374.5498              1377.7313              1389.1537
 Red. masses --      2.2822                 1.7890                 1.7574
 Frc consts  --      2.5405                 2.0007                 1.9982
 IR Inten    --     17.1810                16.2930                52.8057

                     76                     77                     78
                      A                      A                      A
 Frequencies --   1396.8398              1402.1359              1414.8370
 Red. masses --      1.3469                 1.4926                 1.4763
 Frc consts  --      1.5484                 1.7289                 1.7412
 IR Inten    --      9.1240                 2.5992                12.7777

                     79                     80                     81
                      A                      A                      A
 Frequencies --   1419.6254              1432.4461              1442.4501
 Red. masses --      1.3639                 1.5376                 1.2657
 Frc consts  --      1.6195                 1.8589                 1.5517
 IR Inten    --     26.6123                55.1036                 1.0793

                     82                     83                     84
                      A                      A                      A
 Frequencies --   1451.6319              1486.5250              1509.2782
 Red. masses --      1.7187                 2.3115                 1.0920
 Frc consts  --      2.1338                 3.0094                 1.4656
 IR Inten    --      1.0907                35.3717                 5.9592

                     85                     86                     87
                      A                      A                      A
 Frequencies --   1513.2199              1516.3897              1521.6605
 Red. masses --      1.0447                 1.0977                 1.0914
 Frc consts  --      1.4094                 1.4871                 1.4890
 IR Inten    --      5.7647                 0.7159                 0.6324

                     88                     89                     90
                      A                      A                      A
 Frequencies --   1522.8491              1532.3868              1535.0785
 Red. masses --      1.0863                 1.1851                 1.1282
 Frc consts  --      1.4843                 1.6397                 1.5663
 IR Inten    --      9.9529                 1.5378                 6.4289

                     91                     92                     93
                      A                      A                      A
 Frequencies --   1548.0786              1567.0124              1636.6096
 Red. masses --      1.1188                 2.5555                 6.0961
 Frc consts  --      1.5798                 3.6972                 9.6204
 IR Inten    --      4.9260               286.3510                 2.8905

                     94                     95                     96
                      A                      A                      A
 Frequencies --   1647.9028              1680.0199              1699.0269
 Red. masses --      1.2348                 2.5681                 1.4998
 Frc consts  --      1.9757                 4.2707                 2.5508
 IR Inten    --    122.2301                50.8909                28.2912

                     97                     98                     99
                      A                      A                      A
 Frequencies --   1800.5009              2955.1444              3000.9900
 Red. masses --      8.4474                 1.0759                 1.0756
 Frc consts  --     16.1347                 5.5358                 5.7074
 IR Inten    --    271.5596               100.0182                55.4197

                    100                    101                    102
                      A                      A                      A
 Frequencies --   3017.1545              3023.7664              3026.1011
 Red. masses --      1.0482                 1.0664                 1.0641
 Frc consts  --      5.6222                 5.7447                 5.7410
 IR Inten    --     48.2190                12.5815                53.5338

                    103                    104                    105
                      A                      A                      A
 Frequencies --   3031.9720              3051.4782              3061.0120
 Red. masses --      1.0660                 1.0760                 1.0920
 Frc consts  --      5.7740                 5.9033                 6.0287
 IR Inten    --     10.5397                 3.3947                53.8833

                    106                    107                    108
                      A                      A                      A
 Frequencies --   3070.0884              3072.5094              3074.0002
 Red. masses --      1.0868                 1.1009                 1.0901
 Frc consts  --      6.0354                 6.1230                 6.0691
 IR Inten    --     59.6901                69.5236                21.0235

                    109                    110                    111
                      A                      A                      A
 Frequencies --   3098.1043              3102.7936              3130.5480
 Red. masses --      1.0871                 1.0967                 1.0856
 Frc consts  --      6.1478                 6.2209                 6.2683
 IR Inten    --      7.6525                19.8525                41.4490

                    112                    113                    114
                      A                      A                      A
 Frequencies --   3130.7035              3143.9565              3167.2028
 Red. masses --      1.0988                 1.0870                 1.0885
 Frc consts  --      6.3454                 6.3302                 6.4332
 IR Inten    --     11.5603                24.8101                27.3677

                    115                    116                    117
                      A                      A                      A
 Frequencies --   3207.7486              3208.8069              3528.2864
 Red. masses --      1.0886                 1.0905                 1.0483
 Frc consts  --      6.5995                 6.6156                 7.6889
 IR Inten    --     18.4864                17.3982                 3.2366

                    118                    119                    120
                      A                      A                      A
 Frequencies --   3581.0611              3624.0756              3706.4072
 Red. masses --      1.0459                 1.0965                 1.1027
 Frc consts  --      7.9028                 8.4847                 8.9248
 IR Inten    --     18.2983                 4.5277                26.6068

 - Thermochemistry -
 -------------------
 Temperature   298.150 Kelvin.  Pressure   1.00000 Atm.
 Atom     1 has atomic number  6 and mass  12.00000

 Molecular mass:   261.18411 amu.
 Principal axes and moments of inertia in atomic units:
                           1         2         3
     Eigenvalues --  3203.119277329.951679212.20810
           X            0.99947  -0.03253   0.00001
           Y            0.03253   0.99938  -0.01369
           Z            0.00043   0.01369   0.99991
 This molecule is an asymmetric top.
 Rotational symmetry number  1.
 Warning -- assumption of classical behavior for rotation
           may cause significant error
 Rotational temperatures (Kelvin)      0.02704     0.01182     0.00940
 Rotational constants (GHZ):           0.56343     0.24621     0.19591
 Zero-point vibrational energy     973340.1 (Joules/Mol)
                                  232.63386 (Kcal/Mol)
 Warning -- explicit consideration of  32 degrees of freedom as
           vibrations may cause significant error
 Vibrational temperatures:     30.54    47.00    56.39    72.14   136.47
          (Kelvin)            192.69   226.99   249.38   256.35   297.42
                              323.21   340.35   388.49   393.11   436.14
                              443.93   478.69   486.07   500.89   501.85
                              545.93   606.88   629.41   639.94   660.71
                              737.67   773.97   802.23   818.85   835.24
                              877.32   886.34   990.26  1032.14  1034.45
                             1060.98  1102.45  1126.41  1156.57  1171.03
                             1186.44  1234.39  1250.18  1276.59  1311.79
                             1322.85  1362.47  1379.56  1433.55  1458.31
                             1488.11  1512.56  1542.27  1550.36  1569.19
                             1586.64  1610.93  1635.81  1647.66  1705.34
                             1723.54  1742.22  1766.49  1828.56  1835.05
                             1857.68  1875.83  1896.77  1903.08  1919.35
                             1946.29  1962.76  1977.67  1982.25  1998.68
                             2009.74  2017.36  2035.63  2042.52  2060.97
                             2075.36  2088.57  2138.78  2171.51  2177.19
                             2181.75  2189.33  2191.04  2204.76  2208.64
                             2227.34  2254.58  2354.72  2370.96  2417.17
                             2444.52  2590.52  4251.79  4317.76  4341.01
                             4350.53  4353.88  4362.33  4390.40  4404.11
                             4417.17  4420.66  4422.80  4457.48  4464.23
                             4504.16  4504.38  4523.45  4556.90  4615.23
                             4616.76  5076.42  5152.35  5214.24  5332.69

 Zero-point correction=                           0.370726 (Hartree/Particle)
 Thermal correction to Energy=                    0.389522
 Thermal correction to Enthalpy=                  0.390467
 Thermal correction to Gibbs Free Energy=         0.323237
 Sum of electronic and zero-point Energies=           -824.644595
 Sum of electronic and thermal Energies=              -824.625798
 Sum of electronic and thermal Enthalpies=            -824.624854
 Sum of electronic and thermal Free Energies=         -824.692084

                     E (Thermal)             CV                S
                      KCal/Mol        Cal/Mol-Kelvin    Cal/Mol-Kelvin
 Total                  244.429             73.931            141.497
 Electronic               0.000              0.000              0.000
 Translational            0.889              2.981             42.580
 Rotational               0.889              2.981             33.736
 Vibrational            242.652             67.970             65.181
 Vibration     1          0.593              1.985              6.516
 Vibration     2          0.594              1.983              5.661
 Vibration     3          0.594              1.981              5.299
 Vibration     4          0.595              1.978              4.812
 Vibration     5          0.603              1.953              3.557
 Vibration     6          0.613              1.919              2.889
 Vibration     7          0.621              1.894              2.576
 Vibration     8          0.627              1.875              2.399
 Vibration     9          0.629              1.869              2.347
 Vibration    10          0.641              1.830              2.072
 Vibration    11          0.649              1.804              1.921
 Vibration    12          0.655              1.785              1.829
 Vibration    13          0.674              1.728              1.596
 Vibration    14          0.676              1.723              1.576
 Vibration    15          0.695              1.668              1.400
 Vibration    16          0.698              1.657              1.370
 Vibration    17          0.715              1.610              1.247
 Vibration    18          0.718              1.600              1.222
 Vibration    19          0.726              1.579              1.175
 Vibration    20          0.726              1.578              1.172
 Vibration    21          0.749              1.514              1.041
 Vibration    22          0.784              1.423              0.886
 Vibration    23          0.798              1.389              0.835
 Vibration    24          0.804              1.372              0.812
 Vibration    25          0.817              1.341              0.768
 Vibration    26          0.868              1.222              0.627
 Vibration    27          0.893              1.166              0.570
 Vibration    28          0.913              1.123              0.529
 Vibration    29          0.925              1.098              0.506
 Vibration    30          0.937              1.073              0.484
 Vibration    31          0.969              1.011              0.433
 Vibration    32          0.976              0.998              0.423

                           ! Non-Optimized Parameters !
 Normal termination of Gaussian 16 at Sat Dec 12 10:21:01 2020.

 ----------------------------------------------------------------------
 # B3LYP/6-311++G(d,p) empiricaldispersion=gd3bj scf=xqc pop=npa geom=c
 heck
 ----------------------------------------------------------------------

 --------------------------------------
 CID_69723045_JID_9475_Energie_neutraal
 --------------------------------------
 Structure from the checkpoint file:  "JID_9475.chk"
 Charge =  0 Multiplicity = 1

 SCF Done:  E(RB3LYP) =  -825.253990551     A.U. after   16 cycles
 Normal termination of Gaussian 16 at Sat Dec 12 10:33:59 2020.

 ----------------------------------------------------------------------
 # B3LYP/6-311++G(d,p) empiricaldispersion=gd3bj scf=xqc pop=npa geom=c
 heck
 ----------------------------------------------------------------------

 ------------------------------------
 CID_69723045_JID_9475_Energie_kation
 ------------------------------------
 Structure from the checkpoint file:  "JID_9475.chk"
 Charge =  1 Multiplicity = 2

 SCF Done:  E(UB3LYP) =  -825.018000954     A.U. after   22 cycles
 Normal termination of Gaussian 16 at Sat Dec 12 11:00:07 2020.
 Gaussian 16:  ES64L-G16RevA.03 25-Dec-2016

 ----------------------------------------------------------------------
 # B3LYP/6-311++G(d,p) empiricaldispersion=gd3bj scf=xqc pop=npa geom=c
 heck
 ----------------------------------------------------------------------

 -----------------------------------
 CID_69723045_JID_9475_Energie_anion
 -----------------------------------
 Structure from the checkpoint file:  "JID_9475.chk"
 Charge = -1 Multiplicity = 2

                         Standard orientation:
 ---------------------------------------------------------------------
 Center     Atomic      Atomic             Coordinates (Angstroms)
 Number     Number       Type             X           Y           Z
 ---------------------------------------------------------------------
      1          6           0       -3.558080    2.284055   -0.464197
      2          6           0       -2.949859    0.919569   -0.265792
      3          6           0       -3.706336   -0.105305    0.332957
      4          6           0       -3.102281   -1.352362    0.526717
      5          6           0       -1.785522   -1.589916    0.148419
      6          6           0       -1.022025   -0.590501   -0.481071
      7          6           0       -1.639860    0.658735   -0.670007
      8          7           0        0.311987   -0.810240   -0.858681
      9          6           0        0.782287   -2.105047   -1.316354
     10          6           0        2.106747   -2.541628   -0.669700
     11          6           0        2.176943   -2.361353    0.857091
     12          6           0        2.677108   -1.000287    1.388953
     13          6           0        1.672036    0.168049    1.448625
     14          6           0        1.505982    1.083485    0.209552
     15          6           0        1.201155    0.308743   -1.087911
     16          6           0        2.675235    2.062081    0.087968
     17          8           0        2.640558    3.172894    0.597342
     18          7           0        3.774543    1.639171   -0.623209
     19          7           0       -5.012456    0.150893    0.797193
     20          1           0       -4.401812    2.260779   -1.170405
     21          1           0       -3.944819    2.685142    0.481240
     22          1           0       -2.823834    2.991462   -0.859601
     23          1           0       -3.667694   -2.149131    1.005952
     24          1           0       -1.351912   -2.561168    0.360582
     25          1           0       -1.093371    1.464186   -1.148136
     26          1           0        0.015639   -2.845614   -1.086771
     27          1           0        0.898224   -2.115594   -2.415262
     28          1           0        2.952476   -2.013512   -1.132725
     29          1           0        2.255635   -3.598781   -0.925990
     30          1           0        2.861125   -3.125537    1.247399
     31          1           0        1.195156   -2.578485    1.299284
     32          1           0        3.585032   -0.707340    0.841752
     33          1           0        3.015740   -1.172786    2.418223
     34          1           0        1.950505    0.827882    2.278967
     35          1           0        0.683962   -0.234189    1.694801
     36          1           0        0.654769    1.731009    0.435928
     37          1           0        2.118950   -0.103146   -1.510133
     38          1           0        0.820286    1.001979   -1.853881
     39          1           0        3.922325    0.662825   -0.829099
     40          1           0        4.597370    2.223493   -0.554717
     41          1           0       -5.546352   -0.695036    0.961939
     42          1           0       -5.541567    0.779724    0.203297
 ---------------------------------------------------------------------

 SCF Done:  E(UB3LYP) =  -825.246237853     A.U. after   33 cycles
 SCF Done:  E(UB3LYP) =  -825.246237853     a.u. after    1 cycles

 The electronic state is 2-A.
 Alpha  occ. eigenvalues --  -18.99935 -14.24096 -14.22859 -14.22341 -10.18381
 Alpha  occ. eigenvalues --  -10.11596 -10.11527 -10.11217 -10.11115 -10.09182
 Alpha  occ. eigenvalues --  -10.08727 -10.08222 -10.08062 -10.07908 -10.07878
 Alpha  occ. eigenvalues --  -10.07846 -10.07826 -10.07692 -10.07499  -0.94914
 Alpha  occ. eigenvalues --   -0.85777  -0.82539  -0.81377  -0.74703  -0.71792
 Alpha  occ. eigenvalues --   -0.70476  -0.68294  -0.65271  -0.61843  -0.61299
 Alpha  occ. eigenvalues --   -0.59354  -0.54947  -0.53112  -0.51460  -0.49460
 Alpha  occ. eigenvalues --   -0.48346  -0.46194  -0.44639  -0.43330  -0.42564
 Alpha  occ. eigenvalues --   -0.40852  -0.40057  -0.38025  -0.36949  -0.36504
 Alpha  occ. eigenvalues --   -0.35989  -0.34803  -0.34335  -0.33719  -0.33041
 Alpha  occ. eigenvalues --   -0.32737  -0.32136  -0.31493  -0.30410  -0.30215
 Alpha  occ. eigenvalues --   -0.29017  -0.28741  -0.28060  -0.27441  -0.26334
 Alpha  occ. eigenvalues --   -0.25461  -0.24994  -0.24062  -0.23222  -0.22917
 Alpha  occ. eigenvalues --   -0.22281  -0.18810  -0.16855  -0.15834  -0.15588
 Alpha  occ. eigenvalues --   -0.08785   0.03574
 Alpha virt. eigenvalues --    0.04632   0.06162   0.06857   0.07220   0.07611
 Alpha virt. eigenvalues --    0.07730   0.08689   0.09133   0.09416   0.09626
 Alpha virt. eigenvalues --    0.09806   0.10192   0.10540   0.10924   0.11315

  Beta  occ. eigenvalues --  -18.99928 -14.24039 -14.22856 -14.22299 -10.18376
  Beta  occ. eigenvalues --  -10.11598 -10.11510 -10.11210 -10.11113 -10.09179
  Beta  occ. eigenvalues --  -10.08725 -10.08203 -10.08061 -10.07889 -10.07865
  Beta  occ. eigenvalues --  -10.07837 -10.07796 -10.07684 -10.07495  -0.94898
  Beta  occ. eigenvalues --   -0.85766  -0.82486  -0.81300  -0.74677  -0.71769
  Beta  occ. eigenvalues --   -0.70445  -0.68274  -0.65243  -0.61810  -0.61273
  Beta  occ. eigenvalues --   -0.59324  -0.54910  -0.53063  -0.51430  -0.49399
  Beta  occ. eigenvalues --   -0.48282  -0.46140  -0.44597  -0.43298  -0.42533
  Beta  occ. eigenvalues --   -0.40810  -0.40026  -0.37994  -0.36926  -0.36475
  Beta  occ. eigenvalues --   -0.35963  -0.34773  -0.34313  -0.33696  -0.33020
  Beta  occ. eigenvalues --   -0.32709  -0.32113  -0.31475  -0.30391  -0.30188
  Beta  occ. eigenvalues --   -0.28995  -0.28719  -0.28033  -0.27422  -0.26307
  Beta  occ. eigenvalues --   -0.25432  -0.24977  -0.24013  -0.23195  -0.22895
  Beta  occ. eigenvalues --   -0.22256  -0.18760  -0.16824  -0.15805  -0.15570
  Beta  occ. eigenvalues --   -0.08759
  Beta virt. eigenvalues --    0.05639   0.06045   0.06725   0.07394   0.07504
  Beta virt. eigenvalues --    0.07682   0.08004   0.08966   0.09402   0.09575
  Beta virt. eigenvalues --    0.09873   0.10116   0.10221   0.10710   0.11106

 Mulliken charges and spin densities:
               1          2
     1  C    1.070962  -1.590671
     2  C    0.464059   0.624643
     3  C   -2.133292   0.672026
     4  C    0.670128  -0.932844
     5  C   -0.110315  -0.140649
     6  C   -0.579049   0.303718
     7  C    0.461377  -0.175046
     8  N    0.374087   0.067418
     9  C   -0.435235   0.232007
    10  C    1.227445  -1.664682
    11  C   -1.046605   0.938358
    12  C    0.199535  -0.608318
    13  C   -0.228840  -0.067070
    14  C    0.725405   0.066603
    15  C   -0.298184  -0.820510
    16  C   -0.148832  -0.122490
    17  O   -0.322946  -0.000587
    18  N   -0.338246  -0.038871
    19  N   -0.264994  -0.022653
    20  H   -0.102159   0.264138
    21  H    0.070995   0.109678
    22  H    0.061676   0.071272
    23  H   -0.169306   0.334309
    24  H    0.172259  -0.075844
    25  H    0.183240  -0.051620
    26  H   -0.018547   0.153379
    27  H    0.000028   0.161254
    28  H   -0.335429   0.479060
    29  H   -0.191207   0.372670
    30  H   -0.220132   0.398024
    31  H    0.048914   0.082217
    32  H   -0.099596   0.241259
    33  H    0.012825   0.141721
    34  H    0.211938   0.004904
    35  H    0.082402   0.021657
    36  H    0.271566  -0.023582
    37  H    0.165190  -0.053417
    38  H    0.044592   0.143042
    39  H   -0.159841   0.395581
    40  H   -0.057270   0.366906
    41  H   -0.141999   0.381445
    42  H   -0.116602   0.361562
 Sum of Mulliken charges =  -1.00000   1.00000

 Dipole moment (field-independent basis, Debye):
    X=             -1.1797    Y=             -1.1372    Z=              0.0554  Tot=              1.6396
 Quadrupole moment (field-independent basis, Debye-Ang):
   XX=           -230.9682   YY=           -168.1700   ZZ=           -147.9297
   XY=              1.0943   XZ=              7.8595   YZ=             -5.5065

 Summary of Natural Population Analysis:

                                       Natural Population
                Natural  -----------------------------------------------
    Atom  No    Charge         Core      Valence    Rydberg      Total
 -----------------------------------------------------------------------
      C    1   -0.29632      0.99964     2.29049    0.00619     3.29632
      C    2   -0.02771      0.99949     2.01911    0.00911     3.02771
      C    3    0.06698      0.99943     1.92241    0.01118     2.93302
      C    4   -0.11237      0.99953     2.10327    0.00957     3.11237
      C    5   -0.11793      0.99953     2.10998    0.00842     3.11793
      C    6    0.08412      0.99947     1.90604    0.01036     2.91588
      C    7   -0.12030      0.99949     2.11294    0.00786     3.12030
      N    8   -0.27078      0.99965     2.75886    0.01226     3.77078
      C    9   -0.07309      0.99960     2.06338    0.01011     3.07309
      C   10   -0.19652      0.99962     2.18781    0.00910     3.19652
      C   11   -0.19115      0.99962     2.18220    0.00933     3.19115
      C   12   -0.19214      0.99961     2.18377    0.00876     3.19214
      C   13   -0.18753      0.99960     2.17919    0.00873     3.18753
      C   14   -0.15389      0.99953     2.14387    0.01049     3.15389
      C   15   -0.08215      0.99960     2.07138    0.01118     3.08215
      C   16    0.34466      0.99966     1.63152    0.02415     2.65534
      O   17   -0.32177      0.99987     3.31611    0.00579     4.32177
      N   18   -0.40493      0.99970     2.89651    0.00872     3.90493
      N   19   -0.40122      0.99972     2.89093    0.01056     3.90122
      H   20    0.10082      0.00000     0.39801    0.00117     0.39918
      H   21    0.10621      0.00000     0.39278    0.00101     0.39379
      H   22    0.10323      0.00000     0.39608    0.00069     0.39677
      H   23    0.09773      0.00000     0.40136    0.00091     0.40227
      H   24    0.09948      0.00000     0.39932    0.00119     0.40052
      H   25    0.09977      0.00000     0.39876    0.00146     0.40023
      H   26    0.09828      0.00000     0.40023    0.00149     0.40172
      H   27    0.08764      0.00000     0.41137    0.00099     0.41236
      H   28    0.09525      0.00000     0.40206    0.00268     0.40475
      H   29    0.10077      0.00000     0.39807    0.00116     0.39923
      H   30    0.09939      0.00000     0.39959    0.00102     0.40061
      H   31    0.09428      0.00000     0.40433    0.00139     0.40572
      H   32    0.09354      0.00000     0.40456    0.00190     0.40646
      H   33    0.09922      0.00000     0.39994    0.00084     0.40078
      H   34    0.10285      0.00000     0.39628    0.00087     0.39715
      H   35    0.10619      0.00000     0.39267    0.00114     0.39381
      H   36    0.11464      0.00000     0.38373    0.00163     0.38536
      H   37    0.10055      0.00000     0.39738    0.00206     0.39945
      H   38    0.09434      0.00000     0.40450    0.00117     0.40566
      H   39    0.19593      0.00000     0.29942    0.00465     0.30407
      H   40    0.19557      0.00000     0.30214    0.00229     0.30443
      H   41    0.18349      0.00000     0.31402    0.00249     0.31651
      H   42    0.18486      0.00000     0.31277    0.00237     0.31514
 =======================================================================
   * Total *    0.00000     18.99238    51.77916    0.22846    71.00000

 Normal termination of Gaussian 16 at Sat Dec 12 11:39:05 2020.
