 Gaussian 16, Revision A.03,

 -----------------------------------------------------------
 # opt freq B3LYP/6-31G(d) empiricaldispersion=gd3bj scf=xqc
 -----------------------------------------------------------

 -------------------------------
 CID_105439523_JID_3072_neutraal
 -------------------------------
 Symbolic Z-matrix:
 Charge =  0 Multiplicity = 1

 SCF Done:  E(RB3LYP) =  -591.477191116     A.U. after   14 cycles
 SCF Done:  E(RB3LYP) =  -591.481723022     A.U. after   12 cycles
 SCF Done:  E(RB3LYP) =  -591.482143844     A.U. after   11 cycles
 SCF Done:  E(RB3LYP) =  -591.482284317     A.U. after   11 cycles
 SCF Done:  E(RB3LYP) =  -591.482325896     A.U. after   10 cycles
 SCF Done:  E(RB3LYP) =  -591.482343986     A.U. after   10 cycles
 SCF Done:  E(RB3LYP) =  -591.482353030     A.U. after    9 cycles
 SCF Done:  E(RB3LYP) =  -591.482355500     A.U. after    8 cycles
 SCF Done:  E(RB3LYP) =  -591.482357200     A.U. after    8 cycles
 SCF Done:  E(RB3LYP) =  -591.482358529     A.U. after    8 cycles
 SCF Done:  E(RB3LYP) =  -591.482359409     A.U. after    8 cycles
 SCF Done:  E(RB3LYP) =  -591.482359932     A.U. after    8 cycles
 SCF Done:  E(RB3LYP) =  -591.482360134     A.U. after    8 cycles
 SCF Done:  E(RB3LYP) =  -591.482360206     A.U. after    7 cycles
 SCF Done:  E(RB3LYP) =  -591.482360221     A.U. after    7 cycles
 Optimization completed.
    -- Stationary point found.
 Normal termination of Gaussian 16 at Wed Dec  9 22:23:58 2020.

 --------------------------------------------------------------------
 #N Geom=AllCheck Guess=TCheck SCRF=Check GenChk RB3LYP/6-31G(d) Freq
 --------------------------------------------------------------------

 Structure from the checkpoint file:  "JID_3072.chk"
 -------------------------------
 CID_105439523_JID_3072_neutraal
 -------------------------------
 Charge =  0 Multiplicity = 1

 SCF Done:  E(RB3LYP) =  -591.482360221     A.U. after    1 cycles

  Exact polarizability: 141.466   2.952 115.870  -0.544   3.531  82.057
 Approx polarizability: 186.395   3.689 179.957  -5.111   9.022 126.092

                      1                      2                      3
                      A                      A                      A
 Frequencies --     43.3249                45.9471                70.8294
 Red. masses --      2.6934                 3.0514                 3.4499
 Frc consts  --      0.0030                 0.0038                 0.0102
 IR Inten    --      0.4231                 2.3343                 0.2055

                      4                      5                      6
                      A                      A                      A
 Frequencies --    108.9574               133.8114               179.7627
 Red. masses --      2.6766                 3.3460                 3.5969
 Frc consts  --      0.0187                 0.0353                 0.0685
 IR Inten    --      0.2496                 1.3694                 4.1044

                      7                      8                      9
                      A                      A                      A
 Frequencies --    213.7842               248.4475               286.8284
 Red. masses --      1.1713                 2.8471                 2.5515
 Frc consts  --      0.0315                 0.1035                 0.1237
 IR Inten    --      0.4789                 9.3185                 9.1605

                     10                     11                     12
                      A                      A                      A
 Frequencies --    307.4154               324.6710               353.0041
 Red. masses --      1.9649                 1.8690                 1.9106
 Frc consts  --      0.1094                 0.1161                 0.1403
 IR Inten    --      3.9558                11.5302                36.8351

                     13                     14                     15
                      A                      A                      A
 Frequencies --    390.6329               413.1560               458.3474
 Red. masses --      1.7609                 4.8414                 3.8950
 Frc consts  --      0.1583                 0.4869                 0.4821
 IR Inten    --    128.1864                 1.6447                 1.4385

                     16                     17                     18
                      A                      A                      A
 Frequencies --    490.4262               577.3961               628.8193
 Red. masses --      3.2498                 3.4934                 2.8912
 Frc consts  --      0.4605                 0.6862                 0.6736
 IR Inten    --      0.2049                 0.4395                 5.6888

                     19                     20                     21
                      A                      A                      A
 Frequencies --    634.7168               654.3395               702.3080
 Red. masses --      3.2611                 6.3213                 4.0334
 Frc consts  --      0.7741                 1.5946                 1.1721
 IR Inten    --      3.4935                 0.7860                 0.6399

                     22                     23                     24
                      A                      A                      A
 Frequencies --    755.3048               806.1629               823.9365
 Red. masses --      2.7696                 1.1913                 2.3523
 Frc consts  --      0.9309                 0.4561                 0.9409
 IR Inten    --     17.1043                 0.8932               125.4777

                     25                     26                     27
                      A                      A                      A
 Frequencies --    857.2327               875.4596               958.5620
 Red. masses --      2.9308                 1.7689                 2.0009
 Frc consts  --      1.2689                 0.7988                 1.0832
 IR Inten    --     26.3548                11.7465                19.2770

                     28                     29                     30
                      A                      A                      A
 Frequencies --    972.3991               982.7860               990.2985
 Red. masses --      1.7549                 2.1432                 2.2459
 Frc consts  --      0.9777                 1.2196                 1.2977
 IR Inten    --      3.9560                24.6587                 2.0706

                     31                     32                     33
                      A                      A                      A
 Frequencies --   1030.1843              1066.4371              1092.5646
 Red. masses --      2.3696                 5.6791                 2.7778
 Frc consts  --      1.4817                 3.8054                 1.9536
 IR Inten    --     36.5987                67.4840                 7.9059

                     34                     35                     36
                      A                      A                      A
 Frequencies --   1113.8464              1123.1838              1136.6683
 Red. masses --      1.8981                 1.9261                 4.0620
 Frc consts  --      1.3874                 1.4316                 3.0922
 IR Inten    --      5.1108                 7.6602                24.6968

                     37                     38                     39
                      A                      A                      A
 Frequencies --   1160.8534              1201.8737              1224.7943
 Red. masses --      2.7195                 1.1225                 1.1495
 Frc consts  --      2.1592                 0.9554                 1.0160
 IR Inten    --      0.4560                 4.9837                14.8592

                     40                     41                     42
                      A                      A                      A
 Frequencies --   1234.5410              1248.5135              1296.2967
 Red. masses --      2.6142                 1.4435                 1.9573
 Frc consts  --      2.3474                 1.3257                 1.9379
 IR Inten    --      6.7266                 8.4208                13.9001

                     43                     44                     45
                      A                      A                      A
 Frequencies --   1331.4780              1353.5875              1365.7694
 Red. masses --      1.4236                 1.7872                 1.5628
 Frc consts  --      1.4870                 1.9293                 1.7175
 IR Inten    --      6.0061                30.6545                 1.3293

                     46                     47                     48
                      A                      A                      A
 Frequencies --   1373.7711              1379.8363              1400.7339
 Red. masses --      1.4333                 1.3030                 1.3399
 Frc consts  --      1.5937                 1.4616                 1.5490
 IR Inten    --      3.9003                 6.7240                33.7938

                     49                     50                     51
                      A                      A                      A
 Frequencies --   1404.9596              1432.5592              1437.1719
 Red. masses --      1.4468                 2.4356                 1.2700
 Frc consts  --      1.6826                 2.9449                 1.5455
 IR Inten    --     17.3983                36.7124                18.7406

                     52                     53                     54
                      A                      A                      A
 Frequencies --   1438.6397              1499.0647              1505.6287
 Red. masses --      1.4629                 1.1596                 1.1813
 Frc consts  --      1.7839                 1.5354                 1.5777
 IR Inten    --     68.4977                 1.3742                 3.1103

                     55                     56                     57
                      A                      A                      A
 Frequencies --   1509.0460              1512.9906              1513.9948
 Red. masses --      1.2478                 1.2762                 1.4452
 Frc consts  --      1.6742                 1.7213                 1.9517
 IR Inten    --      2.9959                 9.6071                 9.8573

                     58                     59                     60
                      A                      A                      A
 Frequencies --   1520.1911              1524.1632              1530.0500
 Red. masses --      1.0464                 1.7649                 1.6716
 Frc consts  --      1.4247                 2.4156                 2.3057
 IR Inten    --      6.7631                 9.5806                 4.8608

                     61                     62                     63
                      A                      A                      A
 Frequencies --   1532.1233              1537.6971              1613.9817
 Red. masses --      1.5508                 1.1009                 9.0776
 Frc consts  --      2.1449                 1.5336                13.9321
 IR Inten    --     11.3779                 1.8924                15.8888

                     64                     65                     66
                      A                      A                      A
 Frequencies --   3001.6946              3022.5476              3027.8144
 Red. masses --      1.0702                 1.0690                 1.0705
 Frc consts  --      5.6812                 5.7540                 5.7824
 IR Inten    --     63.2292                31.7514                40.5435

                     67                     68                     69
                      A                      A                      A
 Frequencies --   3047.2039              3057.1617              3070.4015
 Red. masses --      1.0627                 1.0354                 1.0898
 Frc consts  --      5.8140                 5.7014                 6.0535
 IR Inten    --     44.3759                18.5295                21.3287

                     70                     71                     72
                      A                      A                      A
 Frequencies --   3075.5678              3078.3011              3093.4887
 Red. masses --      1.0682                 1.0920                 1.0938
 Frc consts  --      5.9533                 6.0969                 6.1671
 IR Inten    --     38.6854                41.2568                21.6341

                     73                     74                     75
                      A                      A                      A
 Frequencies --   3096.6278              3121.3111              3137.0971
 Red. masses --      1.1051                 1.1022                 1.0996
 Frc consts  --      6.2433                 6.3270                 6.3758
 IR Inten    --     46.8786                16.9062                24.0566

                     76                     77                     78
                      A                      A                      A
 Frequencies --   3150.0684              3469.3631              3735.8846
 Red. masses --      1.1031                 1.0736                 1.0661
 Frc consts  --      6.4495                 7.6137                 8.7664
 IR Inten    --     21.2426                 1.8099                12.0307

 - Thermochemistry -
 -------------------
 Temperature   298.150 Kelvin.  Pressure   1.00000 Atm.
 Atom     1 has atomic number  6 and mass  12.00000

 Molecular mass:   181.12151 amu.
 Principal axes and moments of inertia in atomic units:
                           1         2         3
     Eigenvalues --  1524.254552913.542574107.15440
           X            0.99996  -0.00296   0.00831
           Y            0.00301   0.99998  -0.00604
           Z           -0.00829   0.00606   0.99995
 This molecule is an asymmetric top.
 Rotational symmetry number  1.
 Warning -- assumption of classical behavior for rotation
           may cause significant error
 Rotational temperatures (Kelvin)      0.05682     0.02973     0.02109
 Rotational constants (GHZ):           1.18402     0.61943     0.43941
 Zero-point vibrational energy     640724.6 (Joules/Mol)
                                  153.13687 (Kcal/Mol)
 Warning -- explicit consideration of  17 degrees of freedom as
           vibrations may cause significant error
 Vibrational temperatures:     62.33    66.11   101.91   156.77   192.52
          (Kelvin)            258.64   307.59   357.46   412.68   442.30
                              467.13   507.89   562.03   594.44   659.46
                              705.61   830.74   904.73   913.22   941.45
                             1010.46  1086.72  1159.89  1185.46  1233.37
                             1259.59  1379.16  1399.07  1414.01  1424.82
                             1482.21  1534.37  1571.96  1602.58  1616.01
                             1635.41  1670.21  1729.23  1762.21  1776.23
                             1796.33  1865.08  1915.70  1947.51  1965.04
                             1976.55  1985.28  2015.34  2021.42  2061.13
                             2067.77  2069.88  2156.82  2166.26  2171.18
                             2176.86  2178.30  2187.22  2192.93  2201.40
                             2204.38  2212.40  2322.16  4318.77  4348.77
                             4356.35  4384.25  4398.57  4417.62  4425.06
                             4428.99  4450.84  4455.36  4490.87  4513.58
                             4532.25  4991.64  5375.10

 Zero-point correction=                           0.244039 (Hartree/Particle)
 Thermal correction to Energy=                    0.256667
 Thermal correction to Enthalpy=                  0.257611
 Thermal correction to Gibbs Free Energy=         0.204320
 Sum of electronic and zero-point Energies=           -591.238321
 Sum of electronic and thermal Energies=              -591.225693
 Sum of electronic and thermal Enthalpies=            -591.224749
 Sum of electronic and thermal Free Energies=         -591.278040

                     E (Thermal)             CV                S
                      KCal/Mol        Cal/Mol-Kelvin    Cal/Mol-Kelvin
 Total                  161.061             47.453            112.160
 Electronic               0.000              0.000              0.000
 Translational            0.889              2.981             41.489
 Rotational               0.889              2.981             31.279
 Vibrational            159.284             41.491             39.393
 Vibration     1          0.595              1.980              5.101
 Vibration     2          0.595              1.979              4.985
 Vibration     3          0.598              1.968              4.130
 Vibration     4          0.606              1.942              3.287
 Vibration     5          0.613              1.920              2.891
 Vibration     6          0.629              1.867              2.331
 Vibration     7          0.644              1.820              2.011
 Vibration     8          0.662              1.765              1.742
 Vibration     9          0.684              1.698              1.493
 Vibration    10          0.697              1.660              1.376
 Vibration    11          0.709              1.626              1.286
 Vibration    12          0.729              1.569              1.153
 Vibration    13          0.758              1.490              0.998
 Vibration    14          0.777              1.442              0.916
 Vibration    15          0.816              1.342              0.771
 Vibration    16          0.846              1.271              0.682
 Vibration    17          0.934              1.080              0.490

                           ! Non-Optimized Parameters !
 Normal termination of Gaussian 16 at Wed Dec  9 22:30:56 2020.

 ----------------------------------------------------------------------
 # B3LYP/6-311++G(d,p) empiricaldispersion=gd3bj scf=xqc pop=npa geom=c
 heck
 ----------------------------------------------------------------------

 ---------------------------------------
 CID_105439523_JID_3072_Energie_neutraal
 ---------------------------------------
 Structure from the checkpoint file:  "JID_3072.chk"
 Charge =  0 Multiplicity = 1

 SCF Done:  E(RB3LYP) =  -591.654133332     A.U. after   15 cycles
 Normal termination of Gaussian 16 at Wed Dec  9 22:33:30 2020.

 ----------------------------------------------------------------------
 # B3LYP/6-311++G(d,p) empiricaldispersion=gd3bj scf=xqc pop=npa geom=c
 heck
 ----------------------------------------------------------------------

 -------------------------------------
 CID_105439523_JID_3072_Energie_kation
 -------------------------------------
 Structure from the checkpoint file:  "JID_3072.chk"
 Charge =  1 Multiplicity = 2

 SCF Done:  E(UB3LYP) =  -591.357352647     A.U. after   31 cycles
 Normal termination of Gaussian 16 at Wed Dec  9 22:40:32 2020.
 Gaussian 16:  ES64L-G16RevA.03 25-Dec-2016

 ----------------------------------------------------------------------
 # B3LYP/6-311++G(d,p) empiricaldispersion=gd3bj scf=xqc pop=npa geom=c
 heck
 ----------------------------------------------------------------------

 ------------------------------------
 CID_105439523_JID_3072_Energie_anion
 ------------------------------------
 Structure from the checkpoint file:  "JID_3072.chk"
 Charge = -1 Multiplicity = 2

                         Standard orientation:
 ---------------------------------------------------------------------
 Center     Atomic      Atomic             Coordinates (Angstroms)
 Number     Number       Type             X           Y           Z
 ---------------------------------------------------------------------
      1          6           0        3.371201   -1.201629    0.923727
      2          6           0        2.727034   -0.999614   -0.447985
      3          7           0        1.318637   -0.649565   -0.355913
      4          6           0        0.757722    0.565245   -0.059388
      5          6           0       -0.607431    0.341889    0.054392
      6          6           0       -1.778219    1.251839    0.325885
      7          7           0       -2.994115    0.499190    0.672426
      8          6           0       -3.211392   -0.646605   -0.218311
      9          6           0       -2.103679   -1.723434   -0.150712
     10          6           0       -0.768217   -1.042452   -0.181422
     11          7           0        0.397624   -1.646409   -0.415990
     12          6           0        1.529921    1.841737    0.084566
     13          8           0        0.802108    2.962016   -0.406087
     14          1           0        3.343536   -0.278988    1.513607
     15          1           0        4.417879   -1.505591    0.813548
     16          1           0        2.836865   -1.979674    1.477044
     17          1           0        3.247081   -0.218200   -1.012434
     18          1           0        2.765498   -1.919379   -1.035063
     19          1           0       -2.005632    1.863323   -0.558506
     20          1           0       -1.564348    1.961001    1.132117
     21          1           0       -2.898426    0.152051    1.626735
     22          1           0       -4.184873   -1.090429    0.016912
     23          1           0       -3.275789   -0.252905   -1.241054
     24          1           0       -2.211592   -2.302663    0.778103
     25          1           0       -2.201503   -2.439326   -0.975813
     26          1           0        1.721843    2.069548    1.139872
     27          1           0        2.512933    1.756356   -0.404914
     28          1           0        0.522994    2.744372   -1.309631
 ---------------------------------------------------------------------

 SCF Done:  E(UB3LYP) =  -591.642338002     A.U. after   32 cycles

 The electronic state is 2-A.
 Alpha  occ. eigenvalues --  -19.01883 -14.27621 -14.21412 -14.20156 -10.12152
 Alpha  occ. eigenvalues --  -10.10789 -10.09925 -10.09824 -10.09407 -10.08218
 Alpha  occ. eigenvalues --  -10.07509 -10.06505 -10.05469  -0.93767  -0.91987
 Alpha  occ. eigenvalues --   -0.81477  -0.74338  -0.69336  -0.66319  -0.64039
 Alpha  occ. eigenvalues --   -0.59198  -0.57026  -0.52691  -0.51634  -0.46377
 Alpha  occ. eigenvalues --   -0.45276  -0.41338  -0.39325  -0.38732  -0.36062
 Alpha  occ. eigenvalues --   -0.35515  -0.34539  -0.34103  -0.32915  -0.31621
 Alpha  occ. eigenvalues --   -0.30794  -0.29973  -0.29379  -0.27360  -0.26371
 Alpha  occ. eigenvalues --   -0.26016  -0.25771  -0.24971  -0.24074  -0.18503
 Alpha  occ. eigenvalues --   -0.17978  -0.13796  -0.13153  -0.12562   0.04515
 Alpha virt. eigenvalues --    0.06568   0.07118   0.08030   0.08990   0.09393
 Alpha virt. eigenvalues --    0.09648   0.10171   0.10774   0.11455   0.11666
 Alpha virt. eigenvalues --    0.12466   0.12795   0.13272   0.13449   0.15327

  Beta  occ. eigenvalues --  -19.01836 -14.27611 -14.21391 -14.20146 -10.12110
  Beta  occ. eigenvalues --  -10.10761 -10.09914 -10.09810 -10.09390 -10.08224
  Beta  occ. eigenvalues --  -10.07499 -10.06470 -10.05449  -0.93733  -0.91885
  Beta  occ. eigenvalues --   -0.81455  -0.74301  -0.69275  -0.66291  -0.63996
  Beta  occ. eigenvalues --   -0.59101  -0.56956  -0.52651  -0.51571  -0.46330
  Beta  occ. eigenvalues --   -0.45235  -0.41265  -0.39272  -0.38661  -0.35979
  Beta  occ. eigenvalues --   -0.35489  -0.34508  -0.34061  -0.32839  -0.31589
  Beta  occ. eigenvalues --   -0.30754  -0.29934  -0.29343  -0.27320  -0.26322
  Beta  occ. eigenvalues --   -0.25978  -0.25734  -0.24929  -0.24031  -0.18456
  Beta  occ. eigenvalues --   -0.17921  -0.13755  -0.13088  -0.12464
  Beta virt. eigenvalues --    0.06590   0.07475   0.07969   0.08410   0.09463
  Beta virt. eigenvalues --    0.09866   0.10009   0.10477   0.11052   0.11711
  Beta virt. eigenvalues --    0.11910   0.12653   0.13180   0.13584   0.13781

 Mulliken charges and spin densities:
               1          2
     1  C    0.570498  -0.983369
     2  C    0.025337  -0.303388
     3  N    0.189648   0.181276
     4  C   -1.924981   2.275223
     5  C   -0.131467   0.314370
     6  C    0.156608  -1.100659
     7  N   -0.087688   0.082231
     8  C   -0.028890  -0.326652
     9  C   -0.919369   0.352892
    10  C    0.641784  -0.571407
    11  N   -0.260892   0.048619
    12  C    2.628429  -3.263004
    13  O   -0.253452   0.064876
    14  H   -0.103448   0.248966
    15  H   -0.518433   0.660762
    16  H    0.045953   0.103835
    17  H   -0.433306   0.589306
    18  H   -0.045696   0.219329
    19  H   -0.003662   0.214830
    20  H    0.021868   0.175525
    21  H    0.102726   0.112317
    22  H   -0.052969   0.234365
    23  H   -0.011813   0.145937
    24  H    0.059923   0.091775
    25  H    0.039649   0.107635
    26  H   -0.141660   0.350208
    27  H   -0.392843   0.561399
    28  H   -0.171854   0.412801
 Sum of Mulliken charges =  -1.00000   1.00000

 Dipole moment (field-independent basis, Debye):
    X=             -5.3722    Y=             -3.0558    Z=              1.5672  Tot=              6.3761
 Quadrupole moment (field-independent basis, Debye-Ang):
   XX=           -149.1123   YY=           -125.1259   ZZ=           -105.0957
   XY=              1.2704   XZ=              2.2576   YZ=              1.9486

 Summary of Natural Population Analysis:

                                       Natural Population
                Natural  -----------------------------------------------
    Atom  No    Charge         Core      Valence    Rydberg      Total
 -----------------------------------------------------------------------
      C    1   -0.28873      0.99966     2.28418    0.00489     3.28873
      C    2   -0.08430      0.99962     2.07301    0.01167     3.08430
      N    3   -0.10447      0.99962     2.59045    0.01440     3.60447
      C    4    0.07412      0.99945     1.91327    0.01316     2.92588
      C    5   -0.07659      0.99941     2.06623    0.01095     3.07659
      C    6   -0.08897      0.99959     2.07890    0.01048     3.08897
      N    7   -0.33546      0.99977     2.82333    0.01237     3.83546
      C    8   -0.08527      0.99964     2.07553    0.01010     3.08527
      C    9   -0.20889      0.99959     2.20157    0.00772     3.20889
      C   10    0.07208      0.99951     1.91430    0.01411     2.92792
      N   11   -0.15997      0.99969     2.64911    0.01116     3.65997
      C   12   -0.02179      0.99956     2.00923    0.01300     3.02179
      O   13   -0.36390      0.99990     3.35722    0.00677     4.36390
      H   14    0.09904      0.00000     0.39973    0.00123     0.40096
      H   15    0.10263      0.00000     0.39569    0.00168     0.39737
      H   16    0.10062      0.00000     0.39835    0.00103     0.39938
      H   17    0.10199      0.00000     0.39495    0.00305     0.39801
      H   18    0.10500      0.00000     0.39328    0.00172     0.39500
      H   19    0.09591      0.00000     0.40227    0.00181     0.40409
      H   20    0.10214      0.00000     0.39662    0.00124     0.39786
      H   21    0.16724      0.00000     0.33039    0.00236     0.33276
      H   22    0.09142      0.00000     0.40750    0.00108     0.40858
      H   23    0.09051      0.00000     0.40806    0.00143     0.40949
      H   24    0.09752      0.00000     0.40067    0.00181     0.40248
      H   25    0.10483      0.00000     0.39365    0.00152     0.39517
      H   26    0.09356      0.00000     0.40463    0.00181     0.40644
      H   27    0.08829      0.00000     0.40886    0.00286     0.41171
      H   28    0.23144      0.00000     0.26173    0.00683     0.26856
 =======================================================================
   * Total *    0.00000     12.99502    35.83271    0.17227    49.00000

 Normal termination of Gaussian 16 at Wed Dec  9 22:47:49 2020.
