 Gaussian 16, Revision A.03,

 -----------------------------------------------------------
 # opt freq B3LYP/6-31G(d) empiricaldispersion=gd3bj scf=xqc
 -----------------------------------------------------------

 ------------------------------
 CID_87292186_JID_3555_neutraal
 ------------------------------
 Symbolic Z-matrix:
 Charge =  0 Multiplicity = 1

 SCF Done:  E(RB3LYP) =  -582.918502201     A.U. after   14 cycles
 SCF Done:  E(RB3LYP) =  -582.921545055     A.U. after   13 cycles
 SCF Done:  E(RB3LYP) =  -582.920051340     A.U. after   13 cycles
 SCF Done:  E(RB3LYP) =  -582.922317321     A.U. after   12 cycles
 SCF Done:  E(RB3LYP) =  -582.923095301     A.U. after   13 cycles
 SCF Done:  E(RB3LYP) =  -582.923240185     A.U. after   13 cycles
 SCF Done:  E(RB3LYP) =  -582.923746028     A.U. after   12 cycles
 SCF Done:  E(RB3LYP) =  -582.923937712     A.U. after   11 cycles
 SCF Done:  E(RB3LYP) =  -582.924049423     A.U. after   11 cycles
 SCF Done:  E(RB3LYP) =  -582.924145535     A.U. after   11 cycles
 SCF Done:  E(RB3LYP) =  -582.924538430     A.U. after   10 cycles
 SCF Done:  E(RB3LYP) =  -582.924538265     A.U. after   10 cycles
 SCF Done:  E(RB3LYP) =  -582.924538417     A.U. after    8 cycles
 SCF Done:  E(RB3LYP) =  -582.924538567     A.U. after    8 cycles
 SCF Done:  E(RB3LYP) =  -582.924538644     A.U. after    8 cycles
 Optimization completed.
    -- Stationary point found.
 Normal termination of Gaussian 16 at Mon Dec 14 17:00:08 2020.

 --------------------------------------------------------------------
 #N Geom=AllCheck Guess=TCheck SCRF=Check GenChk RB3LYP/6-31G(d) Freq
 --------------------------------------------------------------------

 Structure from the checkpoint file:  "JID_3555.chk"
 ------------------------------
 CID_87292186_JID_3555_neutraal
 ------------------------------
 Charge =  0 Multiplicity = 1

 SCF Done:  E(RB3LYP) =  -582.924538644     A.U. after    1 cycles

  Exact polarizability: 142.314   1.895 120.367  -1.263  -1.596  99.625
 Approx polarizability: 180.324   7.733 170.013  -2.022  -3.060 151.984

                      1                      2                      3
                      A                      A                      A
 Frequencies --     21.7395                34.6696                50.3717
 Red. masses --      3.6177                 3.6556                 5.2400
 Frc consts  --      0.0010                 0.0026                 0.0078
 IR Inten    --      0.8567                 1.3215                 0.2675

                      4                      5                      6
                      A                      A                      A
 Frequencies --     72.1430               127.8214               156.0271
 Red. masses --      3.8753                 3.0097                 2.0786
 Frc consts  --      0.0119                 0.0290                 0.0298
 IR Inten    --      0.3589                 0.4333                 0.6715

                      7                      8                      9
                      A                      A                      A
 Frequencies --    161.4724               167.9722               217.1422
 Red. masses --      1.3710                 1.5588                 1.8316
 Frc consts  --      0.0211                 0.0259                 0.0509
 IR Inten    --      0.0136                 0.9145                 0.1962

                     10                     11                     12
                      A                      A                      A
 Frequencies --    231.8759               250.7103               269.6370
 Red. masses --      1.2529                 1.2053                 2.4588
 Frc consts  --      0.0397                 0.0446                 0.1053
 IR Inten    --      0.0405                 0.1318                 1.3078

                     13                     14                     15
                      A                      A                      A
 Frequencies --    289.3757               300.7463               317.3972
 Red. masses --      1.4506                 1.7276                 2.6861
 Frc consts  --      0.0716                 0.0921                 0.1594
 IR Inten    --      0.3219                 0.3933                 2.8517

                     16                     17                     18
                      A                      A                      A
 Frequencies --    333.3052               349.3470               380.2757
 Red. masses --      2.3830                 2.1813                 2.3081
 Frc consts  --      0.1560                 0.1568                 0.1966
 IR Inten    --      9.2874                 9.0646                 2.6892

                     19                     20                     21
                      A                      A                      A
 Frequencies --    402.5479               424.3603               437.5958
 Red. masses --      2.7707                 1.9846                 1.6411
 Frc consts  --      0.2645                 0.2106                 0.1852
 IR Inten    --     19.9793                 0.4139                43.6179

                     22                     23                     24
                      A                      A                      A
 Frequencies --    479.8595               493.8748               511.1585
 Red. masses --      2.3008                 2.1224                 2.5481
 Frc consts  --      0.3121                 0.3050                 0.3923
 IR Inten    --      1.3097                 4.7877                 7.0414

                     25                     26                     27
                      A                      A                      A
 Frequencies --    580.1086               642.6077               680.0966
 Red. masses --      2.6179                 3.5801                 2.5921
 Frc consts  --      0.5191                 0.8710                 0.7064
 IR Inten    --     10.4792                 8.0670                 5.4684

                     28                     29                     30
                      A                      A                      A
 Frequencies --    749.7656               798.2916               844.5177
 Red. masses --      2.1667                 1.2375                 1.9484
 Frc consts  --      0.7176                 0.4646                 0.8187
 IR Inten    --      6.6517                 5.0871                 6.0674

                     31                     32                     33
                      A                      A                      A
 Frequencies --    859.9301               900.5588               905.5814
 Red. masses --      2.2655                 2.1351                 1.6887
 Frc consts  --      0.9871                 1.0202                 0.8159
 IR Inten    --      2.6976                 1.5670                 5.0457

                     34                     35                     36
                      A                      A                      A
 Frequencies --    951.2685               966.9351               985.5447
 Red. masses --      1.6953                 1.6195                 2.0739
 Frc consts  --      0.9038                 0.8921                 1.1868
 IR Inten    --      0.2448                 1.0219                16.7781

                     37                     38                     39
                      A                      A                      A
 Frequencies --   1008.6670              1021.2700              1029.6284
 Red. masses --      1.6864                 1.3166                 1.6079
 Frc consts  --      1.0109                 0.8091                 1.0043
 IR Inten    --      1.5920                 0.2858                 3.8411

                     40                     41                     42
                      A                      A                      A
 Frequencies --   1047.3019              1065.9488              1086.6100
 Red. masses --      2.4110                 1.7379                 2.3098
 Frc consts  --      1.5581                 1.1634                 1.6068
 IR Inten    --      3.0156                 7.3657                 0.5058

                     43                     44                     45
                      A                      A                      A
 Frequencies --   1103.0539              1112.8326              1140.1001
 Red. masses --      2.2246                 2.0489                 2.6419
 Frc consts  --      1.5948                 1.4950                 2.0233
 IR Inten    --     10.6311                 1.8086                68.0961

                     46                     47                     48
                      A                      A                      A
 Frequencies --   1188.9302              1200.3465              1223.8530
 Red. masses --      1.5899                 1.5349                 1.7851
 Frc consts  --      1.3241                 1.3030                 1.5753
 IR Inten    --      2.9510                34.7537                22.0066

                     49                     50                     51
                      A                      A                      A
 Frequencies --   1240.7255              1267.2679              1276.8119
 Red. masses --      1.9837                 2.0513                 1.5957
 Frc consts  --      1.7992                 1.9410                 1.5327
 IR Inten    --      8.5660                 2.9774                 4.6586

                     52                     53                     54
                      A                      A                      A
 Frequencies --   1313.2613              1332.0182              1341.6521
 Red. masses --      1.4741                 1.2399                 1.3032
 Frc consts  --      1.4979                 1.2961                 1.3821
 IR Inten    --     59.8403                 6.4210                 0.6977

                     55                     56                     57
                      A                      A                      A
 Frequencies --   1361.0224              1392.7223              1396.0387
 Red. masses --      1.1730                 1.3729                 1.4050
 Frc consts  --      1.2802                 1.5690                 1.6133
 IR Inten    --      1.1774                 2.0060                 1.5089

                     58                     59                     60
                      A                      A                      A
 Frequencies --   1409.0042              1412.6859              1417.3765
 Red. masses --      1.4084                 1.4224                 1.3440
 Frc consts  --      1.6474                 1.6725                 1.5908
 IR Inten    --      1.4797                 4.0651                38.3642

                     61                     62                     63
                      A                      A                      A
 Frequencies --   1428.4854              1447.6656              1451.9414
 Red. masses --      1.2507                 1.2434                 1.2177
 Frc consts  --      1.5037                 1.5353                 1.5125
 IR Inten    --      4.8580                 6.7060                 3.0705

                     64                     65                     66
                      A                      A                      A
 Frequencies --   1460.2033              1493.0810              1503.0580
 Red. masses --      1.3749                 1.0603                 1.0521
 Frc consts  --      1.7273                 1.3927                 1.4004
 IR Inten    --    100.2189                15.8048                 9.8825

                     67                     68                     69
                      A                      A                      A
 Frequencies --   1510.4760              1514.3057              1519.5662
 Red. masses --      1.0656                 1.0643                 1.0633
 Frc consts  --      1.4325                 1.4380                 1.4465
 IR Inten    --      0.5183                 6.3144                 2.5163

                     70                     71                     72
                      A                      A                      A
 Frequencies --   1523.6617              1526.0888              1533.4608
 Red. masses --      1.0667                 1.0625                 1.0740
 Frc consts  --      1.4590                 1.4579                 1.4880
 IR Inten    --      5.8348                 5.1642                 4.7963

                     73                     74                     75
                      A                      A                      A
 Frequencies --   1534.9834              1540.2962              1544.7464
 Red. masses --      1.0519                 1.0629                 1.0600
 Frc consts  --      1.4602                 1.4857                 1.4903
 IR Inten    --     12.3319                 0.0523                 2.4478

                     76                     77                     78
                      A                      A                      A
 Frequencies --   1549.8870              1795.6616              2980.6425
 Red. masses --      1.0584                10.1803                 1.0804
 Frc consts  --      1.4980                19.3402                 5.6551
 IR Inten    --      8.6762               153.4910                25.6064

                     79                     80                     81
                      A                      A                      A
 Frequencies --   3028.1010              3031.6342              3039.1406
 Red. masses --      1.0628                 1.0617                 1.0370
 Frc consts  --      5.7417                 5.7491                 5.6432
 IR Inten    --     33.8804                 6.7695                31.0903

                     82                     83                     84
                      A                      A                      A
 Frequencies --   3041.9674              3045.6096              3055.5863
 Red. masses --      1.0693                 1.0426                 1.0573
 Frc consts  --      5.8301                 5.6981                 5.8160
 IR Inten    --     15.7218                49.5285                26.4144

                     85                     86                     87
                      A                      A                      A
 Frequencies --   3059.2777              3061.2721              3062.7025
 Red. masses --      1.0504                 1.0537                 1.0780
 Frc consts  --      5.7921                 5.8178                 5.9579
 IR Inten    --      7.9701                 9.9945                28.7851

                     88                     89                     90
                      A                      A                      A
 Frequencies --   3070.6206              3088.0198              3102.0988
 Red. masses --      1.0945                 1.0975                 1.1025
 Frc consts  --      6.0801                 6.1663                 6.2507
 IR Inten    --     46.9568                36.4867                 1.6985

                     91                     92                     93
                      A                      A                      A
 Frequencies --   3108.3675              3112.4325              3114.2808
 Red. masses --      1.1015                 1.1010                 1.1009
 Frc consts  --      6.2706                 6.2840                 6.2912
 IR Inten    --     69.3994                15.5848                66.3601

                     94                     95                     96
                      A                      A                      A
 Frequencies --   3121.1807              3121.3668              3136.0788
 Red. masses --      1.0998                 1.0988                 1.1006
 Frc consts  --      6.3125                 6.3076                 6.3775
 IR Inten    --     30.5984                15.7762                41.6607

                     97                     98                     99
                      A                      A                      A
 Frequencies --   3148.1392              3168.4614              3597.0939
 Red. masses --      1.0892                 1.1031                 1.0642
 Frc consts  --      6.3600                 6.5246                 8.1126
 IR Inten    --      6.8408                10.4003                95.5875

 - Thermochemistry -
 -------------------
 Temperature   298.150 Kelvin.  Pressure   1.00000 Atm.
 Atom     1 has atomic number  6 and mass  12.00000

 Molecular mass:   186.16198 amu.
 Principal axes and moments of inertia in atomic units:
                           1         2         3
     Eigenvalues --  1301.429854742.266125428.53986
           X            0.99990  -0.01385  -0.00124
           Y            0.01385   0.99990   0.00139
           Z            0.00122  -0.00140   1.00000
 This molecule is an asymmetric top.
 Rotational symmetry number  1.
 Warning -- assumption of classical behavior for rotation
           may cause significant error
 Rotational temperatures (Kelvin)      0.06655     0.01826     0.01596
 Rotational constants (GHZ):           1.38674     0.38057     0.33245
 Zero-point vibrational energy     836832.1 (Joules/Mol)
                                  200.00768 (Kcal/Mol)
 Warning -- explicit consideration of  25 degrees of freedom as
           vibrations may cause significant error
 Vibrational temperatures:     31.28    49.88    72.47   103.80   183.91
          (Kelvin)            224.49   232.32   241.67   312.42   333.62
                              360.72   387.95   416.35   432.71   456.66
                              479.55   502.63   547.13   579.18   610.56
                              629.60   690.41   710.58   735.44   834.65
                              924.57   978.51  1078.75  1148.56  1215.07
                             1237.25  1295.70  1302.93  1368.66  1391.20
                             1417.98  1451.25  1469.38  1481.41  1506.83
                             1533.66  1563.39  1587.05  1601.12  1640.35
                             1710.61  1727.03  1760.85  1785.13  1823.32
                             1837.05  1889.49  1916.48  1930.34  1958.21
                             2003.82  2008.59  2027.24  2032.54  2039.29
                             2055.27  2082.87  2089.02  2100.91  2148.21
                             2162.57  2173.24  2178.75  2186.32  2192.21
                             2195.70  2206.31  2208.50  2216.14  2222.55
                             2229.94  2583.56  4288.48  4356.76  4361.85
                             4372.65  4376.71  4381.95  4396.31  4401.62
                             4404.49  4406.55  4417.94  4442.97  4463.23
                             4472.25  4478.10  4480.76  4490.68  4490.95
                             4512.12  4529.47  4558.71  5175.42

 Zero-point correction=                           0.318733 (Hartree/Particle)
 Thermal correction to Energy=                    0.334835
 Thermal correction to Enthalpy=                  0.335779
 Thermal correction to Gibbs Free Energy=         0.274832
 Sum of electronic and zero-point Energies=           -582.605806
 Sum of electronic and thermal Energies=              -582.589704
 Sum of electronic and thermal Enthalpies=            -582.588759
 Sum of electronic and thermal Free Energies=         -582.649706

                     E (Thermal)             CV                S
                      KCal/Mol        Cal/Mol-Kelvin    Cal/Mol-Kelvin
 Total                  210.112             60.132            128.273
 Electronic               0.000              0.000              0.000
 Translational            0.889              2.981             41.570
 Rotational               0.889              2.981             31.883
 Vibrational            208.335             54.170             54.820
 Vibration     1          0.593              1.985              6.469
 Vibration     2          0.594              1.983              5.543
 Vibration     3          0.595              1.977              4.803
 Vibration     4          0.598              1.967              4.094
 Vibration     5          0.611              1.925              2.979
 Vibration     6          0.620              1.896              2.597
 Vibration     7          0.622              1.890              2.532
 Vibration     8          0.625              1.882              2.458
 Vibration     9          0.646              1.815              1.983
 Vibration    10          0.653              1.792              1.864
 Vibration    11          0.663              1.762              1.726
 Vibration    12          0.674              1.729              1.599
 Vibration    13          0.686              1.693              1.478
 Vibration    14          0.693              1.672              1.413
 Vibration    15          0.704              1.640              1.323
 Vibration    16          0.715              1.609              1.244
 Vibration    17          0.727              1.577              1.169
 Vibration    18          0.750              1.512              1.038
 Vibration    19          0.768              1.465              0.953
 Vibration    20          0.786              1.417              0.877
 Vibration    21          0.798              1.388              0.834
 Vibration    22          0.836              1.295              0.710
 Vibration    23          0.850              1.264              0.674
 Vibration    24          0.866              1.225              0.631
 Vibration    25          0.937              1.074              0.485

                           ! Non-Optimized Parameters !
 Normal termination of Gaussian 16 at Mon Dec 14 17:09:59 2020.

 ----------------------------------------------------------------------
 # B3LYP/6-311++G(d,p) empiricaldispersion=gd3bj scf=xqc pop=npa geom=c
 heck
 ----------------------------------------------------------------------

 --------------------------------------
 CID_87292186_JID_3555_Energie_neutraal
 --------------------------------------
 Structure from the checkpoint file:  "JID_3555.chk"
 Charge =  0 Multiplicity = 1

 SCF Done:  E(RB3LYP) =  -583.103666021     A.U. after   14 cycles
 Normal termination of Gaussian 16 at Mon Dec 14 17:15:00 2020.

 ----------------------------------------------------------------------
 # B3LYP/6-311++G(d,p) empiricaldispersion=gd3bj scf=xqc pop=npa geom=c
 heck
 ----------------------------------------------------------------------

 ------------------------------------
 CID_87292186_JID_3555_Energie_kation
 ------------------------------------
 Structure from the checkpoint file:  "JID_3555.chk"
 Charge =  1 Multiplicity = 2

 SCF Done:  E(UB3LYP) =  -582.756398678     A.U. after   29 cycles
 Normal termination of Gaussian 16 at Mon Dec 14 17:29:31 2020.
 Gaussian 16:  ES64L-G16RevA.03 25-Dec-2016

 ----------------------------------------------------------------------
 # B3LYP/6-311++G(d,p) empiricaldispersion=gd3bj scf=xqc pop=npa geom=c
 heck
 ----------------------------------------------------------------------

 -----------------------------------
 CID_87292186_JID_3555_Energie_anion
 -----------------------------------
 Structure from the checkpoint file:  "JID_3555.chk"
 Charge = -1 Multiplicity = 2

                         Standard orientation:
 ---------------------------------------------------------------------
 Center     Atomic      Atomic             Coordinates (Angstroms)
 Number     Number       Type             X           Y           Z
 ---------------------------------------------------------------------
      1          6           0       -1.795879    2.195195    0.038881
      2          6           0       -2.386456    0.990694   -0.701903
      3          6           0       -2.496089   -0.331119    0.096337
      4          6           0       -3.374938   -0.119146    1.343767
      5          6           0       -3.187208   -1.374734   -0.800414
      6          6           0       -1.124482   -0.869188    0.583378
      7          6           0       -0.063877   -1.228582   -0.479236
      8          6           0        0.865044   -0.083132   -0.913428
      9          6           0        1.806823    0.464532    0.187776
     10          6           0        3.175052   -0.220556    0.177619
     11          8           0        4.173784    0.463585    0.019791
     12          6           0        3.252786   -1.716409    0.364401
     13          8           0        1.982469    1.852485    0.026799
     14          1           0       -2.392502    2.458276    0.918662
     15          1           0       -1.780124    3.071685   -0.618253
     16          1           0       -0.766383    2.027179    0.369306
     17          1           0       -3.397522    1.252688   -1.044246
     18          1           0       -1.808804    0.804441   -1.616555
     19          1           0       -4.345913    0.311137    1.070212
     20          1           0       -3.562883   -1.071959    1.853051
     21          1           0       -2.900481    0.553356    2.066224
     22          1           0       -2.659548   -1.515458   -1.750153
     23          1           0       -3.247050   -2.348909   -0.299891
     24          1           0       -4.209145   -1.058391   -1.040156
     25          1           0       -0.702459   -0.150750    1.297455
     26          1           0       -1.335200   -1.772120    1.171804
     27          1           0        0.544365   -2.055433   -0.092668
     28          1           0       -0.554630   -1.630127   -1.372886
     29          1           0        1.459077   -0.395834   -1.782734
     30          1           0        0.280722    0.776615   -1.244988
     31          1           0        1.357894    0.260863    1.174917
     32          1           0        2.650246   -2.036244    1.221317
     33          1           0        2.851200   -2.225564   -0.519802
     34          1           0        4.293595   -2.013724    0.505265
     35          1           0        2.950868    1.984394   -0.021659
 ---------------------------------------------------------------------

 SCF Done:  E(UB3LYP) =  -583.094002969     A.U. after   33 cycles
 SCF Done:  E(UB3LYP) =  -583.094002969     a.u. after    1 cycles

 The electronic state is 2-A.
 Alpha  occ. eigenvalues --  -19.00778 -18.99880 -10.13308 -10.11494 -10.07876
 Alpha  occ. eigenvalues --  -10.06629 -10.06364 -10.06248 -10.06244 -10.05614
 Alpha  occ. eigenvalues --  -10.05493 -10.05399 -10.05353  -0.94561  -0.90358
 Alpha  occ. eigenvalues --   -0.72974  -0.68728  -0.64469  -0.63504  -0.59952
 Alpha  occ. eigenvalues --   -0.58412  -0.54743  -0.52478  -0.48913  -0.44666
 Alpha  occ. eigenvalues --   -0.41924  -0.39441  -0.37931  -0.37094  -0.35686
 Alpha  occ. eigenvalues --   -0.34236  -0.33574  -0.32701  -0.31863  -0.30897
 Alpha  occ. eigenvalues --   -0.30821  -0.30139  -0.29309  -0.28031  -0.27803
 Alpha  occ. eigenvalues --   -0.26600  -0.25866  -0.25531  -0.24658  -0.23842
 Alpha  occ. eigenvalues --   -0.23381  -0.22981  -0.21356  -0.20570  -0.20166
 Alpha  occ. eigenvalues --   -0.16662  -0.14999   0.04594
 Alpha virt. eigenvalues --    0.06623   0.07383   0.07981   0.08208   0.09243
 Alpha virt. eigenvalues --    0.09668   0.10228   0.10500   0.10558   0.11042
 Alpha virt. eigenvalues --    0.12267   0.12513   0.12945   0.13207   0.13838

  Beta  occ. eigenvalues --  -19.00778 -18.99668 -10.13036 -10.11510 -10.07874
  Beta  occ. eigenvalues --  -10.06622 -10.06336 -10.06233 -10.06228 -10.05585
  Beta  occ. eigenvalues --  -10.05483 -10.05372 -10.05329  -0.94267  -0.90217
  Beta  occ. eigenvalues --   -0.72950  -0.68639  -0.64314  -0.63418  -0.59893
  Beta  occ. eigenvalues --   -0.58361  -0.54643  -0.52430  -0.48784  -0.44471
  Beta  occ. eigenvalues --   -0.41856  -0.39199  -0.37789  -0.37001  -0.35606
  Beta  occ. eigenvalues --   -0.33951  -0.33497  -0.32619  -0.31732  -0.30821
  Beta  occ. eigenvalues --   -0.30759  -0.30051  -0.29257  -0.28004  -0.27770
  Beta  occ. eigenvalues --   -0.26509  -0.25734  -0.25438  -0.24009  -0.23739
  Beta  occ. eigenvalues --   -0.23295  -0.22866  -0.21322  -0.20534  -0.20127
  Beta  occ. eigenvalues --   -0.16613  -0.14838
  Beta virt. eigenvalues --    0.06836   0.07703   0.08205   0.08481   0.09283
  Beta virt. eigenvalues --    0.09606   0.10178   0.10411   0.10724   0.11043
  Beta virt. eigenvalues --    0.11272   0.12540   0.12739   0.13109   0.13381

 Mulliken charges and spin densities:
               1          2
     1  C   -0.331051  -0.397069
     2  C    0.114447  -0.371968
     3  C   -1.249478   2.000550
     4  C    0.376614  -0.946141
     5  C    0.664209  -1.238098
     6  C    1.146070  -1.530500
     7  C   -0.208303  -0.254962
     8  C   -0.534582   0.660571
     9  C    0.298458  -0.738232
    10  C   -0.927038   1.116876
    11  O   -0.342787   0.065556
    12  C    0.757239  -1.375239
    13  O   -0.223450   0.006596
    14  H    0.045353   0.088052
    15  H    0.090237   0.040460
    16  H    0.164312   0.041420
    17  H    0.006499   0.145374
    18  H   -0.036519   0.171684
    19  H   -0.093779   0.241935
    20  H   -0.162016   0.305394
    21  H   -0.010758   0.133247
    22  H   -0.023832   0.141470
    23  H   -0.186392   0.338240
    24  H   -0.191699   0.331365
    25  H   -0.019260   0.154871
    26  H   -0.315041   0.528658
    27  H    0.197690  -0.071206
    28  H   -0.076403   0.213140
    29  H    0.092690   0.079831
    30  H    0.116782   0.041914
    31  H    0.067043   0.105855
    32  H   -0.513964   0.698348
    33  H    0.071240   0.086618
    34  H    0.006161   0.164797
    35  H    0.231307   0.020593
 Sum of Mulliken charges =  -1.00000   1.00000

 Dipole moment (field-independent basis, Debye):
    X=              0.0301    Y=              2.3118    Z=             -2.5903  Tot=              3.4720
 Quadrupole moment (field-independent basis, Debye-Ang):
   XX=           -161.5887   YY=           -122.7968   ZZ=           -113.1474
   XY=             -5.6632   XZ=             -2.6901   YZ=              7.3732

 Summary of Natural Population Analysis:

                                       Natural Population
                Natural  -----------------------------------------------
    Atom  No    Charge         Core      Valence    Rydberg      Total
 -----------------------------------------------------------------------
      C    1   -0.29017      0.99966     2.28583    0.00469     3.29017
      C    2   -0.18969      0.99959     2.18068    0.00942     3.18969
      C    3   -0.04437      0.99957     2.03237    0.01243     3.04437
      C    4   -0.28546      0.99963     2.27811    0.00772     3.28546
      C    5   -0.28477      0.99962     2.27758    0.00756     3.28477
      C    6   -0.19217      0.99958     2.18067    0.01192     3.19217
      C    7   -0.19534      0.99961     2.18690    0.00882     3.19534
      C    8   -0.19502      0.99960     2.18730    0.00812     3.19502
      C    9    0.01919      0.99952     1.96591    0.01537     2.98081
      C   10    0.31772      0.99968     1.66215    0.02045     2.68228
      O   11   -0.29158      0.99987     3.28472    0.00698     4.29158
      C   12   -0.33717      0.99963     2.33189    0.00565     3.33717
      O   13   -0.37993      0.99989     3.37332    0.00671     4.37993
      H   14    0.09522      0.00000     0.40388    0.00090     0.40478
      H   15    0.09699      0.00000     0.40224    0.00077     0.40301
      H   16    0.10528      0.00000     0.39340    0.00132     0.39472
      H   17    0.09512      0.00000     0.40384    0.00103     0.40488
      H   18    0.09601      0.00000     0.40296    0.00103     0.40399
      H   19    0.09771      0.00000     0.40137    0.00092     0.40229
      H   20    0.10143      0.00000     0.39751    0.00106     0.39857
      H   21    0.09964      0.00000     0.39945    0.00091     0.40036
      H   22    0.09781      0.00000     0.40106    0.00113     0.40219
      H   23    0.10077      0.00000     0.39820    0.00102     0.39923
      H   24    0.09912      0.00000     0.39983    0.00106     0.40088
      H   25    0.09898      0.00000     0.39946    0.00156     0.40102
      H   26    0.10276      0.00000     0.39554    0.00171     0.39724
      H   27    0.09973      0.00000     0.39879    0.00147     0.40027
      H   28    0.09771      0.00000     0.40108    0.00120     0.40229
      H   29    0.09606      0.00000     0.40297    0.00097     0.40394
      H   30    0.10682      0.00000     0.39145    0.00173     0.39318
      H   31    0.09008      0.00000     0.40783    0.00208     0.40992
      H   32    0.11478      0.00000     0.38171    0.00351     0.38522
      H   33    0.10931      0.00000     0.38972    0.00098     0.39069
      H   34    0.10836      0.00000     0.39059    0.00105     0.39164
      H   35    0.23906      0.00000     0.25773    0.00321     0.26094
 =======================================================================
   * Total *   -0.00000     12.99545    38.84805    0.15650    52.00000

 Normal termination of Gaussian 16 at Mon Dec 14 17:46:03 2020.
