 Gaussian 16, Revision A.03,

 -----------------------------------------------------------
 # opt freq B3LYP/6-31G(d) empiricaldispersion=gd3bj scf=xqc
 -----------------------------------------------------------

 -------------------------------
 CID_43375853_JID_10699_neutraal
 -------------------------------
 Symbolic Z-matrix:
 Charge =  0 Multiplicity = 1

 SCF Done:  E(RB3LYP) =  -861.895789797     A.U. after   14 cycles
 SCF Done:  E(RB3LYP) =  -861.903854535     A.U. after   12 cycles
 SCF Done:  E(RB3LYP) =  -861.904776155     A.U. after   11 cycles
 SCF Done:  E(RB3LYP) =  -861.904869665     A.U. after   12 cycles
 SCF Done:  E(RB3LYP) =  -861.904898048     A.U. after   11 cycles
 SCF Done:  E(RB3LYP) =  -861.905024720     A.U. after   11 cycles
 SCF Done:  E(RB3LYP) =  -861.905049775     A.U. after   10 cycles
 SCF Done:  E(RB3LYP) =  -861.905054670     A.U. after    9 cycles
 SCF Done:  E(RB3LYP) =  -861.905055657     A.U. after    8 cycles
 SCF Done:  E(RB3LYP) =  -861.905055816     A.U. after    7 cycles
 Optimization completed.
    -- Stationary point found.
 Normal termination of Gaussian 16 at Sat Dec 12 15:34:01 2020.

 --------------------------------------------------------------------
 #N Geom=AllCheck Guess=TCheck SCRF=Check GenChk RB3LYP/6-31G(d) Freq
 --------------------------------------------------------------------

 Structure from the checkpoint file:  "JID_10699.chk"
 -------------------------------
 CID_43375853_JID_10699_neutraal
 -------------------------------
 Charge =  0 Multiplicity = 1

 SCF Done:  E(RB3LYP) =  -861.905055817     A.U. after    1 cycles

  Exact polarizability: 212.552  -7.141 216.140  38.325  -4.590 141.492
 Approx polarizability: 285.365 -12.855 375.022  83.161  -4.324 239.037

                      1                      2                      3
                      A                      A                      A
 Frequencies --     29.7495                33.7868                60.1074
 Red. masses --      4.7839                 4.5295                 3.7512
 Frc consts  --      0.0025                 0.0030                 0.0080
 IR Inten    --      0.5142                 1.2014                 0.1498

                      4                      5                      6
                      A                      A                      A
 Frequencies --     78.5979               110.8929               136.3592
 Red. masses --      4.2588                 3.3663                 4.2781
 Frc consts  --      0.0155                 0.0244                 0.0469
 IR Inten    --      0.2363                 3.6972                 0.8567

                      7                      8                      9
                      A                      A                      A
 Frequencies --    149.3962               165.2515               199.2478
 Red. masses --      4.0115                 3.6753                 3.9790
 Frc consts  --      0.0528                 0.0591                 0.0931
 IR Inten    --      3.3562                 0.4914                10.4609

                     10                     11                     12
                      A                      A                      A
 Frequencies --    219.2935               245.2581               256.9357
 Red. masses --      3.7010                 2.4644                 2.0605
 Frc consts  --      0.1049                 0.0873                 0.0801
 IR Inten    --      2.4078                 5.5249                 0.6046

                     13                     14                     15
                      A                      A                      A
 Frequencies --    281.5683               319.2463               325.8135
 Red. masses --      1.8335                 3.5927                 1.2384
 Frc consts  --      0.0856                 0.2157                 0.0775
 IR Inten    --     21.2103                18.2286               116.2648

                     16                     17                     18
                      A                      A                      A
 Frequencies --    331.9601               364.9396               392.3527
 Red. masses --      1.5901                 2.2656                 2.6605
 Frc consts  --      0.1032                 0.1778                 0.2413
 IR Inten    --     30.8928                15.6579                 2.2991

                     19                     20                     21
                      A                      A                      A
 Frequencies --    406.8071               433.7669               451.9716
 Red. masses --      2.3177                 3.9302                 2.1695
 Frc consts  --      0.2260                 0.4357                 0.2611
 IR Inten    --      3.3833                 7.3619                 2.2023

                     22                     23                     24
                      A                      A                      A
 Frequencies --    474.0502               479.9400               496.7802
 Red. masses --      3.8421                 3.3955                 4.2151
 Frc consts  --      0.5087                 0.4608                 0.6129
 IR Inten    --      1.1799                 0.8229                 4.8078

                     25                     26                     27
                      A                      A                      A
 Frequencies --    502.7013               532.6236               542.3168
 Red. masses --      4.9927                 3.2206                 3.3934
 Frc consts  --      0.7434                 0.5383                 0.5880
 IR Inten    --      2.4279                22.9900                 6.8132

                     28                     29                     30
                      A                      A                      A
 Frequencies --    566.7423               603.8358               647.5807
 Red. masses --      5.3657                 2.5956                 2.5268
 Frc consts  --      1.0154                 0.5576                 0.6243
 IR Inten    --     10.2713                 4.5492               104.1994

                     31                     32                     33
                      A                      A                      A
 Frequencies --    680.0459               702.5122               726.3861
 Red. masses --      3.0680                 2.8145                 2.9730
 Frc consts  --      0.8359                 0.8184                 0.9242
 IR Inten    --     55.5287               120.2390                66.3654

                     34                     35                     36
                      A                      A                      A
 Frequencies --    765.2507               785.8670               809.6458
 Red. masses --      2.9795                 3.2364                 1.5707
 Frc consts  --      1.0280                 1.1776                 0.6066
 IR Inten    --      7.8364                21.8963                43.5432

                     37                     38                     39
                      A                      A                      A
 Frequencies --    826.4379               835.5918               836.4635
 Red. masses --      2.1765                 3.7113                 1.6076
 Frc consts  --      0.8758                 1.5267                 0.6627
 IR Inten    --      7.5739                10.2552                 3.5416

                     40                     41                     42
                      A                      A                      A
 Frequencies --    843.6052               853.8150               916.0739
 Red. masses --      2.5376                 2.6043                 1.9378
 Frc consts  --      1.0640                 1.1186                 0.9581
 IR Inten    --     21.4652                23.8252                 1.9109

                     43                     44                     45
                      A                      A                      A
 Frequencies --    946.0299               950.2848               964.1067
 Red. masses --      1.4267                 1.5577                 1.3787
 Frc consts  --      0.7523                 0.8288                 0.7550
 IR Inten    --      1.6649                11.6104                 0.2249

                     46                     47                     48
                      A                      A                      A
 Frequencies --    982.5797               983.4441               990.9323
 Red. masses --      1.3587                 1.5112                 2.0447
 Frc consts  --      0.7729                 0.8611                 1.1830
 IR Inten    --      0.2127                 2.6184                12.2927

                     49                     50                     51
                      A                      A                      A
 Frequencies --   1017.7995              1030.4368              1049.5270
 Red. masses --      1.7318                 3.0316                 2.8088
 Frc consts  --      1.0570                 1.8965                 1.8229
 IR Inten    --      3.4465                13.3334                 7.8127

                     52                     53                     54
                      A                      A                      A
 Frequencies --   1071.1397              1075.2568              1083.0829
 Red. masses --      3.7905                 3.7482                 2.0606
 Frc consts  --      2.5624                 2.5533                 1.4242
 IR Inten    --     67.5682                46.0038                 8.0398

                     55                     56                     57
                      A                      A                      A
 Frequencies --   1102.7900              1131.2134              1137.6320
 Red. masses --      2.2239                 2.5943                 2.5071
 Frc consts  --      1.5935                 1.9560                 1.9117
 IR Inten    --     14.4350                11.9739                22.7777

                     58                     59                     60
                      A                      A                      A
 Frequencies --   1154.5296              1157.4016              1173.4913
 Red. masses --      1.4985                 1.8957                 1.8872
 Frc consts  --      1.1768                 1.4962                 1.5312
 IR Inten    --      9.7567                22.2202                20.0540

                     61                     62                     63
                      A                      A                      A
 Frequencies --   1190.3067              1199.3737              1202.9054
 Red. masses --      1.3581                 1.7121                 1.3777
 Frc consts  --      1.1337                 1.4511                 1.1746
 IR Inten    --      5.8896                 4.0859                 1.1161

                     64                     65                     66
                      A                      A                      A
 Frequencies --   1230.4513              1258.3938              1269.4531
 Red. masses --      1.4390                 1.4834                 2.2164
 Frc consts  --      1.2836                 1.3840                 2.1044
 IR Inten    --      3.7979                11.2695                11.6234

                     67                     68                     69
                      A                      A                      A
 Frequencies --   1285.1525              1309.7136              1313.8056
 Red. masses --      1.7924                 1.3188                 1.2597
 Frc consts  --      1.7442                 1.3328                 1.2811
 IR Inten    --      1.4531                 6.9504                 1.6294

                     70                     71                     72
                      A                      A                      A
 Frequencies --   1319.2393              1348.6611              1361.1947
 Red. masses --      2.0732                 1.3404                 1.3163
 Frc consts  --      2.1259                 1.4365                 1.4370
 IR Inten    --     15.1418                11.3778                 7.4418

                     73                     74                     75
                      A                      A                      A
 Frequencies --   1363.6558              1383.7842              1391.7232
 Red. masses --      1.7923                 2.8198                 1.2930
 Frc consts  --      1.9637                 3.1813                 1.4755
 IR Inten    --     28.1176                20.7423                20.3777

                     76                     77                     78
                      A                      A                      A
 Frequencies --   1398.9269              1403.6556              1406.9658
 Red. masses --      2.9243                 1.4456                 1.2300
 Frc consts  --      3.3718                 1.6781                 1.4346
 IR Inten    --     27.6471                 4.7898                 1.5917

                     79                     80                     81
                      A                      A                      A
 Frequencies --   1409.1686              1422.5916              1440.5546
 Red. masses --      1.5368                 1.5909                 1.3243
 Frc consts  --      1.7980                 1.8969                 1.6191
 IR Inten    --     18.8888                 1.3232                60.4745

                     82                     83                     84
                      A                      A                      A
 Frequencies --   1445.1703              1451.2452              1469.9766
 Red. masses --      1.4165                 2.0338                 2.3243
 Frc consts  --      1.7430                 2.5238                 2.9591
 IR Inten    --      4.2455                14.1522                 9.0162

                     85                     86                     87
                      A                      A                      A
 Frequencies --   1497.5933              1505.1112              1517.7859
 Red. masses --      1.1092                 1.0969                 1.0959
 Frc consts  --      1.4657                 1.4640                 1.4875
 IR Inten    --     14.9265                 0.4450                 4.5545

                     88                     89                     90
                      A                      A                      A
 Frequencies --   1521.7977              1525.6501              1532.4819
 Red. masses --      2.8855                 1.0901                 1.0889
 Frc consts  --      3.9372                 1.4949                 1.5067
 IR Inten    --     33.6519                 1.0640                 4.8312

                     91                     92                     93
                      A                      A                      A
 Frequencies --   1540.3803              1560.1948              1638.8951
 Red. masses --      1.1074                 4.0659                 6.2476
 Frc consts  --      1.5481                 5.8313                 9.8870
 IR Inten    --     11.4355                 6.5935                70.5958

                     94                     95                     96
                      A                      A                      A
 Frequencies --   1653.4902              1664.0402              1700.1997
 Red. masses --      4.3322                 5.3539                 1.2461
 Frc consts  --      6.9785                 8.7348                 2.1224
 IR Inten    --     20.2246                23.8834               114.7999

                     97                     98                     99
                      A                      A                      A
 Frequencies --   2926.1978              2934.3377              2981.2091
 Red. masses --      1.0729                 1.0724                 1.0713
 Frc consts  --      5.4126                 5.4406                 5.6095
 IR Inten    --     15.1271                81.4093                43.0396

                    100                    101                    102
                      A                      A                      A
 Frequencies --   3017.5237              3025.8400              3035.4947
 Red. masses --      1.0807                 1.0601                 1.0603
 Frc consts  --      5.7979                 5.7185                 5.7560
 IR Inten    --     12.6528                39.0650                54.7929

                    103                    104                    105
                      A                      A                      A
 Frequencies --   3050.4785              3062.2345              3070.4895
 Red. masses --      1.0697                 1.0850                 1.1043
 Frc consts  --      5.8650                 5.9948                 6.1340
 IR Inten    --     24.6013                69.0097                35.6788

                    106                    107                    108
                      A                      A                      A
 Frequencies --   3076.3180              3093.3665              3117.6970
 Red. masses --      1.1030                 1.0939                 1.0881
 Frc consts  --      6.1501                 6.1672                 6.2313
 IR Inten    --     41.0325                56.2213                15.3553

                    109                    110                    111
                      A                      A                      A
 Frequencies --   3131.8358              3158.8684              3172.6485
 Red. masses --      1.0963                 1.0893                 1.0873
 Frc consts  --      6.3356                 6.4042                 6.4480
 IR Inten    --     11.0355                33.1126                20.7068

                    112                    113                    114
                      A                      A                      A
 Frequencies --   3190.1922              3197.3543              3216.6530
 Red. masses --      1.0932                 1.0874                 1.0966
 Frc consts  --      6.5551                 6.5500                 6.6853
 IR Inten    --     23.1621                 8.3878                24.9791

                    115                    116                    117
                      A                      A                      A
 Frequencies --   3539.2436              3632.4844              3755.3702
 Red. masses --      1.0483                 1.0968                 1.0659
 Frc consts  --      7.7369                 8.5265                 8.8568
 IR Inten    --      7.4900                 8.0307                 8.6294

 - Thermochemistry -
 -------------------
 Temperature   298.150 Kelvin.  Pressure   1.00000 Atm.
 Atom     1 has atomic number  6 and mass  12.00000

 Molecular mass:   271.16846 amu.
 Principal axes and moments of inertia in atomic units:
                           1         2         3
     Eigenvalues --  2913.68029********************
           X            0.99997   0.00338   0.00681
           Y           -0.00329   0.99990  -0.01349
           Z           -0.00686   0.01347   0.99989
 This molecule is an asymmetric top.
 Rotational symmetry number  1.
 Warning -- assumption of classical behavior for rotation
           may cause significant error
 Rotational temperatures (Kelvin)      0.02973     0.00847     0.00774
 Rotational constants (GHZ):           0.61940     0.17643     0.16128
 Zero-point vibrational energy     932744.9 (Joules/Mol)
                                  222.93139 (Kcal/Mol)
 Warning -- explicit consideration of  29 degrees of freedom as
           vibrations may cause significant error
 Vibrational temperatures:     42.80    48.61    86.48   113.08   159.55
          (Kelvin)            196.19   214.95   237.76   286.67   315.51
                              352.87   369.67   405.11   459.32   468.77
                              477.62   525.07   564.51   585.30   624.09
                              650.29   682.05   690.53   714.76   723.28
                              766.33   780.27   815.42   868.78   931.72
                              978.43  1010.76  1045.11  1101.03  1130.69
                             1164.90  1189.06  1202.23  1203.48  1213.76
                             1228.45  1318.03  1361.13  1367.25  1387.13
                             1413.71  1414.96  1425.73  1464.39  1482.57
                             1510.04  1541.13  1547.05  1558.31  1586.67
                             1627.56  1636.80  1661.11  1665.24  1688.39
                             1712.59  1725.63  1730.71  1770.34  1810.55
                             1826.46  1849.05  1884.39  1890.27  1898.09
                             1940.42  1958.46  1962.00  1990.96  2002.38
                             2012.74  2019.55  2024.31  2027.48  2046.79
                             2072.64  2079.28  2088.02  2114.97  2154.70
                             2165.52  2183.76  2189.53  2195.07  2204.90
                             2216.26  2244.77  2358.00  2379.00  2394.18
                             2446.21  4210.15  4221.86  4289.29  4341.54
                             4353.51  4367.40  4388.96  4405.87  4417.75
                             4426.14  4450.66  4485.67  4506.01  4544.91
                             4564.73  4589.97  4600.28  4628.05  5092.18
                             5226.33  5403.14

 Zero-point correction=                           0.355264 (Hartree/Particle)
 Thermal correction to Energy=                    0.372867
 Thermal correction to Enthalpy=                  0.373811
 Thermal correction to Gibbs Free Energy=         0.309458
 Sum of electronic and zero-point Energies=           -861.549792
 Sum of electronic and thermal Energies=              -861.532189
 Sum of electronic and thermal Enthalpies=            -861.531245
 Sum of electronic and thermal Free Energies=         -861.595597

                     E (Thermal)             CV                S
                      KCal/Mol        Cal/Mol-Kelvin    Cal/Mol-Kelvin
 Total                  233.977             70.687            135.441
 Electronic               0.000              0.000              0.000
 Translational            0.889              2.981             42.692
 Rotational               0.889              2.981             34.166
 Vibrational            232.200             64.726             58.583
 Vibration     1          0.594              1.984              5.846
 Vibration     2          0.594              1.983              5.594
 Vibration     3          0.597              1.973              4.454
 Vibration     4          0.600              1.964              3.926
 Vibration     5          0.607              1.940              3.253
 Vibration     6          0.614              1.917              2.854
 Vibration     7          0.618              1.903              2.680
 Vibration     8          0.624              1.885              2.489
 Vibration     9          0.637              1.841              2.140
 Vibration    10          0.647              1.812              1.965
 Vibration    11          0.660              1.771              1.764
 Vibration    12          0.667              1.751              1.683
 Vibration    13          0.681              1.708              1.524
 Vibration    14          0.705              1.637              1.314
 Vibration    15          0.710              1.624              1.281
 Vibration    16          0.714              1.612              1.251
 Vibration    17          0.738              1.544              1.101
 Vibration    18          0.760              1.487              0.991
 Vibration    19          0.772              1.455              0.938
 Vibration    20          0.795              1.397              0.846
 Vibration    21          0.811              1.357              0.790
 Vibration    22          0.831              1.308              0.726
 Vibration    23          0.836              1.295              0.710
 Vibration    24          0.852              1.257              0.666
 Vibration    25          0.858              1.244              0.651
 Vibration    26          0.888              1.178              0.581
 Vibration    27          0.897              1.157              0.560
 Vibration    28          0.923              1.103              0.511
 Vibration    29          0.962              1.024              0.443

                           ! Non-Optimized Parameters !
 Normal termination of Gaussian 16 at Sat Dec 12 15:56:44 2020.

 ----------------------------------------------------------------------
 # B3LYP/6-311++G(d,p) empiricaldispersion=gd3bj scf=xqc pop=npa geom=c
 heck
 ----------------------------------------------------------------------

 ---------------------------------------
 CID_43375853_JID_10699_Energie_neutraal
 ---------------------------------------
 Structure from the checkpoint file:  "JID_10699.chk"
 Charge =  0 Multiplicity = 1

 SCF Done:  E(RB3LYP) =  -862.145976424     A.U. after   15 cycles
 Normal termination of Gaussian 16 at Sat Dec 12 16:07:38 2020.

 ----------------------------------------------------------------------
 # B3LYP/6-311++G(d,p) empiricaldispersion=gd3bj scf=xqc pop=npa geom=c
 heck
 ----------------------------------------------------------------------

 -------------------------------------
 CID_43375853_JID_10699_Energie_kation
 -------------------------------------
 Structure from the checkpoint file:  "JID_10699.chk"
 Charge =  1 Multiplicity = 2

 SCF Done:  E(UB3LYP) =  -861.883438974     A.U. after   22 cycles
 Normal termination of Gaussian 16 at Sat Dec 12 16:30:44 2020.
 Gaussian 16:  ES64L-G16RevA.03 25-Dec-2016

 ----------------------------------------------------------------------
 # B3LYP/6-311++G(d,p) empiricaldispersion=gd3bj scf=xqc pop=npa geom=c
 heck
 ----------------------------------------------------------------------

 ------------------------------------
 CID_43375853_JID_10699_Energie_anion
 ------------------------------------
 Structure from the checkpoint file:  "JID_10699.chk"
 Charge = -1 Multiplicity = 2

                         Standard orientation:
 ---------------------------------------------------------------------
 Center     Atomic      Atomic             Coordinates (Angstroms)
 Number     Number       Type             X           Y           Z
 ---------------------------------------------------------------------
      1          6           0        3.395173   -0.883939    0.443185
      2          6           0        1.941153   -1.080748    0.877658
      3          7           0        1.368300    0.182265    1.326752
      4          6           0        1.375980    1.183476    0.261674
      5          6           0        2.809457    1.465141   -0.191063
      6          6           0        3.508439    0.180971   -0.656280
      7          6           0        4.960269    0.452505   -1.055224
      8          8           0        5.632602   -0.689795   -1.576349
      9          6           0        0.070305    0.039578    1.999083
     10          6           0       -1.070919   -0.477219    1.141039
     11          6           0       -1.946892    0.419673    0.455782
     12          6           0       -2.988714   -0.089678   -0.389664
     13          6           0       -3.120219   -1.502546   -0.582176
     14          6           0       -2.273461   -2.346443    0.113412
     15          6           0       -1.278810   -1.831621    0.968343
     16          7           0       -4.135937   -1.999408   -1.409329
     17          6           0       -3.863619    0.847067   -0.989921
     18          6           0       -3.674886    2.193146   -0.779964
     19          6           0       -2.603928    2.597138    0.048518
     20          7           0       -1.781297    1.761656    0.647884
     21          1           0        3.795513   -1.843790    0.091034
     22          1           0        3.985591   -0.571158    1.316033
     23          1           0        1.370031   -1.523435    0.037855
     24          1           0        1.892247   -1.795798    1.708365
     25          1           0        0.901691    2.091619    0.642023
     26          1           0        0.778078    0.857261   -0.611723
     27          1           0        3.366434    1.900888    0.649497
     28          1           0        2.799942    2.208112   -0.999298
     29          1           0        2.986315   -0.196556   -1.548470
     30          1           0        4.991718    1.200670   -1.854636
     31          1           0        5.505848    0.872462   -0.192769
     32          1           0        5.732964   -1.321580   -0.848736
     33          1           0        0.220481   -0.648570    2.840061
     34          1           0       -0.197952    1.017171    2.405045
     35          1           0       -2.370831   -3.422723   -0.008262
     36          1           0       -0.642125   -2.534472    1.499790
     37          1           0       -4.263006   -1.484898   -2.273039
     38          1           0       -4.041454   -2.989284   -1.604868
     39          1           0       -4.700409    0.500986   -1.589001
     40          1           0       -4.334159    2.933300   -1.222174
     41          1           0       -2.431159    3.657545    0.230501
 ---------------------------------------------------------------------

 SCF Done:  E(UB3LYP) =  -862.154167996     A.U. after   33 cycles
 SCF Done:  E(UB3LYP) =  -862.154167997     a.u. after    1 cycles

 The electronic state is 2-A.
 Alpha  occ. eigenvalues --  -19.04516 -14.19346 -14.18581 -14.13729 -10.13161
 Alpha  occ. eigenvalues --  -10.08434 -10.08004 -10.07396 -10.07255 -10.06768
 Alpha  occ. eigenvalues --  -10.06463 -10.06332 -10.06020 -10.04914 -10.03741
 Alpha  occ. eigenvalues --  -10.03048 -10.02821 -10.02486 -10.02191 -10.01836
 Alpha  occ. eigenvalues --   -0.94499  -0.81363  -0.79623  -0.78288  -0.71577
 Alpha  occ. eigenvalues --   -0.68992  -0.65520  -0.65115  -0.62029  -0.60400
 Alpha  occ. eigenvalues --   -0.59065  -0.54630  -0.52501  -0.50002  -0.49180
 Alpha  occ. eigenvalues --   -0.48936  -0.45916  -0.43863  -0.42524  -0.40020
 Alpha  occ. eigenvalues --   -0.39380  -0.38413  -0.36682  -0.36225  -0.35533
 Alpha  occ. eigenvalues --   -0.34990  -0.34143  -0.32892  -0.32492  -0.31365
 Alpha  occ. eigenvalues --   -0.30522  -0.29704  -0.28722  -0.28025  -0.27117
 Alpha  occ. eigenvalues --   -0.26752  -0.25872  -0.25444  -0.24923  -0.24355
 Alpha  occ. eigenvalues --   -0.23586  -0.23201  -0.22491  -0.22107  -0.21336
 Alpha  occ. eigenvalues --   -0.20122  -0.19113  -0.17471  -0.14460  -0.11200
 Alpha  occ. eigenvalues --   -0.11012  -0.09558  -0.07045   0.04379
 Alpha virt. eigenvalues --    0.05836   0.07533   0.07802   0.08555   0.08855
 Alpha virt. eigenvalues --    0.09186   0.10276   0.10446   0.11038   0.11539
 Alpha virt. eigenvalues --    0.11706   0.11956   0.12313   0.12391   0.13368

  Beta  occ. eigenvalues --  -19.04512 -14.19317 -14.18567 -14.13317 -10.13159
  Beta  occ. eigenvalues --  -10.08434 -10.08004 -10.07392 -10.07255 -10.06766
  Beta  occ. eigenvalues --  -10.06341 -10.06192 -10.06063 -10.04800 -10.03819
  Beta  occ. eigenvalues --  -10.02959 -10.02831 -10.02444 -10.01816 -10.01678
  Beta  occ. eigenvalues --   -0.94488  -0.81327  -0.79352  -0.77838  -0.71548
  Beta  occ. eigenvalues --   -0.68738  -0.65203  -0.64925  -0.61904  -0.60186
  Beta  occ. eigenvalues --   -0.58864  -0.54517  -0.52486  -0.49786  -0.48877
  Beta  occ. eigenvalues --   -0.48678  -0.45844  -0.43690  -0.42504  -0.39852
  Beta  occ. eigenvalues --   -0.39130  -0.38347  -0.36563  -0.36168  -0.35507
  Beta  occ. eigenvalues --   -0.34949  -0.34023  -0.32817  -0.32430  -0.31308
  Beta  occ. eigenvalues --   -0.30417  -0.29637  -0.28660  -0.27908  -0.26772
  Beta  occ. eigenvalues --   -0.26426  -0.25655  -0.25256  -0.24855  -0.24275
  Beta  occ. eigenvalues --   -0.23502  -0.23082  -0.22319  -0.21330  -0.21305
  Beta  occ. eigenvalues --   -0.19940  -0.19100  -0.16693  -0.12944  -0.10790
  Beta  occ. eigenvalues --   -0.10435  -0.09357  -0.05930
  Beta virt. eigenvalues --    0.05850   0.07547   0.07743   0.08380   0.08752
  Beta virt. eigenvalues --    0.09113   0.09816   0.10270   0.10357   0.11009
  Beta virt. eigenvalues --    0.11470   0.11594   0.12049   0.12273   0.12360

 Mulliken charges and spin densities:
               1          2
     1  C   -0.506492  -0.261570
     2  C   -0.287516   0.078133
     3  N    0.260328  -0.007254
     4  C   -0.181858  -0.048865
     5  C   -0.735405  -0.029219
     6  C    0.296299   0.231638
     7  C   -0.494675  -0.153131
     8  O   -0.237751  -0.001036
     9  C   -0.693813  -0.018866
    10  C    0.529173   0.155421
    11  C   -0.468515  -0.040152
    12  C    1.218975   0.045915
    13  C   -0.869079   0.080049
    14  C   -0.413124  -0.070864
    15  C   -0.176646   0.038622
    16  N   -0.270295  -0.023096
    17  C   -0.280543   0.283985
    18  C   -0.338317   0.023344
    19  C   -0.152274   0.104701
    20  N    0.045792   0.180472
    21  H    0.084759  -0.003714
    22  H    0.098584   0.061450
    23  H    0.161141  -0.006227
    24  H    0.119909   0.022740
    25  H    0.231453  -0.004431
    26  H    0.140459   0.000701
    27  H    0.125975   0.015093
    28  H    0.118474   0.008440
    29  H    0.182359   0.001701
    30  H    0.155682   0.010977
    31  H    0.109537   0.031617
    32  H    0.187476   0.046763
    33  H    0.112614   0.039425
    34  H    0.172935   0.030991
    35  H    0.096287   0.007138
    36  H    0.090194   0.006527
    37  H    0.074058   0.161231
    38  H    0.186112   0.039124
    39  H    0.088138  -0.032968
    40  H    0.108872   0.003337
    41  H    0.110719  -0.008144
 Sum of Mulliken charges =  -1.00000   1.00000

 Dipole moment (field-independent basis, Debye):
    X=              5.9246    Y=             -1.4460    Z=             -0.0360  Tot=              6.0986
 Quadrupole moment (field-independent basis, Debye-Ang):
   XX=           -188.7757   YY=           -137.8067   ZZ=           -142.2427
   XY=              3.5305   XZ=              8.6755   YZ=             -2.9413

 Summary of Natural Population Analysis:

                                       Natural Population
                Natural  -----------------------------------------------
    Atom  No    Charge         Core      Valence    Rydberg      Total
 -----------------------------------------------------------------------
      C    1   -0.19563      0.99961     2.18662    0.00940     3.19563
      C    2   -0.08693      0.99962     2.07419    0.01313     3.08693
      N    3   -0.28117      0.99971     2.76737    0.01410     3.78117
      C    4   -0.08710      0.99962     2.07644    0.01104     3.08710
      C    5   -0.19183      0.99961     2.18384    0.00837     3.19183
      C    6   -0.12508      0.99959     2.11688    0.00861     3.12508
      C    7   -0.00344      0.99956     1.99173    0.01215     3.00344
      O    8   -0.36991      0.99990     3.36315    0.00687     4.36991
      C    9   -0.08913      0.99959     2.07602    0.01353     3.08913
      C   10   -0.02601      0.99946     2.01649    0.01006     3.02601
      C   11    0.08983      0.99945     1.89819    0.01253     2.91017
      C   12   -0.07233      0.99946     2.06289    0.00998     3.07233
      C   13    0.13453      0.99946     1.85525    0.01076     2.86547
      C   14   -0.14369      0.99953     2.13457    0.00959     3.14369
      C   15   -0.07701      0.99953     2.06837    0.00911     3.07701
      N   16   -0.40191      0.99972     2.89246    0.00974     3.90191
      C   17   -0.01459      0.99954     2.00684    0.00821     3.01459
      C   18   -0.12792      0.99956     2.11971    0.00865     3.12792
      C   19    0.05033      0.99962     1.93585    0.01420     2.94967
      N   20   -0.20048      0.99968     2.68873    0.01206     3.70048
      H   21    0.09257      0.00000     0.40580    0.00163     0.40743
      H   22    0.09385      0.00000     0.40392    0.00224     0.40615
      H   23    0.08648      0.00000     0.41184    0.00168     0.41352
      H   24    0.09378      0.00000     0.40520    0.00101     0.40622
      H   25    0.10979      0.00000     0.38904    0.00117     0.39021
      H   26    0.08524      0.00000     0.41292    0.00184     0.41476
      H   27    0.09386      0.00000     0.40409    0.00205     0.40614
      H   28    0.09589      0.00000     0.40242    0.00169     0.40411
      H   29    0.09721      0.00000     0.40127    0.00151     0.40279
      H   30    0.08480      0.00000     0.41378    0.00142     0.41520
      H   31    0.07235      0.00000     0.42586    0.00179     0.42765
      H   32    0.22538      0.00000     0.27158    0.00304     0.27462
      H   33    0.08942      0.00000     0.40955    0.00102     0.41058
      H   34    0.10903      0.00000     0.38968    0.00129     0.39097
      H   35    0.08747      0.00000     0.41123    0.00130     0.41253
      H   36    0.08787      0.00000     0.41092    0.00122     0.41213
      H   37    0.18400      0.00000     0.31357    0.00243     0.31600
      H   38    0.17677      0.00000     0.32183    0.00140     0.32323
      H   39    0.08803      0.00000     0.41028    0.00170     0.41197
      H   40    0.09042      0.00000     0.40847    0.00111     0.40958
      H   41    0.07526      0.00000     0.42348    0.00126     0.42474
 =======================================================================
   * Total *    0.00001     19.99181    52.76230    0.24588    72.99999

 Normal termination of Gaussian 16 at Sat Dec 12 17:03:19 2020.
