 Gaussian 16, Revision A.03,

 -----------------------------------------------------------
 # opt freq B3LYP/6-31G(d) empiricaldispersion=gd3bj scf=xqc
 -----------------------------------------------------------

 ------------------------------
 CID_92171356_JID_5110_neutraal
 ------------------------------
 Symbolic Z-matrix:
 Charge =  0 Multiplicity = 1

 SCF Done:  E(RB3LYP) =  -725.950847214     A.U. after   15 cycles
 SCF Done:  E(RB3LYP) =  -725.959121918     A.U. after   13 cycles
 SCF Done:  E(RB3LYP) =  -725.959232621     A.U. after   13 cycles
 SCF Done:  E(RB3LYP) =  -725.957515408     A.U. after   13 cycles
 SCF Done:  E(RB3LYP) =  -725.958535588     A.U. after   13 cycles
 SCF Done:  E(RB3LYP) =  -725.960244321     A.U. after   10 cycles
 SCF Done:  E(RB3LYP) =  -725.960563255     A.U. after   13 cycles
 SCF Done:  E(RB3LYP) =  -725.960711483     A.U. after   12 cycles
 SCF Done:  E(RB3LYP) =  -725.960828721     A.U. after   12 cycles
 SCF Done:  E(RB3LYP) =  -725.961010906     A.U. after   13 cycles
 SCF Done:  E(RB3LYP) =  -725.961326770     A.U. after    9 cycles
 SCF Done:  E(RB3LYP) =  -725.961327647     A.U. after    8 cycles
 SCF Done:  E(RB3LYP) =  -725.961328454     A.U. after    9 cycles
 SCF Done:  E(RB3LYP) =  -725.961328994     A.U. after    9 cycles
 SCF Done:  E(RB3LYP) =  -725.961329117     A.U. after    9 cycles
 SCF Done:  E(RB3LYP) =  -725.961329154     A.U. after    7 cycles
 Optimization completed.
    -- Stationary point found.
 Normal termination of Gaussian 16 at Thu Dec 10 14:53:12 2020.

 --------------------------------------------------------------------
 #N Geom=AllCheck Guess=TCheck SCRF=Check GenChk RB3LYP/6-31G(d) Freq
 --------------------------------------------------------------------

 Structure from the checkpoint file:  "JID_5110.chk"
 ------------------------------
 CID_92171356_JID_5110_neutraal
 ------------------------------
 Charge =  0 Multiplicity = 1

 SCF Done:  E(RB3LYP) =  -725.961329154     A.U. after    1 cycles

  Exact polarizability: 146.910   0.785 118.416   7.202   3.577  95.147
 Approx polarizability: 199.354   4.088 187.377  17.753   5.935 144.143

                      1                      2                      3
                      A                      A                      A
 Frequencies --     28.5500                56.9778                70.5317
 Red. masses --      3.8766                 6.1689                 2.6755
 Frc consts  --      0.0019                 0.0118                 0.0078
 IR Inten    --      1.4005                 0.2102                 0.3678

                      4                      5                      6
                      A                      A                      A
 Frequencies --     87.6086                93.6493               109.4366
 Red. masses --      3.5568                 1.6817                 2.8386
 Frc consts  --      0.0161                 0.0087                 0.0200
 IR Inten    --     11.8047                 1.6286                 0.2287

                      7                      8                      9
                      A                      A                      A
 Frequencies --    142.4351               150.9385               168.1286
 Red. masses --      2.0397                 4.9339                 3.5513
 Frc consts  --      0.0244                 0.0662                 0.0591
 IR Inten    --      1.6534                 1.1881                 5.5307

                     10                     11                     12
                      A                      A                      A
 Frequencies --    186.1787               199.8036               214.0144
 Red. masses --      1.9558                 5.1347                 2.3269
 Frc consts  --      0.0399                 0.1208                 0.0628
 IR Inten    --      7.8133                 1.3431                 0.6130

                     13                     14                     15
                      A                      A                      A
 Frequencies --    266.3774               300.7628               316.7744
 Red. masses --      1.8393                 2.3069                 2.5440
 Frc consts  --      0.0769                 0.1229                 0.1504
 IR Inten    --      2.6346                 1.9581                 2.9236

                     16                     17                     18
                      A                      A                      A
 Frequencies --    341.6161               355.4770               390.1199
 Red. masses --      7.1286                 2.1827                 6.4169
 Frc consts  --      0.4902                 0.1625                 0.5754
 IR Inten    --      9.5261                 0.2441                 9.3436

                     19                     20                     21
                      A                      A                      A
 Frequencies --    431.3690               446.9627               505.5428
 Red. masses --      2.0599                 4.9779                 2.4051
 Frc consts  --      0.2258                 0.5859                 0.3622
 IR Inten    --      2.9747                13.9570                 0.7637

                     22                     23                     24
                      A                      A                      A
 Frequencies --    577.2810               599.1937               658.1087
 Red. masses --      1.1762                 5.5494                 5.4414
 Frc consts  --      0.2310                 1.1739                 1.3885
 IR Inten    --    126.6381                12.5394                32.4177

                     25                     26                     27
                      A                      A                      A
 Frequencies --    688.9411               717.3894               734.1099
 Red. masses --      3.1513                 2.3210                 6.6587
 Frc consts  --      0.8813                 0.7038                 2.1143
 IR Inten    --      3.4424                 9.9177                 3.1237

                     28                     29                     30
                      A                      A                      A
 Frequencies --    747.0540               767.0597               791.3240
 Red. masses --      6.0972                 1.7655                 2.5829
 Frc consts  --      2.0049                 0.6120                 0.9530
 IR Inten    --     11.4253                 6.3642                11.0013

                     31                     32                     33
                      A                      A                      A
 Frequencies --    847.1262               882.3096               887.8685
 Red. masses --      2.1207                 1.7585                 2.3157
 Frc consts  --      0.8967                 0.8066                 1.0755
 IR Inten    --      0.4801                 0.5423                22.4164

                     34                     35                     36
                      A                      A                      A
 Frequencies --    948.3741               964.3507               994.2644
 Red. masses --      1.8233                 1.9566                 1.8806
 Frc consts  --      0.9662                 1.0721                 1.0953
 IR Inten    --      2.5377                 5.7688                 7.0561

                     37                     38                     39
                      A                      A                      A
 Frequencies --   1037.7926              1052.4262              1078.9079
 Red. masses --      1.8919                 1.8920                 1.8533
 Frc consts  --      1.2005                 1.2347                 1.2711
 IR Inten    --      5.4467                 5.2348                18.4684

                     40                     41                     42
                      A                      A                      A
 Frequencies --   1093.7485              1128.9457              1143.4303
 Red. masses --      2.2933                 3.1232                 2.7027
 Frc consts  --      1.6164                 2.3453                 2.0819
 IR Inten    --     11.1635                59.7900                 5.7358

                     43                     44                     45
                      A                      A                      A
 Frequencies --   1158.5431              1168.9911              1175.6433
 Red. masses --      2.6859                 2.1317                 1.4021
 Frc consts  --      2.1240                 1.7163                 1.1418
 IR Inten    --      4.6810                 0.6019                 3.4056

                     46                     47                     48
                      A                      A                      A
 Frequencies --   1237.3573              1265.3383              1284.8875
 Red. masses --      1.4193                 1.4157                 3.5530
 Frc consts  --      1.2803                 1.3355                 3.4561
 IR Inten    --      2.9330                 4.4293                20.7339

                     49                     50                     51
                      A                      A                      A
 Frequencies --   1314.7654              1344.4703              1348.2153
 Red. masses --      1.2946                 1.6982                 1.4506
 Frc consts  --      1.3185                 1.8086                 1.5535
 IR Inten    --      3.0314                26.4226                34.7507

                     52                     53                     54
                      A                      A                      A
 Frequencies --   1364.2226              1384.3216              1399.3168
 Red. masses --      1.9161                 1.5746                 1.5335
 Frc consts  --      2.1011                 1.7778                 1.7691
 IR Inten    --     41.0485                 5.6797                30.9976

                     55                     56                     57
                      A                      A                      A
 Frequencies --   1412.2836              1418.8755              1423.8589
 Red. masses --      1.5178                 1.8782                 1.3509
 Frc consts  --      1.7837                 2.2279                 1.6136
 IR Inten    --     34.1980               110.7667                 8.0641

                     58                     59                     60
                      A                      A                      A
 Frequencies --   1441.0933              1443.8082              1471.8622
 Red. masses --      1.8658                 1.2702                 1.2485
 Frc consts  --      2.2829                 1.5601                 1.5936
 IR Inten    --     77.9452                 1.8215                60.6421

                     61                     62                     63
                      A                      A                      A
 Frequencies --   1509.8040              1515.8047              1522.2556
 Red. masses --      1.0763                 1.0721                 1.0534
 Frc consts  --      1.4455                 1.4514                 1.4382
 IR Inten    --      1.3796                 8.7311                 5.0772

                     64                     65                     66
                      A                      A                      A
 Frequencies --   1526.1095              1529.5915              1537.3907
 Red. masses --      1.0844                 1.0531                 1.0562
 Frc consts  --      1.4880                 1.4516                 1.4708
 IR Inten    --      4.0792                 8.2310                 5.9076

                     67                     68                     69
                      A                      A                      A
 Frequencies --   1544.2851              1550.7899              1819.6457
 Red. masses --      1.0797                 1.0847                10.4344
 Frc consts  --      1.5171                 1.5370                20.3560
 IR Inten    --      5.3918                 9.9290               140.0711

                     70                     71                     72
                      A                      A                      A
 Frequencies --   1837.2003              1873.2785              2968.1014
 Red. masses --      9.6250                11.7990                 1.0879
 Frc consts  --     19.1410                24.3950                 5.6465
 IR Inten    --    721.2005               199.7059                52.0725

                     73                     74                     75
                      A                      A                      A
 Frequencies --   3031.9192              3043.5511              3048.7690
 Red. masses --      1.0615                 1.0393                 1.0680
 Frc consts  --      5.7491                 5.6721                 5.8490
 IR Inten    --     22.7173                15.4361                29.5457

                     76                     77                     78
                      A                      A                      A
 Frequencies --   3051.2984              3057.1925              3059.8114
 Red. masses --      1.0648                 1.0615                 1.0599
 Frc consts  --      5.8409                 5.8457                 5.8465
 IR Inten    --      6.8469                16.7469                26.1260

                     79                     80                     81
                      A                      A                      A
 Frequencies --   3070.4422              3087.4891              3098.0883
 Red. masses --      1.0801                 1.0967                 1.1020
 Frc consts  --      5.9998                 6.1594                 6.2320
 IR Inten    --     72.3508                10.9205                 7.4145

                     82                     83                     84
                      A                      A                      A
 Frequencies --   3111.1354              3114.4774              3116.6047
 Red. masses --      1.1004                 1.0997                 1.0999
 Frc consts  --      6.2756                 6.2851                 6.2945
 IR Inten    --     64.3306                55.8980                14.9934

                     85                     86                     87
                      A                      A                      A
 Frequencies --   3137.1730              3182.7880              3644.4124
 Red. masses --      1.0925                 1.1046                 1.0799
 Frc consts  --      6.3353                 6.5927                 8.4504
 IR Inten    --     11.2632                 1.0068                83.4555

 - Thermochemistry -
 -------------------
 Temperature   298.150 Kelvin.  Pressure   1.00000 Atm.
 Atom     1 has atomic number  6 and mass  12.00000

 Molecular mass:   212.11609 amu.
 Principal axes and moments of inertia in atomic units:
                           1         2         3
     Eigenvalues --  1679.983674591.542925201.26539
           X            0.99994   0.00353  -0.01047
           Y           -0.00328   0.99970   0.02438
           Z            0.01055  -0.02435   0.99965
 This molecule is an asymmetric top.
 Rotational symmetry number  1.
 Warning -- assumption of classical behavior for rotation
           may cause significant error
 Rotational temperatures (Kelvin)      0.05156     0.01886     0.01665
 Rotational constants (GHZ):           1.07426     0.39306     0.34698
 Zero-point vibrational energy     686958.7 (Joules/Mol)
                                  164.18707 (Kcal/Mol)
 Warning -- explicit consideration of  23 degrees of freedom as
           vibrations may cause significant error
 Vibrational temperatures:     41.08    81.98   101.48   126.05   134.74
          (Kelvin)            157.45   204.93   217.17   241.90   267.87
                              287.47   307.92   383.26   432.73   455.77
                              491.51   511.45   561.30   620.64   643.08
                              727.36   830.58   862.11   946.87   991.23
                             1032.16  1056.22  1074.84  1103.63  1138.54
                             1218.83  1269.45  1277.44  1364.50  1387.49
                             1430.52  1493.15  1514.21  1552.31  1573.66
                             1624.30  1645.14  1666.89  1681.92  1691.49
                             1780.28  1820.54  1848.67  1891.65  1934.39
                             1939.78  1962.81  1991.73  2013.30  2031.96
                             2041.45  2048.62  2073.41  2077.32  2117.68
                             2172.27  2180.90  2190.19  2195.73  2200.74
                             2211.96  2221.88  2231.24  2618.06  2643.32
                             2695.23  4270.44  4362.26  4378.99  4386.50
                             4390.14  4398.62  4402.39  4417.68  4442.21
                             4457.46  4476.23  4481.04  4484.10  4513.69
                             4579.32  5243.50

 Zero-point correction=                           0.261649 (Hartree/Particle)
 Thermal correction to Energy=                    0.277625
 Thermal correction to Enthalpy=                  0.278569
 Thermal correction to Gibbs Free Energy=         0.217686
 Sum of electronic and zero-point Energies=           -725.699680
 Sum of electronic and thermal Energies=              -725.683704
 Sum of electronic and thermal Enthalpies=            -725.682760
 Sum of electronic and thermal Free Energies=         -725.743644

                     E (Thermal)             CV                S
                      KCal/Mol        Cal/Mol-Kelvin    Cal/Mol-Kelvin
 Total                  174.212             57.899            128.141
 Electronic               0.000              0.000              0.000
 Translational            0.889              2.981             41.959
 Rotational               0.889              2.981             32.062
 Vibrational            172.435             51.937             54.120
 Vibration     1          0.593              1.984              5.928
 Vibration     2          0.596              1.975              4.559
 Vibration     3          0.598              1.968              4.138
 Vibration     4          0.601              1.958              3.713
 Vibration     5          0.603              1.954              3.582
 Vibration     6          0.606              1.942              3.279
 Vibration     7          0.616              1.911              2.771
 Vibration     8          0.618              1.902              2.660
 Vibration     9          0.625              1.882              2.456
 Vibration    10          0.632              1.859              2.266
 Vibration    11          0.638              1.840              2.135
 Vibration    12          0.644              1.820              2.009
 Vibration    13          0.672              1.735              1.620
 Vibration    14          0.693              1.672              1.413
 Vibration    15          0.704              1.642              1.327
 Vibration    16          0.721              1.592              1.205
 Vibration    17          0.731              1.564              1.142
 Vibration    18          0.758              1.491              1.000
 Vibration    19          0.792              1.402              0.854
 Vibration    20          0.806              1.368              0.805
 Vibration    21          0.861              1.238              0.644
 Vibration    22          0.934              1.080              0.490
 Vibration    23          0.957              1.034              0.451

 Optimization completed.
    -- Stationary point found.
 Normal termination of Gaussian 16 at Thu Dec 10 15:02:53 2020.

 ----------------------------------------------------------------------
 # B3LYP/6-311++G(d,p) empiricaldispersion=gd3bj scf=xqc pop=npa geom=c
 heck
 ----------------------------------------------------------------------

 --------------------------------------
 CID_92171356_JID_5110_Energie_neutraal
 --------------------------------------
 Structure from the checkpoint file:  "JID_5110.chk"
 Charge =  0 Multiplicity = 1

 SCF Done:  E(RB3LYP) =  -726.174057187     A.U. after   16 cycles
 Normal termination of Gaussian 16 at Thu Dec 10 15:07:07 2020.

 ----------------------------------------------------------------------
 # B3LYP/6-311++G(d,p) empiricaldispersion=gd3bj scf=xqc pop=npa geom=c
 heck
 ----------------------------------------------------------------------

 ------------------------------------
 CID_92171356_JID_5110_Energie_kation
 ------------------------------------
 Structure from the checkpoint file:  "JID_5110.chk"
 Charge =  1 Multiplicity = 2

 SCF Done:  E(UB3LYP) =  -725.841238343     A.U. after   25 cycles
 Normal termination of Gaussian 16 at Thu Dec 10 15:15:37 2020.
 Gaussian 16:  ES64L-G16RevA.03 25-Dec-2016

 ----------------------------------------------------------------------
 # B3LYP/6-311++G(d,p) empiricaldispersion=gd3bj scf=xqc pop=npa geom=c
 heck
 ----------------------------------------------------------------------

 -----------------------------------
 CID_92171356_JID_5110_Energie_anion
 -----------------------------------
 Structure from the checkpoint file:  "JID_5110.chk"
 Charge = -1 Multiplicity = 2

                         Standard orientation:
 ---------------------------------------------------------------------
 Center     Atomic      Atomic             Coordinates (Angstroms)
 Number     Number       Type             X           Y           Z
 ---------------------------------------------------------------------
      1          6           0        4.286281   -0.711108   -0.851366
      2          6           0        3.420112   -0.341441    0.356997
      3          6           0        2.613764    0.952366    0.169626
      4          6           0        1.639609    0.965224   -1.017145
      5          6           0        0.525874   -0.091076   -0.990703
      6          6           0       -0.515946    0.025395    0.151942
      7          6           0       -1.139006    1.422749    0.243701
      8          8           0       -0.573192    2.438601    0.597778
      9          7           0       -2.454789    1.274554   -0.114151
     10          6           0       -2.827744   -0.074936   -0.314282
     11          8           0       -3.939270   -0.462851   -0.609339
     12          7           0       -1.692533   -0.816751   -0.102334
     13          6           0       -1.646283   -2.243372   -0.366097
     14          6           0        0.080431   -0.365158    1.517694
     15          8           0        0.566938   -1.455011    1.714864
     16          1           0        3.678754   -0.951718   -1.731409
     17          1           0        4.907767   -1.586888   -0.635155
     18          1           0        4.954942    0.113782   -1.127474
     19          1           0        2.749852   -1.174809    0.596267
     20          1           0        4.065116   -0.216211    1.236239
     21          1           0        2.063767    1.185171    1.091603
     22          1           0        3.314216    1.787630    0.034071
     23          1           0        1.190426    1.960247   -1.087454
     24          1           0        2.199629    0.813241   -1.947773
     25          1           0       -0.039110   -0.041994   -1.929325
     26          1           0        0.952373   -1.098231   -0.924391
     27          1           0       -3.135379    2.022096   -0.110176
     28          1           0       -2.677266   -2.591225   -0.440886
     29          1           0       -1.126460   -2.460792   -1.306631
     30          1           0       -1.135123   -2.758496    0.449564
     31          1           0        0.009401    0.395797    2.319710
 ---------------------------------------------------------------------

 SCF Done:  E(UB3LYP) =  -726.180662734     A.U. after   29 cycles

 The electronic state is 2-A.
 Alpha  occ. eigenvalues --  -18.98476 -18.98220 -18.94251 -14.24427 -14.22606
 Alpha  occ. eigenvalues --  -10.18675 -10.15969 -10.09858 -10.08624 -10.06975
 Alpha  occ. eigenvalues --  -10.05309 -10.04991 -10.04702 -10.04449 -10.04153
 Alpha  occ. eigenvalues --   -0.95752  -0.92895  -0.88526  -0.85738  -0.79636
 Alpha  occ. eigenvalues --   -0.69298  -0.65867  -0.61951  -0.59395  -0.55807
 Alpha  occ. eigenvalues --   -0.51790  -0.49895  -0.48481  -0.44861  -0.43292
 Alpha  occ. eigenvalues --   -0.39763  -0.36872  -0.35610  -0.35234  -0.34790
 Alpha  occ. eigenvalues --   -0.33947  -0.32628  -0.31816  -0.31206  -0.29916
 Alpha  occ. eigenvalues --   -0.29504  -0.28535  -0.28064  -0.27202  -0.26570
 Alpha  occ. eigenvalues --   -0.25645  -0.24770  -0.24178  -0.22727  -0.20805
 Alpha  occ. eigenvalues --   -0.20347  -0.19712  -0.17888  -0.17608  -0.14848
 Alpha  occ. eigenvalues --   -0.13968  -0.09425   0.04939
 Alpha virt. eigenvalues --    0.07250   0.08483   0.08964   0.09499   0.09895
 Alpha virt. eigenvalues --    0.10911   0.11120   0.12134   0.12197   0.12505
 Alpha virt. eigenvalues --    0.13111   0.13641   0.14085   0.14679   0.15265

  Beta  occ. eigenvalues --  -18.98365 -18.98178 -18.93690 -14.24435 -14.22540
  Beta  occ. eigenvalues --  -10.18616 -10.15862 -10.09909 -10.08618 -10.06451
  Beta  occ. eigenvalues --  -10.05214 -10.04969 -10.04692 -10.04450 -10.04130
  Beta  occ. eigenvalues --   -0.95629  -0.92719  -0.87548  -0.85553  -0.79558
  Beta  occ. eigenvalues --   -0.69209  -0.65727  -0.61878  -0.59279  -0.55618
  Beta  occ. eigenvalues --   -0.51618  -0.49540  -0.48355  -0.44329  -0.43016
  Beta  occ. eigenvalues --   -0.39507  -0.36511  -0.35462  -0.35101  -0.34705
  Beta  occ. eigenvalues --   -0.33798  -0.32530  -0.31694  -0.30986  -0.29817
  Beta  occ. eigenvalues --   -0.29287  -0.28417  -0.27927  -0.26833  -0.26158
  Beta  occ. eigenvalues --   -0.25087  -0.24618  -0.24029  -0.21136  -0.20650
  Beta  occ. eigenvalues --   -0.20298  -0.18722  -0.17745  -0.17319  -0.14670
  Beta  occ. eigenvalues --   -0.13850  -0.09018
  Beta virt. eigenvalues --    0.07338   0.08559   0.08952   0.09542   0.09888
  Beta virt. eigenvalues --    0.10902   0.11166   0.12086   0.12192   0.12288
  Beta virt. eigenvalues --    0.13055   0.13440   0.13680   0.14403   0.14784

 Mulliken charges and spin densities:
               1          2
     1  C    0.151515  -0.789023
     2  C   -0.632641   0.382242
     3  C   -0.038958  -0.095525
     4  C    0.140197  -0.459045
     5  C   -0.195043   0.111875
     6  C   -0.193075   0.136860
     7  C   -0.279165   0.086746
     8  O   -0.348861   0.031058
     9  N   -0.273291  -0.026350
    10  C    0.385947   0.005179
    11  O   -0.428970   0.014603
    12  N    0.107854  -0.008400
    13  C   -0.115808  -0.067986
    14  C   -0.537228   0.405596
    15  O   -0.286752   0.170489
    16  H   -0.104778   0.244946
    17  H   -0.032361   0.155112
    18  H   -0.040999   0.166515
    19  H    0.233042  -0.044987
    20  H    0.048013   0.069724
    21  H    0.105650   0.080802
    22  H    0.051302   0.096779
    23  H    0.222877  -0.045298
    24  H   -0.014641   0.164167
    25  H    0.072179   0.115873
    26  H    0.180176  -0.005443
    27  H    0.327552   0.006601
    28  H    0.163071   0.014416
    29  H    0.058984   0.089455
    30  H    0.161106   0.020461
    31  H    0.113107  -0.027446
 Sum of Mulliken charges =  -1.00000   1.00000

 Dipole moment (field-independent basis, Debye):
    X=             -0.9798    Y=              1.1603    Z=             -1.4138  Tot=              2.0749
 Quadrupole moment (field-independent basis, Debye-Ang):
   XX=           -143.2982   YY=           -113.3074   ZZ=           -113.6810
   XY=             -2.8170   XZ=              0.6686   YZ=              0.5549

 Summary of Natural Population Analysis:

                                       Natural Population
                Natural  -----------------------------------------------
    Atom  No    Charge         Core      Valence    Rydberg      Total
 -----------------------------------------------------------------------
      C    1   -0.28790      0.99967     2.28325    0.00498     3.28790
      C    2   -0.20011      0.99964     2.19177    0.00871     3.20011
      C    3   -0.18993      0.99962     2.18140    0.00891     3.18993
      C    4   -0.19374      0.99962     2.18561    0.00850     3.19374
      C    5   -0.18024      0.99959     2.16965    0.01101     3.18024
      C    6   -0.00602      0.99952     1.99210    0.01441     3.00602
      C    7    0.36532      0.99962     1.60872    0.02634     2.63468
      O    8   -0.30230      0.99987     3.29660    0.00583     4.30230
      N    9   -0.33108      0.99963     2.82380    0.00764     3.83108
      C   10    0.41505      0.99967     1.56105    0.02423     2.58495
      O   11   -0.33177      0.99987     3.32684    0.00506     4.33177
      N   12   -0.24758      0.99961     2.73774    0.01023     3.74758
      C   13   -0.18176      0.99965     2.17394    0.00817     3.18176
      C   14    0.28625      0.99968     1.69027    0.02380     2.71375
      O   15   -0.24688      0.99988     3.24018    0.00682     4.24688
      H   16    0.09591      0.00000     0.40313    0.00096     0.40409
      H   17    0.09494      0.00000     0.40435    0.00071     0.40506
      H   18    0.09165      0.00000     0.40736    0.00099     0.40835
      H   19    0.11055      0.00000     0.38798    0.00147     0.38945
      H   20    0.09066      0.00000     0.40844    0.00090     0.40934
      H   21    0.10874      0.00000     0.39029    0.00097     0.39126
      H   22    0.08999      0.00000     0.40913    0.00089     0.41001
      H   23    0.10424      0.00000     0.39458    0.00118     0.39576
      H   24    0.09335      0.00000     0.40571    0.00094     0.40665
      H   25    0.09661      0.00000     0.40214    0.00124     0.40339
      H   26    0.10506      0.00000     0.39354    0.00140     0.39494
      H   27    0.19992      0.00000     0.29829    0.00179     0.30008
      H   28    0.10608      0.00000     0.39311    0.00082     0.39392
      H   29    0.08999      0.00000     0.40904    0.00098     0.41001
      H   30    0.11052      0.00000     0.38846    0.00102     0.38948
      H   31    0.04447      0.00000     0.45357    0.00195     0.45553
 =======================================================================
   * Total *   -0.00000     14.99513    41.81202    0.19284    57.00000

 Normal termination of Gaussian 16 at Thu Dec 10 15:25:52 2020.
