 Gaussian 16, Revision A.03,

 -----------------------------------------------------------
 # opt freq B3LYP/6-31G(d) empiricaldispersion=gd3bj scf=xqc
 -----------------------------------------------------------

 -----------------------------
 CID_148522975_JID_68_neutraal
 -----------------------------
 Symbolic Z-matrix:
 Charge =  0 Multiplicity = 1

 SCF Done:  E(RB3LYP) =  -405.497271283     A.U. after   14 cycles
 SCF Done:  E(RB3LYP) =  -405.500651103     A.U. after   11 cycles
 SCF Done:  E(RB3LYP) =  -405.501496738     A.U. after   11 cycles
 SCF Done:  E(RB3LYP) =  -405.502324820     A.U. after   12 cycles
 SCF Done:  E(RB3LYP) =  -405.502586991     A.U. after   11 cycles
 SCF Done:  E(RB3LYP) =  -405.502852703     A.U. after   11 cycles
 SCF Done:  E(RB3LYP) =  -405.502904236     A.U. after   11 cycles
 SCF Done:  E(RB3LYP) =  -405.502956372     A.U. after   10 cycles
 SCF Done:  E(RB3LYP) =  -405.503064986     A.U. after   11 cycles
 SCF Done:  E(RB3LYP) =  -405.503092357     A.U. after   10 cycles
 SCF Done:  E(RB3LYP) =  -405.503109540     A.U. after    9 cycles
 SCF Done:  E(RB3LYP) =  -405.503110137     A.U. after    9 cycles
 SCF Done:  E(RB3LYP) =  -405.503111360     A.U. after    9 cycles
 SCF Done:  E(RB3LYP) =  -405.503111797     A.U. after    8 cycles
 SCF Done:  E(RB3LYP) =  -405.503111845     A.U. after    7 cycles
 Optimization completed.
    -- Stationary point found.

 1\1\GINC-NODE315\FOpt\RB3LYP\6-31G(d)\C9H13N1\VSC10255\08-Dec-2020\0\\
 # opt freq B3LYP/6-31G(d) empiricaldispersion=gd3bj scf=xqc\\CID_14852
 2975_JID_68_neutraal\\0,1\C,0.8355928686,0.0988136201,0.015624998\N,0.
 4605524663,0.85776563,-1.155736071\C,0.5387520134,0.1084902078,-2.4119
 655248\C,0.0609345353,0.9406523649,-3.5743852777\C,0.118362395,2.28578
 50411,-3.5444223004\C,0.5600707843,2.9487701448,-2.3219887696\C,0.6903
 025808,2.2165546326,-1.1924383837\C,-0.2957947623,3.1533325357,-4.6860
 298893\C,-1.2503572183,2.689332993,-5.7529111286\C,-1.703546592,3.7130

 Normal termination of Gaussian 16 at Tue Dec  8 10:17:35 2020.

 --------------------------------------------------------------------
 #N Geom=AllCheck Guess=TCheck SCRF=Check GenChk RB3LYP/6-31G(d) Freq
 --------------------------------------------------------------------

 Structure from the checkpoint file:  "JID_68.chk"
 -----------------------------
 CID_148522975_JID_68_neutraal
 -----------------------------
 Charge =  0 Multiplicity = 1

 SCF Done:  E(RB3LYP) =  -405.503111845     A.U. after    1 cycles

  Exact polarizability: 132.606  -4.615  98.204  -4.302   0.684  64.306
 Approx polarizability: 170.635 -10.225 157.539 -11.365   3.902  97.515

                      1                      2                      3
                      A                      A                      A
 Frequencies --     48.0632                65.4293               149.9354
 Red. masses --      2.5701                 3.1354                 1.9892
 Frc consts  --      0.0035                 0.0079                 0.0263
 IR Inten    --      0.0574                 0.9217                 5.5398

                      4                      5                      6
                      A                      A                      A
 Frequencies --    163.5707               187.4552               230.7620
 Red. masses --      2.5513                 2.9018                 1.2756
 Frc consts  --      0.0402                 0.0601                 0.0400
 IR Inten    --      0.4408                 1.5638                 1.7288

                      7                      8                      9
                      A                      A                      A
 Frequencies --    311.6499               359.0465               385.9369
 Red. masses --      3.2834                 2.6067                 3.8280
 Frc consts  --      0.1879                 0.1980                 0.3359
 IR Inten    --      3.5040                 0.4580                10.6277

                     10                     11                     12
                      A                      A                      A
 Frequencies --    425.1293               482.8333               618.6283
 Red. masses --      2.7754                 3.1470                 4.7108
 Frc consts  --      0.2955                 0.4323                 1.0622
 IR Inten    --     11.2939                 0.3539                 0.6698

                     13                     14                     15
                      A                      A                      A
 Frequencies --    679.4175               695.3482               725.8692
 Red. masses --      3.4839                 2.7495                 1.3884
 Frc consts  --      0.9475                 0.7833                 0.4310
 IR Inten    --      3.9376                 2.2568                14.8736

                     16                     17                     18
                      A                      A                      A
 Frequencies --    782.0888               797.4095               815.7983
 Red. masses --      1.1976                 1.9391                 1.6747
 Frc consts  --      0.4316                 0.7265                 0.6567
 IR Inten    --     11.0504                 5.3616                 0.8766

                     19                     20                     21
                      A                      A                      A
 Frequencies --    841.0421               914.0801               917.1423
 Red. masses --      1.3629                 1.4439                 2.3550
 Frc consts  --      0.5680                 0.7108                 1.1671
 IR Inten    --      9.6448                 3.2477                10.3683

                     22                     23                     24
                      A                      A                      A
 Frequencies --    941.6778               980.9918              1010.1283
 Red. masses --      3.6198                 2.5438                 2.1969
 Frc consts  --      1.8912                 1.4423                 1.3208
 IR Inten    --      6.5008                19.7805                 0.7214

                     25                     26                     27
                      A                      A                      A
 Frequencies --   1062.0494              1064.6696              1081.3784
 Red. masses --      1.4850                 1.6097                 1.7476
 Frc consts  --      0.9869                 1.0751                 1.2041
 IR Inten    --      0.6730                 8.1055                44.4966

                     28                     29                     30
                      A                      A                      A
 Frequencies --   1087.0143              1127.7493              1137.8149
 Red. masses --      1.3757                 1.5102                 1.1133
 Frc consts  --      0.9577                 1.1316                 0.8492
 IR Inten    --     10.2645                 9.5429                 1.0794

                     31                     32                     33
                      A                      A                      A
 Frequencies --   1163.6348              1185.5567              1204.5908
 Red. masses --      1.3250                 2.1584                 1.3152
 Frc consts  --      1.0570                 1.7874                 1.1244
 IR Inten    --     21.1702                25.8821                 2.6210

                     34                     35                     36
                      A                      A                      A
 Frequencies --   1211.0837              1231.3387              1249.5336
 Red. masses --      1.3791                 2.2145                 1.6933
 Frc consts  --      1.1918                 1.9783                 1.5577
 IR Inten    --      1.0769                25.6004                 6.2800

                     37                     38                     39
                      A                      A                      A
 Frequencies --   1284.6727              1333.6618              1357.9441
 Red. masses --      1.3750                 1.4868                 2.0937
 Frc consts  --      1.3370                 1.5581                 2.2747
 IR Inten    --     13.2172                 3.7391                44.9324

                     40                     41                     42
                      A                      A                      A
 Frequencies --   1406.6352              1445.6635              1479.9019
 Red. masses --      1.5389                 1.8398                 1.3561
 Frc consts  --      1.7940                 2.2655                 1.7499
 IR Inten    --     14.5273                12.5319                36.3481

                     43                     44                     45
                      A                      A                      A
 Frequencies --   1492.0391              1497.2902              1510.0445
 Red. masses --      1.0893                 1.6000                 1.1242
 Frc consts  --      1.4288                 2.1134                 1.5104
 IR Inten    --      1.9025                12.3365                20.9624

                     46                     47                     48
                      A                      A                      A
 Frequencies --   1533.5164              1538.7960              1560.5530
 Red. masses --      1.4050                 1.0719                 1.2070
 Frc consts  --      1.9467                 1.4955                 1.7318
 IR Inten    --      0.6836                11.2883                 5.5994

                     49                     50                     51
                      A                      A                      A
 Frequencies --   1658.8318              1731.3586              2834.3484
 Red. masses --      4.8690                 6.3639                 1.0762
 Frc consts  --      7.8940                11.2394                 5.0937
 IR Inten    --    120.1287                82.1828               158.0717

                     52                     53                     54
                      A                      A                      A
 Frequencies --   2970.4566              3023.6761              3071.2357
 Red. masses --      1.0586                 1.0829                 1.0784
 Frc consts  --      5.5031                 5.8330                 5.9934
 IR Inten    --    119.4871                60.8796                43.8897

                     55                     56                     57
                      A                      A                      A
 Frequencies --   3129.9739              3132.9720              3146.9304
 Red. masses --      1.0861                 1.1003                 1.0519
 Frc consts  --      6.2691                 6.3632                 6.1378
 IR Inten    --     17.0085                18.7535                21.8151

                     58                     59                     60
                      A                      A                      A
 Frequencies --   3154.1408              3193.1960              3201.9754
 Red. masses --      1.0584                 1.0884                 1.0899
 Frc consts  --      6.2038                 6.5385                 6.5838
 IR Inten    --     13.7055                11.5362                11.3716

                     61                     62                     63
                      A                      A                      A
 Frequencies --   3224.0956              3226.8364              3237.8059
 Red. masses --      1.1192                 1.0949                 1.1160
 Frc consts  --      6.8542                 6.7170                 6.8929
 IR Inten    --      0.3414                14.1786                27.8986

 - Thermochemistry -
 -------------------
 Temperature   298.150 Kelvin.  Pressure   1.00000 Atm.
 Atom     1 has atomic number  6 and mass  12.00000

 Molecular mass:   135.10480 amu.
 Principal axes and moments of inertia in atomic units:
                           1         2         3
     Eigenvalues --   492.552882404.862482699.11312
           X            0.99999  -0.00344  -0.00020
           Y            0.00344   0.99999   0.00075
           Z            0.00019  -0.00075   1.00000
 This molecule is an asymmetric top.
 Rotational symmetry number  1.
 Warning -- assumption of classical behavior for rotation
           may cause significant error
 Rotational temperatures (Kelvin)      0.17585     0.03602     0.03209
 Rotational constants (GHZ):           3.66406     0.75046     0.66864
 Zero-point vibrational energy     530629.9 (Joules/Mol)
                                  126.82360 (Kcal/Mol)
 Warning -- explicit consideration of  12 degrees of freedom as
           vibrations may cause significant error
 Vibrational temperatures:     69.15    94.14   215.72   235.34   269.71
          (Kelvin)            332.01   448.39   516.59   555.28   611.67
                              694.69   890.07   977.53  1000.45  1044.36
                             1125.25  1147.29  1173.75  1210.07  1315.16
                             1319.56  1354.86  1411.43  1453.35  1528.05
                             1531.82  1555.86  1563.97  1622.58  1637.06
                             1674.21  1705.75  1733.14  1742.48  1771.62
                             1797.80  1848.36  1918.84  1953.78  2023.83
                             2079.99  2129.25  2146.71  2154.27  2172.62
                             2206.39  2213.98  2245.29  2386.69  2491.04
                             4078.00  4273.82  4350.40  4418.82  4503.33
                             4507.65  4527.73  4538.11  4594.30  4606.93
                             4638.75  4642.70  4658.48

 Zero-point correction=                           0.202106 (Hartree/Particle)
 Thermal correction to Energy=                    0.211891
 Thermal correction to Enthalpy=                  0.212835
 Thermal correction to Gibbs Free Energy=         0.166623
 Sum of electronic and zero-point Energies=           -405.301006
 Sum of electronic and thermal Energies=              -405.291221
 Sum of electronic and thermal Enthalpies=            -405.290277
 Sum of electronic and thermal Free Energies=         -405.336489

                     E (Thermal)             CV                S
                      KCal/Mol        Cal/Mol-Kelvin    Cal/Mol-Kelvin
 Total                  132.964             37.061             97.261
 Electronic               0.000              0.000              0.000
 Translational            0.889              2.981             40.615
 Rotational               0.889              2.981             29.548
 Vibrational            131.186             31.099             27.098
 Vibration     1          0.595              1.978              4.896
 Vibration     2          0.597              1.971              4.286
 Vibration     3          0.618              1.903              2.673
 Vibration     4          0.623              1.887              2.508
 Vibration     5          0.632              1.857              2.253
 Vibration     6          0.652              1.794              1.873
 Vibration     7          0.700              1.651              1.354
 Vibration     8          0.734              1.557              1.126
 Vibration     9          0.755              1.500              1.016
 Vibration    10          0.787              1.416              0.875
 Vibration    11          0.839              1.288              0.702
 Vibration    12          0.978              0.993              0.419

 Optimization completed.
    -- Stationary point found.

 1\1\GINC-NODE315\Freq\RB3LYP\6-31G(d)\C9H13N1\VSC10255\08-Dec-2020\0\\
 #N Geom=AllCheck Guess=TCheck SCRF=Check GenChk RB3LYP/6-31G(d) Freq\\
 CID_148522975_JID_68_neutraal\\0,1\C,0.8355928686,0.0988136201,0.01562
 4998\N,0.4605524663,0.85776563,-1.155736071\C,0.5387520134,0.108490207
 8,-2.4119655248\C,0.0609345353,0.9406523649,-3.5743852777\C,0.11836239
 5,2.2857850411,-3.5444223004\C,0.5600707843,2.9487701448,-2.3219887696
 \C,0.6903025808,2.2165546326,-1.1924383837\C,-0.2957947623,3.153332535
 7,-4.6860298893\C,-1.2503572183,2.689332993,-5.7529111286\C,-1.7035465

 Normal termination of Gaussian 16 at Tue Dec  8 10:21:19 2020.

 ----------------------------------------------------------------------
 # B3LYP/6-311++G(d,p) empiricaldispersion=gd3bj scf=xqc pop=npa geom=c
 heck
 ----------------------------------------------------------------------

 -------------------------------------
 CID_148522975_JID_68_Energie_neutraal
 -------------------------------------
 Structure from the checkpoint file:  "JID_68.chk"
 Charge =  0 Multiplicity = 1

 SCF Done:  E(RB3LYP) =  -405.613415998     A.U. after   14 cycles
 Normal termination of Gaussian 16 at Tue Dec  8 10:22:38 2020.

 ----------------------------------------------------------------------
 # B3LYP/6-311++G(d,p) empiricaldispersion=gd3bj scf=xqc pop=npa geom=c
 heck
 ----------------------------------------------------------------------

 -----------------------------------
 CID_148522975_JID_68_Energie_kation
 -----------------------------------
 Structure from the checkpoint file:  "JID_68.chk"
 Charge =  1 Multiplicity = 2

 SCF Done:  E(UB3LYP) =  -405.365009496     A.U. after   19 cycles
 Normal termination of Gaussian 16 at Tue Dec  8 10:24:58 2020.
 Gaussian 16:  ES64L-G16RevA.03 25-Dec-2016

 ----------------------------------
 CID_148522975_JID_68_Energie_anion
 ----------------------------------
 Structure from the checkpoint file:  "JID_68.chk"
 Charge = -1 Multiplicity = 2

                         Standard orientation:
 ---------------------------------------------------------------------
 Center     Atomic      Atomic             Coordinates (Angstroms)
 Number     Number       Type             X           Y           Z
 ---------------------------------------------------------------------
      1          6           0       -3.487724    0.038469    0.370107
      2          7           0       -2.048485   -0.019872    0.252049
      3          6           0       -1.426499    1.232804   -0.183356
      4          6           0        0.076078    1.116031   -0.208803
      5          6           0        0.684320   -0.074171   -0.373238
      6          6           0       -0.129605   -1.283936   -0.427946
      7          6           0       -1.438707   -1.205771   -0.097602
      8          6           0        2.165571   -0.237747   -0.454296
      9          6           0        3.125585    0.771462    0.115433
     10          6           0        2.961200   -0.566799    0.793404
     11          1           0       -3.771106    0.794519    1.112162
     12          1           0       -3.876533   -0.928676    0.700400
     13          1           0       -3.973056    0.305528   -0.585656
     14          1           0       -1.823143    1.524022   -1.183772
     15          1           0       -1.747199    2.026425    0.506206
     16          1           0        0.646309    2.038476   -0.163196
     17          1           0        0.330945   -2.246252   -0.617211
     18          1           0       -2.069668   -2.087122   -0.022604
     19          1           0        2.498055   -0.754733   -1.354670
     20          1           0        4.044608    0.965900   -0.430153
     21          1           0        2.716914    1.641399    0.620134
     22          1           0        2.416241   -0.589082    1.732737
     23          1           0        3.765712   -1.293344    0.719057
 ---------------------------------------------------------------------

 SCF Done:  E(UB3LYP) =  -405.596056571     A.U. after   33 cycles
 SCF Done:  E(UB3LYP) =  -405.596056571     a.u. after    1 cycles

 The electronic state is 2-A.
 Alpha  occ. eigenvalues --  -14.22538 -10.09663 -10.09394 -10.08749 -10.07869
 Alpha  occ. eigenvalues --  -10.07193 -10.07125 -10.06838 -10.05068 -10.04149
 Alpha  occ. eigenvalues --   -0.84538  -0.76345  -0.69306  -0.64986  -0.60081
 Alpha  occ. eigenvalues --   -0.53283  -0.52226  -0.49912  -0.46860  -0.41096
 Alpha  occ. eigenvalues --   -0.39210  -0.38562  -0.36469  -0.35649  -0.34765
 Alpha  occ. eigenvalues --   -0.30949  -0.30090  -0.28940  -0.28456  -0.26773
 Alpha  occ. eigenvalues --   -0.25262  -0.23687  -0.22424  -0.20212  -0.19407
 Alpha  occ. eigenvalues --   -0.15126  -0.07205   0.04760
 Alpha virt. eigenvalues --    0.06363   0.07666   0.08355   0.08737   0.08929
 Alpha virt. eigenvalues --    0.09264   0.10133   0.11260   0.11517   0.11848
 Alpha virt. eigenvalues --    0.12667   0.13542   0.14349   0.14553   0.16096

  Beta  occ. eigenvalues --  -14.22541 -10.09635 -10.09365 -10.08691 -10.07864
  Beta  occ. eigenvalues --  -10.07179 -10.07108 -10.06840 -10.05022 -10.04133
  Beta  occ. eigenvalues --   -0.84520  -0.76324  -0.69262  -0.64920  -0.60014
  Beta  occ. eigenvalues --   -0.53224  -0.52154  -0.49858  -0.46812  -0.41049
  Beta  occ. eigenvalues --   -0.39151  -0.38502  -0.36432  -0.35602  -0.34717
  Beta  occ. eigenvalues --   -0.30907  -0.30035  -0.28893  -0.28394  -0.26748
  Beta  occ. eigenvalues --   -0.25227  -0.23642  -0.22363  -0.20170  -0.19382
  Beta  occ. eigenvalues --   -0.15037  -0.07103
  Beta virt. eigenvalues --    0.06936   0.07703   0.08176   0.08664   0.09134
  Beta virt. eigenvalues --    0.09513   0.09854   0.10842   0.11623   0.12077
  Beta virt. eigenvalues --    0.12121   0.13161   0.13741   0.14539   0.15036

 Mulliken charges and spin densities:
               1          2
     1  C    1.464469  -1.760306
     2  N   -0.201452   0.362421
     3  C    1.479599  -2.334658
     4  C   -3.117747   3.253182
     5  C    2.190715  -1.778013
     6  C    0.790453  -0.882978
     7  C   -0.475805   0.076596
     8  C   -0.986255   0.846940
     9  C    0.538074  -0.784230
    10  C    0.485448  -1.110169
    11  H   -0.595303   0.745770
    12  H   -0.537227   0.672731
    13  H   -0.509082   0.648142
    14  H   -0.141554   0.265133
    15  H    0.053188   0.111458
    16  H   -0.356041   0.522368
    17  H   -0.085211   0.250124
    18  H   -0.543315   0.687309
    19  H   -0.220361   0.443282
    20  H   -0.301379   0.447571
    21  H    0.190475  -0.087851
    22  H    0.020404   0.128763
    23  H   -0.142094   0.276413
 Sum of Mulliken charges =  -1.00000   1.00000

 Dipole moment (field-independent basis, Debye):
    X=              4.6747    Y=              0.6877    Z=              0.4092  Tot=              4.7427
 Quadrupole moment (field-independent basis, Debye-Ang):
   XX=           -147.6953   YY=            -95.5946   ZZ=            -90.7494
   XY=              1.0249   XZ=              3.2181   YZ=              0.5396

 Summary of Natural Population Analysis:

                                       Natural Population
                Natural  -----------------------------------------------
    Atom  No    Charge         Core      Valence    Rydberg      Total
 -----------------------------------------------------------------------
      C    1   -0.17155      0.99964     2.16273    0.00918     3.17155
      N    2   -0.24575      0.99968     2.73372    0.01235     3.74575
      C    3   -0.08781      0.99961     2.07630    0.01190     3.08781
      C    4   -0.10416      0.99948     2.09509    0.00959     3.10416
      C    5   -0.02156      0.99947     2.01095    0.01114     3.02156
      C    6   -0.16757      0.99952     2.15706    0.01099     3.16757
      C    7    0.04139      0.99952     1.94635    0.01274     2.95861
      C    8   -0.11926      0.99956     2.10796    0.01174     3.11926
      C    9   -0.19825      0.99963     2.19064    0.00799     3.19825
      C   10   -0.19299      0.99962     2.18564    0.00773     3.19299
      H   11    0.09685      0.00000     0.40089    0.00226     0.40315
      H   12    0.09981      0.00000     0.39786    0.00233     0.40019
      H   13    0.08805      0.00000     0.40825    0.00370     0.41195
      H   14    0.07928      0.00000     0.41909    0.00163     0.42072
      H   15    0.09612      0.00000     0.40192    0.00196     0.40388
      H   16    0.09596      0.00000     0.40296    0.00109     0.40404
      H   17    0.10277      0.00000     0.39615    0.00108     0.39723
      H   18    0.09656      0.00000     0.40202    0.00142     0.40344
      H   19    0.10626      0.00000     0.39246    0.00129     0.39374
      H   20    0.10147      0.00000     0.39744    0.00109     0.39853
      H   21    0.10188      0.00000     0.39705    0.00107     0.39812
      H   22    0.10259      0.00000     0.39644    0.00097     0.39741
      H   23    0.09992      0.00000     0.39879    0.00129     0.40008
 =======================================================================
   * Total *    0.00000      9.99573    26.87775    0.12652    37.00000

 Normal termination of Gaussian 16 at Tue Dec  8 10:28:57 2020.
