 Gaussian 16, Revision A.03,

 -----------------------------------------------------------
 # opt freq B3LYP/6-31G(d) empiricaldispersion=gd3bj scf=xqc
 -----------------------------------------------------------

 --------------------------------
 CID_154021792_JID_10580_neutraal
 --------------------------------
 Symbolic Z-matrix:
 Charge =  0 Multiplicity = 1

 SCF Done:  E(RB3LYP) =  -928.467088446     A.U. after   14 cycles
 SCF Done:  E(RB3LYP) =  -928.481685840     A.U. after   13 cycles
 SCF Done:  E(RB3LYP) =  -928.485115864     A.U. after   13 cycles
 SCF Done:  E(RB3LYP) =  -928.487105426     A.U. after   13 cycles
 SCF Done:  E(RB3LYP) =  -928.487714180     A.U. after   12 cycles
 SCF Done:  E(RB3LYP) =  -928.488067705     A.U. after   11 cycles
 SCF Done:  E(RB3LYP) =  -928.488330222     A.U. after   12 cycles
 SCF Done:  E(RB3LYP) =  -928.488492330     A.U. after   12 cycles
 SCF Done:  E(RB3LYP) =  -928.488640223     A.U. after   12 cycles
 SCF Done:  E(RB3LYP) =  -928.488745888     A.U. after   11 cycles
 SCF Done:  E(RB3LYP) =  -928.488798536     A.U. after    9 cycles
 SCF Done:  E(RB3LYP) =  -928.488801226     A.U. after    9 cycles
 SCF Done:  E(RB3LYP) =  -928.488802465     A.U. after    8 cycles
 SCF Done:  E(RB3LYP) =  -928.488802797     A.U. after    8 cycles
 SCF Done:  E(RB3LYP) =  -928.488802933     A.U. after    7 cycles
 SCF Done:  E(RB3LYP) =  -928.488802974     A.U. after    7 cycles
 Optimization completed.
    -- Stationary point found.
 Normal termination of Gaussian 16 at Sun Dec 13 20:52:57 2020.

 --------------------------------------------------------------------
 #N Geom=AllCheck Guess=TCheck SCRF=Check GenChk RB3LYP/6-31G(d) Freq
 --------------------------------------------------------------------

 Structure from the checkpoint file:  "JID_10580.chk"
 --------------------------------
 CID_154021792_JID_10580_neutraal
 --------------------------------
 Charge =  0 Multiplicity = 1

 SCF Done:  E(RB3LYP) =  -928.488802974     A.U. after    1 cycles

  Exact polarizability: 242.910  -6.349 205.520   6.794   5.790 119.402
 Approx polarizability: 333.373 -15.064 315.666  20.750  13.492 180.359

                      1                      2                      3
                      A                      A                      A
 Frequencies --     26.1376                33.6245                39.5458
 Red. masses --      3.7768                 3.3607                 2.8533
 Frc consts  --      0.0015                 0.0022                 0.0026
 IR Inten    --      0.1891                 0.2386                 0.2181

                      4                      5                      6
                      A                      A                      A
 Frequencies --     51.7904                62.2588                84.9824
 Red. masses --      2.4266                 2.3696                 2.4181
 Frc consts  --      0.0038                 0.0054                 0.0103
 IR Inten    --      0.3471                 0.4475                 3.0744

                      7                      8                      9
                      A                      A                      A
 Frequencies --     88.2268               109.2270               116.4182
 Red. masses --      3.3352                 3.1579                 3.2298
 Frc consts  --      0.0153                 0.0222                 0.0258
 IR Inten    --      3.5593                 0.3507                 0.5680

                     10                     11                     12
                      A                      A                      A
 Frequencies --    132.6639               169.1674               210.9489
 Red. masses --      2.5226                 4.4582                 2.2856
 Frc consts  --      0.0262                 0.0752                 0.0599
 IR Inten    --      1.9508                 0.8829                 6.4151

                     13                     14                     15
                      A                      A                      A
 Frequencies --    221.5380               236.4705               244.2503
 Red. masses --      1.3196                 1.5694                 3.0684
 Frc consts  --      0.0382                 0.0517                 0.1079
 IR Inten    --     32.3738                 1.8616                12.1865

                     16                     17                     18
                      A                      A                      A
 Frequencies --    265.7548               271.3175               276.9103
 Red. masses --      1.3616                 1.3260                 2.2212
 Frc consts  --      0.0567                 0.0575                 0.1004
 IR Inten    --      4.8859                 3.9099                 6.9450

                     19                     20                     21
                      A                      A                      A
 Frequencies --    291.8608               305.1501               313.1131
 Red. masses --      3.6650                 2.1264                 2.7274
 Frc consts  --      0.1839                 0.1167                 0.1575
 IR Inten    --      5.1116                 2.1432                 1.2527

                     22                     23                     24
                      A                      A                      A
 Frequencies --    332.3007               364.7782               398.1254
 Red. masses --      2.7455                 3.7105                 4.1908
 Frc consts  --      0.1786                 0.2909                 0.3914
 IR Inten    --     19.1396                35.8993                 0.2624

                     25                     26                     27
                      A                      A                      A
 Frequencies --    422.9408               426.3463               451.7003
 Red. masses --      3.1103                 2.7457                 2.5913
 Frc consts  --      0.3278                 0.2941                 0.3115
 IR Inten    --      9.7140                10.7286                 8.6533

                     28                     29                     30
                      A                      A                      A
 Frequencies --    496.7801               505.5982               521.4133
 Red. masses --      1.5097                 2.7555                 2.7322
 Frc consts  --      0.2195                 0.4150                 0.4376
 IR Inten    --    109.9517                94.8584                24.4744

                     31                     32                     33
                      A                      A                      A
 Frequencies --    527.9060               557.8449               578.8094
 Red. masses --      2.4873                 5.2639                 4.2819
 Frc consts  --      0.4084                 0.9651                 0.8452
 IR Inten    --    150.6699                36.3211                10.3822

                     34                     35                     36
                      A                      A                      A
 Frequencies --    611.0256               648.6389               687.4332
 Red. masses --      4.2178                 5.1879                 5.0665
 Frc consts  --      0.9278                 1.2860                 1.4106
 IR Inten    --     14.9417                 9.5733                12.4407

                     37                     38                     39
                      A                      A                      A
 Frequencies --    710.0837               721.4373               753.7883
 Red. masses --      3.8998                 5.5582                 2.3519
 Frc consts  --      1.1585                 1.7044                 0.7874
 IR Inten    --     16.8004                15.2325                36.7811

                     40                     41                     42
                      A                      A                      A
 Frequencies --    768.2426               786.6824               815.5833
 Red. masses --      2.1069                 7.9054                 1.1479
 Frc consts  --      0.7326                 2.8825                 0.4499
 IR Inten    --     16.7154                19.0079                 1.4151

                     43                     44                     45
                      A                      A                      A
 Frequencies --    816.2868               829.5049               868.0214
 Red. masses --      1.1329                 2.0669                 3.0210
 Frc consts  --      0.4448                 0.8379                 1.3411
 IR Inten    --      1.2996                39.1392                44.9741

                     46                     47                     48
                      A                      A                      A
 Frequencies --    892.8473               914.0958               925.4300
 Red. masses --      4.7184                 2.1032                 1.8961
 Frc consts  --      2.2162                 1.0354                 0.9567
 IR Inten    --      3.0482                 7.8857                 1.1057

                     49                     50                     51
                      A                      A                      A
 Frequencies --    938.7064               967.4005              1004.7708
 Red. masses --      1.9152                 1.5616                 2.6878
 Frc consts  --      0.9943                 0.8611                 1.5988
 IR Inten    --      4.3205                 0.5708                48.6917

                     52                     53                     54
                      A                      A                      A
 Frequencies --   1039.4766              1061.8155              1083.0713
 Red. masses --      3.8718                 3.2146                 2.7777
 Frc consts  --      2.4649                 2.1354                 1.9197
 IR Inten    --      7.7268                13.5607                 2.4697

                     55                     56                     57
                      A                      A                      A
 Frequencies --   1097.7264              1103.9165              1141.2273
 Red. masses --      2.4958                 2.8131                 2.7630
 Frc consts  --      1.7720                 2.0198                 2.1202
 IR Inten    --     31.8889               131.3876                26.3072

                     58                     59                     60
                      A                      A                      A
 Frequencies --   1151.9341              1166.2671              1166.7332
 Red. masses --      2.2754                 3.7690                 1.6202
 Frc consts  --      1.7790                 3.0204                 1.2994
 IR Inten    --     13.9889               211.0237                10.1454

                     61                     62                     63
                      A                      A                      A
 Frequencies --   1169.7700              1188.7086              1210.6124
 Red. masses --      1.5474                 2.7783                 2.9295
 Frc consts  --      1.2475                 2.3130                 2.5296
 IR Inten    --      9.5469                12.7257                31.5009

                     64                     65                     66
                      A                      A                      A
 Frequencies --   1246.6667              1278.0050              1290.6651
 Red. masses --      2.4984                 2.2630                 2.8495
 Frc consts  --      2.2878                 2.1777                 2.7967
 IR Inten    --    175.1225                54.2933                86.6540

                     67                     68                     69
                      A                      A                      A
 Frequencies --   1301.2303              1305.2538              1339.5617
 Red. masses --      1.2526                 1.2703                 1.1875
 Frc consts  --      1.2496                 1.2751                 1.2555
 IR Inten    --     23.9098                68.2122                67.3275

                     70                     71                     72
                      A                      A                      A
 Frequencies --   1355.5124              1363.0911              1371.7586
 Red. masses --      1.5562                 1.4650                 1.5332
 Frc consts  --      1.6846                 1.6037                 1.6998
 IR Inten    --     71.4241                90.0755                31.5821

                     73                     74                     75
                      A                      A                      A
 Frequencies --   1395.3326              1408.1164              1423.6432
 Red. masses --      1.5337                 1.3585                 1.6693
 Frc consts  --      1.7593                 1.5871                 1.9933
 IR Inten    --     20.4226                 3.0505                10.6411

                     76                     77                     78
                      A                      A                      A
 Frequencies --   1434.5110              1443.9870              1445.1327
 Red. masses --      1.2644                 1.3347                 1.4393
 Frc consts  --      1.5329                 1.6397                 1.7710
 IR Inten    --     11.4459                24.0608                 3.6357

                     79                     80                     81
                      A                      A                      A
 Frequencies --   1451.3565              1484.3096              1509.9969
 Red. masses --      1.9955                 2.1561                 1.7429
 Frc consts  --      2.4766                 2.7987                 2.3414
 IR Inten    --    114.3610                58.9612                29.4632

                     82                     83                     84
                      A                      A                      A
 Frequencies --   1512.1041              1518.3389              1523.0074
 Red. masses --      1.3111                 1.0740                 1.2767
 Frc consts  --      1.7663                 1.4588                 1.7448
 IR Inten    --     96.8968                 6.9671               148.8171

                     85                     86                     87
                      A                      A                      A
 Frequencies --   1523.9748              1527.7590              1530.0312
 Red. masses --      1.0767                 1.0821                 1.1791
 Frc consts  --      1.4733                 1.4880                 1.6263
 IR Inten    --     15.9769                59.9413               122.0973

                     88                     89                     90
                      A                      A                      A
 Frequencies --   1530.8066              1536.4450              1541.3559
 Red. masses --      1.0580                 1.8789                 1.1087
 Frc consts  --      1.4608                 2.6133                 1.5519
 IR Inten    --     11.7863               267.2633                85.2669

                     91                     92                     93
                      A                      A                      A
 Frequencies --   1549.8661              1555.3537              1583.5721
 Red. masses --      1.0956                 1.1273                 3.4551
 Frc consts  --      1.5506                 1.6067                 5.1049
 IR Inten    --     14.2678                 8.0250               296.9094

                     94                     95                     96
                      A                      A                      A
 Frequencies --   1619.9656              1643.8994              1697.2774
 Red. masses --      7.4683                 5.1164                 8.6350
 Frc consts  --     11.5474                 8.1464                14.6561
 IR Inten    --    378.3589               262.0142                54.1624

                     97                     98                     99
                      A                      A                      A
 Frequencies --   2995.6867              3017.8039              3038.6792
 Red. masses --      1.0750                 1.0740                 1.0428
 Frc consts  --      5.6842                 5.7629                 5.6732
 IR Inten    --     57.5454                41.3014                24.8595

                    100                    101                    102
                      A                      A                      A
 Frequencies --   3046.8332              3047.2931              3047.6975
 Red. masses --      1.0395                 1.0415                 1.0679
 Frc consts  --      5.6853                 5.6984                 5.8444
 IR Inten    --     36.4389                15.6498                70.4206

                    103                    104                    105
                      A                      A                      A
 Frequencies --   3095.4571              3102.0917              3105.7544
 Red. masses --      1.1002                 1.0914                 1.0926
 Frc consts  --      6.2113                 6.1876                 6.2092
 IR Inten    --     45.3305                 3.7326                 7.1721

                    106                    107                    108
                      A                      A                      A
 Frequencies --   3122.2045              3126.9845              3133.4952
 Red. masses --      1.0947                 1.0943                 1.1031
 Frc consts  --      6.2873                 6.3042                 6.3816
 IR Inten    --     40.6251                33.8334                29.9486

                    109                    110                    111
                      A                      A                      A
 Frequencies --   3136.5318              3138.4118              3145.7383
 Red. masses --      1.1032                 1.0916                 1.0903
 Frc consts  --      6.3943                 6.3350                 6.3571
 IR Inten    --     26.3452                19.1058                27.3774

                    112                    113                    114
                      A                      A                      A
 Frequencies --   3152.3938              3504.8858              3580.0728
 Red. masses --      1.0999                 1.0735                 1.0755
 Frc consts  --      6.4400                 7.7697                 8.1219
 IR Inten    --     19.4972                 1.2234                 7.5430

                    115                    116                    117
                      A                      A                      A
 Frequencies --   3604.5384              3612.7070              3745.3935
 Red. masses --      1.0759                 1.0759                 1.0652
 Frc consts  --      8.2359                 8.2737                 8.8038
 IR Inten    --     14.9610                27.4686                43.8153

 - Thermochemistry -
 -------------------
 Temperature   298.150 Kelvin.  Pressure   1.00000 Atm.
 Atom     1 has atomic number  6 and mass  12.00000

 Molecular mass:   279.18076 amu.
 Principal axes and moments of inertia in atomic units:
                           1         2         3
     Eigenvalues --  4531.365888310.79030**********
           X            0.99998   0.00052  -0.00606
           Y           -0.00054   0.99999  -0.00343
           Z            0.00605   0.00343   0.99998
 This molecule is an asymmetric top.
 Rotational symmetry number  1.
 Warning -- assumption of classical behavior for rotation
           may cause significant error
 Rotational temperatures (Kelvin)      0.01911     0.01042     0.00742
 Rotational constants (GHZ):           0.39828     0.21716     0.15455
 Zero-point vibrational energy     915859.1 (Joules/Mol)
                                  218.89557 (Kcal/Mol)
 Warning -- explicit consideration of  34 degrees of freedom as
           vibrations may cause significant error
 Vibrational temperatures:     37.61    48.38    56.90    74.51    89.58
          (Kelvin)            122.27   126.94   157.15   167.50   190.87
                              243.39   303.51   318.74   340.23   351.42
                              382.36   390.37   398.41   419.92   439.04
                              450.50   478.11   524.83   572.81   608.52
                              613.42   649.90   714.76   727.44   750.20
                              759.54   802.61   832.78   879.13   933.25
                              989.06  1021.65  1037.99  1084.53  1105.33
                             1131.86  1173.44  1174.45  1193.47  1248.89
                             1284.61  1315.18  1331.49  1350.59  1391.87
                             1445.64  1495.57  1527.72  1558.30  1579.38
                             1588.29  1641.97  1657.38  1678.00  1678.67
                             1683.04  1710.29  1741.80  1793.68  1838.76
                             1856.98  1872.18  1877.97  1927.33  1950.28
                             1961.18  1973.65  2007.57  2025.97  2048.30
                             2063.94  2077.58  2079.22  2088.18  2135.59
                             2172.55  2175.58  2184.55  2191.27  2192.66
                             2198.10  2201.37  2202.49  2210.60  2217.67
                             2229.91  2237.81  2278.41  2330.77  2365.20
                             2442.00  4310.13  4341.95  4371.98  4383.71
                             4384.38  4384.96  4453.67  4463.22  4468.49
                             4492.16  4499.03  4508.40  4512.77  4515.47
                             4526.02  4535.59  5042.75  5150.93  5186.13
                             5197.88  5388.79

 Zero-point correction=                           0.348832 (Hartree/Particle)
 Thermal correction to Energy=                    0.369847
 Thermal correction to Enthalpy=                  0.370791
 Thermal correction to Gibbs Free Energy=         0.297824
 Sum of electronic and zero-point Energies=           -928.139971
 Sum of electronic and thermal Energies=              -928.118956
 Sum of electronic and thermal Enthalpies=            -928.118012
 Sum of electronic and thermal Free Energies=         -928.190979

                     E (Thermal)             CV                S
                      KCal/Mol        Cal/Mol-Kelvin    Cal/Mol-Kelvin
 Total                  232.083             78.421            153.572
 Electronic               0.000              0.000              0.000
 Translational            0.889              2.981             42.778
 Rotational               0.889              2.981             34.441
 Vibrational            230.305             72.459             76.353
 Vibration     1          0.593              1.985              6.103
 Vibration     2          0.594              1.983              5.603
 Vibration     3          0.594              1.981              5.282
 Vibration     4          0.596              1.977              4.748
 Vibration     5          0.597              1.972              4.384
 Vibration     6          0.601              1.960              3.772
 Vibration     7          0.601              1.957              3.699
 Vibration     8          0.606              1.942              3.283
 Vibration     9          0.608              1.936              3.159
 Vibration    10          0.613              1.921              2.907
 Vibration    11          0.625              1.880              2.445
 Vibration    12          0.643              1.824              2.035
 Vibration    13          0.648              1.808              1.946
 Vibration    14          0.655              1.785              1.829
 Vibration    15          0.660              1.772              1.772
 Vibration    16          0.672              1.736              1.624
 Vibration    17          0.675              1.726              1.588
 Vibration    18          0.678              1.716              1.553
 Vibration    19          0.687              1.689              1.463
 Vibration    20          0.696              1.664              1.388
 Vibration    21          0.701              1.649              1.346
 Vibration    22          0.714              1.611              1.249
 Vibration    23          0.738              1.545              1.102
 Vibration    24          0.764              1.474              0.970
 Vibration    25          0.785              1.420              0.882
 Vibration    26          0.788              1.413              0.871
 Vibration    27          0.810              1.357              0.791
 Vibration    28          0.852              1.257              0.666
 Vibration    29          0.861              1.238              0.644
 Vibration    30          0.876              1.203              0.607
 Vibration    31          0.883              1.188              0.592
 Vibration    32          0.913              1.123              0.528
 Vibration    33          0.935              1.077              0.488
 Vibration    34          0.970              1.008              0.431

 Optimization completed.
    -- Stationary point found.
 Normal termination of Gaussian 16 at Sun Dec 13 21:11:37 2020.

 ----------------------------------------------------------------------
 # B3LYP/6-311++G(d,p) empiricaldispersion=gd3bj scf=xqc pop=npa geom=c
 heck
 ----------------------------------------------------------------------

 ----------------------------------------
 CID_154021792_JID_10580_Energie_neutraal
 ----------------------------------------
 Structure from the checkpoint file:  "JID_10580.chk"
 Charge =  0 Multiplicity = 1

 SCF Done:  E(RB3LYP) =  -928.761421808     A.U. after   16 cycles
 Normal termination of Gaussian 16 at Sun Dec 13 21:19:36 2020.

 ----------------------------------------------------------------------
 # B3LYP/6-311++G(d,p) empiricaldispersion=gd3bj scf=xqc pop=npa geom=c
 heck
 ----------------------------------------------------------------------

 --------------------------------------
 CID_154021792_JID_10580_Energie_kation
 --------------------------------------
 Structure from the checkpoint file:  "JID_10580.chk"
 Charge =  1 Multiplicity = 2

 SCF Done:  E(UB3LYP) =  -928.507146900     A.U. after   24 cycles
 Normal termination of Gaussian 16 at Sun Dec 13 21:35:34 2020.
 Gaussian 16:  ES64L-G16RevA.03 25-Dec-2016

 ----------------------------------------------------------------------
 # B3LYP/6-311++G(d,p) empiricaldispersion=gd3bj scf=xqc pop=npa geom=c
 heck
 ----------------------------------------------------------------------

 -------------------------------------
 CID_154021792_JID_10580_Energie_anion
 -------------------------------------
 Structure from the checkpoint file:  "JID_10580.chk"
 Charge = -1 Multiplicity = 2

                         Standard orientation:
 ---------------------------------------------------------------------
 Center     Atomic      Atomic             Coordinates (Angstroms)
 Number     Number       Type             X           Y           Z
 ---------------------------------------------------------------------
      1          6           0        1.356691    4.936506    0.370376
      2          6           0        1.767439    3.471548    0.462172
      3          7           0        0.692718    2.616682   -0.033177
      4          6           0        0.868532    1.257477   -0.131559
      5          7           0        2.077932    0.752748    0.074686
      6          6           0        2.235858   -0.591313   -0.055875
      7          7           0        1.278523   -1.477967   -0.317731
      8          6           0        0.049486   -0.948561   -0.527564
      9          6           0       -0.229306    0.412207   -0.475462
     10          7           0       -1.504063    0.844207   -0.809896
     11          6           0       -2.629726   -0.052641   -0.558011
     12          7           0       -2.291900   -1.420343   -0.964323
     13          6           0       -1.067505   -1.808089   -0.890374
     14          7           0       -3.024140    0.066450    0.828610
     15          6           0       -4.250079   -0.604913    1.278437
     16          6           0       -4.149906   -2.119286    1.488545
     17          8           0       -3.723458    0.379950   -1.318176
     18          7           0        3.523117   -1.040653    0.096316
     19          6           0        3.828242   -2.448793    0.287432
     20          6           0        5.335860   -2.674305    0.244468
     21          1           0        1.124342    5.213472   -0.663163
     22          1           0        2.165600    5.581178    0.727855
     23          1           0        0.472863    5.143754    0.987440
     24          1           0        2.651789    3.274052   -0.148761
     25          1           0        2.037780    3.205006    1.495029
     26          1           0       -0.237539    2.914675    0.233277
     27          1           0       -1.751048    1.813073   -0.659390
     28          1           0       -0.838005   -2.847617   -1.131402
     29          1           0       -2.230947   -0.191302    1.412978
     30          1           0       -4.546362   -0.121559    2.218256
     31          1           0       -5.022423   -0.370608    0.543001
     32          1           0       -3.343724   -2.365496    2.192066
     33          1           0       -5.085925   -2.511254    1.905293
     34          1           0       -3.940367   -2.628408    0.544763
     35          1           0       -3.672472   -0.115945   -2.151166
     36          1           0        4.140574   -0.365557    0.526752
     37          1           0        3.410688   -2.823084    1.236278
     38          1           0        3.330288   -3.008246   -0.508955
     39          1           0        5.844716   -2.119483    1.043117
     40          1           0        5.567696   -3.735529    0.379839
     41          1           0        5.751321   -2.347603   -0.714614
 ---------------------------------------------------------------------

 SCF Done:  E(UB3LYP) =  -928.773188782     A.U. after   31 cycles

 The electronic state is 2-A.
 Alpha  occ. eigenvalues --  -18.99688 -14.20380 -14.19390 -14.18291 -14.17301
 Alpha  occ. eigenvalues --  -14.14349 -14.13917 -14.12445 -10.16805 -10.11287
 Alpha  occ. eigenvalues --  -10.09588 -10.09530 -10.09210 -10.07636 -10.07564
 Alpha  occ. eigenvalues --  -10.07557 -10.05195 -10.04138 -10.03826 -10.03153
 Alpha  occ. eigenvalues --   -0.92855  -0.85836  -0.82434  -0.81045  -0.77242
 Alpha  occ. eigenvalues --   -0.75818  -0.73487  -0.71843  -0.66349  -0.64793
 Alpha  occ. eigenvalues --   -0.62640  -0.59802  -0.54196  -0.53407  -0.51769
 Alpha  occ. eigenvalues --   -0.50681  -0.48808  -0.48181  -0.44793  -0.43710
 Alpha  occ. eigenvalues --   -0.40007  -0.38720  -0.37451  -0.37124  -0.36021
 Alpha  occ. eigenvalues --   -0.35824  -0.34927  -0.34103  -0.32847  -0.32428
 Alpha  occ. eigenvalues --   -0.30574  -0.30322  -0.29856  -0.29540  -0.29296
 Alpha  occ. eigenvalues --   -0.28415  -0.28264  -0.27288  -0.26273  -0.25986
 Alpha  occ. eigenvalues --   -0.25736  -0.25155  -0.23137  -0.23028  -0.21265
 Alpha  occ. eigenvalues --   -0.20703  -0.18365  -0.17345  -0.15898  -0.13620
 Alpha  occ. eigenvalues --   -0.12293  -0.11593  -0.10738  -0.08938  -0.05136
 Alpha  occ. eigenvalues --    0.04380
 Alpha virt. eigenvalues --    0.06486   0.06904   0.08235   0.09092   0.09511
 Alpha virt. eigenvalues --    0.09759   0.10244   0.10463   0.10676   0.10783
 Alpha virt. eigenvalues --    0.11475   0.11751   0.12697   0.12837   0.13279

  Beta  occ. eigenvalues --  -18.99674 -14.20343 -14.19406 -14.18220 -14.17275
  Beta  occ. eigenvalues --  -14.14053 -14.13728 -14.11832 -10.16817 -10.11346
  Beta  occ. eigenvalues --  -10.09589 -10.09402 -10.09210 -10.07629 -10.07564
  Beta  occ. eigenvalues --  -10.07554 -10.05078 -10.04137 -10.03667 -10.02940
  Beta  occ. eigenvalues --   -0.92769  -0.85598  -0.82338  -0.80831  -0.77099
  Beta  occ. eigenvalues --   -0.75703  -0.72752  -0.71252  -0.66272  -0.64750
  Beta  occ. eigenvalues --   -0.62570  -0.59510  -0.53889  -0.53349  -0.51693
  Beta  occ. eigenvalues --   -0.50198  -0.48745  -0.48064  -0.44567  -0.43548
  Beta  occ. eigenvalues --   -0.39881  -0.38588  -0.37356  -0.37012  -0.35984
  Beta  occ. eigenvalues --   -0.35739  -0.34843  -0.33945  -0.32786  -0.32278
  Beta  occ. eigenvalues --   -0.30347  -0.29863  -0.29822  -0.29455  -0.29164
  Beta  occ. eigenvalues --   -0.28372  -0.28228  -0.27134  -0.26190  -0.25838
  Beta  occ. eigenvalues --   -0.25523  -0.25059  -0.22960  -0.22894  -0.20849
  Beta  occ. eigenvalues --   -0.19311  -0.18065  -0.16740  -0.15154  -0.12994
  Beta  occ. eigenvalues --   -0.11496  -0.10756  -0.09916  -0.08453  -0.04023
  Beta virt. eigenvalues --    0.06440   0.06875   0.08191   0.09010   0.09441
  Beta virt. eigenvalues --    0.09708   0.10149   0.10379   0.10496   0.10688
  Beta virt. eigenvalues --    0.11117   0.11496   0.11725   0.12668   0.12787

 Mulliken charges and spin densities:
               1          2
     1  C   -0.417388  -0.189594
     2  C   -0.171470   0.078443
     3  N   -0.027938   0.024088
     4  C   -0.246948   0.037433
     5  N   -0.287488   0.148718
     6  C   -0.115563  -0.040353
     7  N   -0.152411   0.083605
     8  C    0.133968   0.157445
     9  C   -0.392647   0.105664
    10  N   -0.132153   0.020975
    11  C   -0.687527  -0.016777
    12  N   -0.129487   0.268696
    13  C   -0.108480   0.143224
    14  N    0.030365   0.018202
    15  C   -0.161606  -0.012871
    16  C   -0.458607  -0.006219
    17  O   -0.233136   0.000653
    18  N   -0.064854  -0.001419
    19  C   -0.079545   0.003634
    20  C   -0.545656  -0.007030
    21  H    0.103149   0.041791
    22  H    0.059039   0.066394
    23  H    0.096334   0.024636
    24  H    0.160353   0.014172
    25  H    0.122519   0.032400
    26  H    0.242279  -0.023137
    27  H    0.228784   0.006396
    28  H    0.143396  -0.006747
    29  H    0.240702   0.002905
    30  H    0.123676   0.005395
    31  H    0.158031  -0.000819
    32  H    0.104593   0.006049
    33  H    0.093002  -0.001350
    34  H    0.189296   0.002676
    35  H    0.247183   0.008847
    36  H    0.244548  -0.000509
    37  H    0.142471  -0.000770
    38  H    0.163133   0.003263
    39  H    0.116513   0.001036
    40  H    0.129406   0.001325
    41  H    0.140165  -0.000473
 Sum of Mulliken charges =  -1.00000   1.00000

 Dipole moment (field-independent basis, Debye):
    X=              2.7030    Y=              2.2110    Z=              2.8055  Tot=              4.4795
 Quadrupole moment (field-independent basis, Debye-Ang):
   XX=           -162.0665   YY=           -145.5394   ZZ=           -131.8770
   XY=             -4.9700   XZ=             -0.4738   YZ=             -1.2527

 Summary of Natural Population Analysis:

                                       Natural Population
                Natural  -----------------------------------------------
    Atom  No    Charge         Core      Valence    Rydberg      Total
 -----------------------------------------------------------------------
      C    1   -0.28921      0.99967     2.28511    0.00444     3.28921
      C    2   -0.08711      0.99965     2.07734    0.01012     3.08711
      N    3   -0.31309      0.99966     2.80291    0.01051     3.81309
      C    4    0.22201      0.99953     1.76463    0.01383     2.77799
      N    5   -0.26543      0.99963     2.75569    0.01011     3.76543
      C    6    0.27869      0.99962     1.70463    0.01705     2.72131
      N    7   -0.26066      0.99965     2.75039    0.01061     3.76066
      C    8    0.08484      0.99947     1.90417    0.01152     2.91516
      C    9    0.05366      0.99941     1.93509    0.01183     2.94634
      N   10   -0.31905      0.99964     2.80492    0.01449     3.81905
      C   11    0.37770      0.99964     1.59914    0.02352     2.62230
      N   12   -0.19471      0.99967     2.68096    0.01409     3.69471
      C   13    0.08013      0.99961     1.90465    0.01562     2.91987
      N   14   -0.35214      0.99969     2.83771    0.01473     3.85214
      C   15   -0.08846      0.99965     2.07930    0.00951     3.08846
      C   16   -0.29778      0.99967     2.29398    0.00414     3.29778
      O   17   -0.37784      0.99987     3.37163    0.00633     4.37784
      N   18   -0.32680      0.99966     2.81523    0.01191     3.82680
      C   19   -0.08576      0.99965     2.07682    0.00929     3.08576
      C   20   -0.28837      0.99967     2.28472    0.00398     3.28837
      H   21    0.09861      0.00000     0.39999    0.00140     0.40139
      H   22    0.09649      0.00000     0.40246    0.00105     0.40351
      H   23    0.09184      0.00000     0.40677    0.00139     0.40816
      H   24    0.10088      0.00000     0.39693    0.00219     0.39912
      H   25    0.08361      0.00000     0.41362    0.00277     0.41639
      H   26    0.17721      0.00000     0.31885    0.00394     0.32279
      H   27    0.18304      0.00000     0.31484    0.00212     0.31696
      H   28    0.07792      0.00000     0.41991    0.00217     0.42208
      H   29    0.17764      0.00000     0.32064    0.00173     0.32236
      H   30    0.08075      0.00000     0.41801    0.00124     0.41925
      H   31    0.09996      0.00000     0.39889    0.00115     0.40004
      H   32    0.09122      0.00000     0.40773    0.00105     0.40878
      H   33    0.08615      0.00000     0.41277    0.00107     0.41385
      H   34    0.11466      0.00000     0.38420    0.00114     0.38534
      H   35    0.23723      0.00000     0.26018    0.00259     0.26277
      H   36    0.18470      0.00000     0.31331    0.00198     0.31530
      H   37    0.08019      0.00000     0.41776    0.00205     0.41981
      H   38    0.10361      0.00000     0.39485    0.00155     0.39639
      H   39    0.09041      0.00000     0.40838    0.00121     0.40959
      H   40    0.09558      0.00000     0.40366    0.00076     0.40442
      H   41    0.09767      0.00000     0.40122    0.00111     0.40233
 =======================================================================
   * Total *    0.00000     19.99272    54.74399    0.26329    75.00000

 Normal termination of Gaussian 16 at Sun Dec 13 21:56:18 2020.
