 Gaussian 16, Revision A.03,

 -----------------------------------------------------------
 # opt freq B3LYP/6-31G(d) empiricaldispersion=gd3bj scf=xqc
 -----------------------------------------------------------

 -------------------------------
 CID_19502463_JID_10298_neutraal
 -------------------------------
 Symbolic Z-matrix:
 Charge =  0 Multiplicity = 1

 SCF Done:  E(RB3LYP) =  -932.524194308     A.U. after   15 cycles
 SCF Done:  E(RB3LYP) =  -932.530608745     A.U. after   13 cycles
 SCF Done:  E(RB3LYP) =  -932.529850089     A.U. after   15 cycles
 SCF Done:  E(RB3LYP) =  -932.530123243     A.U. after   13 cycles
 SCF Done:  E(RB3LYP) =  -932.534720816     A.U. after   11 cycles
 SCF Done:  E(RB3LYP) =  -932.538757920     A.U. after   15 cycles
 SCF Done:  E(RB3LYP) =  -932.532672765     A.U. after   16 cycles
 SCF Done:  E(RB3LYP) =  -932.539109757     A.U. after   14 cycles
 SCF Done:  E(RB3LYP) =  -932.540222448     A.U. after   11 cycles
 SCF Done:  E(RB3LYP) =  -932.540806332     A.U. after   12 cycles
 SCF Done:  E(RB3LYP) =  -932.541392227     A.U. after    8 cycles
 SCF Done:  E(RB3LYP) =  -932.541392374     A.U. after    7 cycles
 SCF Done:  E(RB3LYP) =  -932.541392495     A.U. after    7 cycles
 SCF Done:  E(RB3LYP) =  -932.541392567     A.U. after    6 cycles
 SCF Done:  E(RB3LYP) =  -932.541392595     A.U. after    6 cycles
 Optimization completed.
    -- Stationary point found.
 Normal termination of Gaussian 16 at Sun Dec 13 21:08:18 2020.

 --------------------------------------------------------------------
 #N Geom=AllCheck Guess=TCheck SCRF=Check GenChk RB3LYP/6-31G(d) Freq
 --------------------------------------------------------------------

 Structure from the checkpoint file:  "JID_10298.chk"
 -------------------------------
 CID_19502463_JID_10298_neutraal
 -------------------------------
 Charge =  0 Multiplicity = 1

 SCF Done:  E(RB3LYP) =  -932.541392595     A.U. after    1 cycles

  Exact polarizability: 212.791  19.136 130.993 -11.056  24.642 135.917
 Approx polarizability: 341.187  34.238 195.311 -22.072  58.590 247.340

                      1                      2                      3
                      A                      A                      A
 Frequencies --     23.3861                46.8534                56.1846
 Red. masses --      4.9133                 6.1226                 4.3460
 Frc consts  --      0.0016                 0.0079                 0.0081
 IR Inten    --      1.0508                 0.2546                 0.8292

                      4                      5                      6
                      A                      A                      A
 Frequencies --     58.2996                72.0076                77.5962
 Red. masses --      4.9003                 2.0878                 1.5342
 Frc consts  --      0.0098                 0.0064                 0.0054
 IR Inten    --      0.4487                 1.1113                 0.1141

                      7                      8                      9
                      A                      A                      A
 Frequencies --     94.7084               116.2141               122.6557
 Red. masses --      3.5852                 5.1965                 1.4948
 Frc consts  --      0.0189                 0.0414                 0.0132
 IR Inten    --      0.3071                 1.3565                 0.1672

                     10                     11                     12
                      A                      A                      A
 Frequencies --    150.1283               177.5032               196.0116
 Red. masses --      4.4135                 3.5610                 5.0340
 Frc consts  --      0.0586                 0.0661                 0.1140
 IR Inten    --      0.8204                 1.9272                 0.8155

                     13                     14                     15
                      A                      A                      A
 Frequencies --    213.0152               279.0832               291.1256
 Red. masses --      3.0528                 3.1178                 4.9385
 Frc consts  --      0.0816                 0.1431                 0.2466
 IR Inten    --      2.5043                 0.4540                 1.0395

                     16                     17                     18
                      A                      A                      A
 Frequencies --    318.7526               329.6789               348.6769
 Red. masses --      5.7409                 3.0102                 3.5001
 Frc consts  --      0.3437                 0.1928                 0.2507
 IR Inten    --      1.2648                 3.7527                 0.3531

                     19                     20                     21
                      A                      A                      A
 Frequencies --    381.7585               410.0389               447.7674
 Red. masses --      5.9501                 4.0300                 2.8627
 Frc consts  --      0.5109                 0.3992                 0.3382
 IR Inten    --      2.2565                10.4618                15.1335

                     22                     23                     24
                      A                      A                      A
 Frequencies --    474.1190               482.9736               486.0422
 Red. masses --      2.5452                 2.8928                 2.3718
 Frc consts  --      0.3371                 0.3976                 0.3301
 IR Inten    --     17.8478                19.7478                 5.4923

                     25                     26                     27
                      A                      A                      A
 Frequencies --    536.8769               560.5874               572.9500
 Red. masses --      5.9473                 3.0622                 1.5522
 Frc consts  --      1.0100                 0.5670                 0.3002
 IR Inten    --     13.1057                13.7509                96.1599

                     28                     29                     30
                      A                      A                      A
 Frequencies --    578.4159               607.5943               629.9093
 Red. masses --      4.5423                 3.9468                 3.0155
 Frc consts  --      0.8954                 0.8585                 0.7050
 IR Inten    --      3.1413                 8.5617                61.7242

                     31                     32                     33
                      A                      A                      A
 Frequencies --    643.0892               667.0720               698.8615
 Red. masses --      2.1201                 5.3342                 4.1921
 Frc consts  --      0.5166                 1.3985                 1.2063
 IR Inten    --     12.7459                 3.1680                38.1717

                     34                     35                     36
                      A                      A                      A
 Frequencies --    726.4413               742.2547               768.0823
 Red. masses --      3.7313                 5.2575                 3.7329
 Frc consts  --      1.1601                 1.7066                 1.2975
 IR Inten    --      4.5047                 0.3320                76.0574

                     37                     38                     39
                      A                      A                      A
 Frequencies --    795.9232               815.6005               827.3460
 Red. masses --      2.7921                 2.3918                 1.6551
 Frc consts  --      1.0421                 0.9374                 0.6675
 IR Inten    --      2.2254                14.5526                 4.8430

                     40                     41                     42
                      A                      A                      A
 Frequencies --    859.9483               897.4517               899.4081
 Red. masses --      2.3893                 1.2906                 1.4926
 Frc consts  --      1.0410                 0.6124                 0.7114
 IR Inten    --     23.0224                 3.5161                 8.6235

                     43                     44                     45
                      A                      A                      A
 Frequencies --    902.8915               957.2949               965.9375
 Red. masses --      2.8212                 1.5260                 2.8150
 Frc consts  --      1.3551                 0.8240                 1.5475
 IR Inten    --      1.7407                 0.9177                 3.2935

                     46                     47                     48
                      A                      A                      A
 Frequencies --    972.2856              1012.7959              1013.4575
 Red. masses --      2.7528                 1.5854                 2.6509
 Frc consts  --      1.5333                 0.9581                 1.6042
 IR Inten    --      6.4678                 2.8996                 5.7407

                     49                     50                     51
                      A                      A                      A
 Frequencies --   1027.4841              1051.3290              1074.2020
 Red. masses --      5.9201                 1.5052                 1.5141
 Frc consts  --      3.6824                 0.9802                 1.0294
 IR Inten    --     61.6858                 0.4162                 2.9872

                     52                     53                     54
                      A                      A                      A
 Frequencies --   1077.4492              1126.9053              1161.7061
 Red. masses --      1.5263                 2.7208                 1.8152
 Frc consts  --      1.0439                 2.0357                 1.4434
 IR Inten    --     10.2719                79.2129                 6.4759

                     55                     56                     57
                      A                      A                      A
 Frequencies --   1185.0270              1189.7201              1201.7406
 Red. masses --      1.3583                 1.5599                 2.0927
 Frc consts  --      1.1239                 1.3009                 1.7807
 IR Inten    --     93.3379                 1.2537                74.9701

                     58                     59                     60
                      A                      A                      A
 Frequencies --   1233.9309              1258.5794              1277.2045
 Red. masses --      1.5693                 2.1828                 3.1193
 Frc consts  --      1.4078                 2.0372                 2.9980
 IR Inten    --     43.9423                17.6467                 9.2862

                     61                     62                     63
                      A                      A                      A
 Frequencies --   1322.7716              1323.4770              1346.7135
 Red. masses --      1.8254                 1.8237                 7.5674
 Frc consts  --      1.8818                 1.8820                 8.0863
 IR Inten    --     17.3555                12.3419                 1.5187

                     64                     65                     66
                      A                      A                      A
 Frequencies --   1349.7366              1371.7969              1388.6011
 Red. masses --      2.0724                 1.4781                 2.6430
 Frc consts  --      2.2244                 1.6389                 3.0026
 IR Inten    --     16.0103                31.5070               123.2955

                     67                     68                     69
                      A                      A                      A
 Frequencies --   1437.6115              1440.8637              1442.2504
 Red. masses --      1.4286                 1.8337                 2.3610
 Frc consts  --      1.7395                 2.2429                 2.8935
 IR Inten    --     11.2223                12.2835                13.2080

                     70                     71                     72
                      A                      A                      A
 Frequencies --   1448.1794              1466.9112              1472.3942
 Red. masses --      1.8931                 4.6679                 2.5799
 Frc consts  --      2.3392                 5.9180                 3.2954
 IR Inten    --     11.4538                35.1720                29.3087

                     73                     74                     75
                      A                      A                      A
 Frequencies --   1491.0659              1509.2942              1516.5062
 Red. masses --      1.1474                 4.7469                 1.0663
 Frc consts  --      1.5029                 6.3711                 1.4448
 IR Inten    --      5.7550                25.0104                11.0803

                     76                     77                     78
                      A                      A                      A
 Frequencies --   1516.6889              1521.6029              1528.3633
 Red. masses --      1.0732                 1.1255                 1.1708
 Frc consts  --      1.4546                 1.5353                 1.6114
 IR Inten    --      2.2496                 3.8546                13.1441

                     79                     80                     81
                      A                      A                      A
 Frequencies --   1558.6663              1607.9409              1635.4802
 Red. masses --      2.4691                 5.1914                 5.9239
 Frc consts  --      3.5343                 7.9081                 9.3357
 IR Inten    --     53.8266                86.5589                 0.1349

                     82                     83                     84
                      A                      A                      A
 Frequencies --   1671.9882              1799.3221              1828.7389
 Red. masses --      5.9549                 8.7962                 9.5295
 Frc consts  --      9.8083                16.7789                18.7770
 IR Inten    --      1.1773               490.4000               343.2251

                     85                     86                     87
                      A                      A                      A
 Frequencies --   3035.8790              3051.6980              3102.7531
 Red. masses --      1.0501                 1.0368                 1.0702
 Frc consts  --      5.7025                 5.6887                 6.0702
 IR Inten    --     28.6725                26.2656                21.6761

                     88                     89                     90
                      A                      A                      A
 Frequencies --   3104.0242              3109.5936              3131.5167
 Red. masses --      1.0746                 1.0995                 1.1027
 Frc consts  --      6.1000                 6.2641                 6.3710
 IR Inten    --     11.3383                17.9215                13.1802

                     91                     92                     93
                      A                      A                      A
 Frequencies --   3145.0576              3161.6972              3170.2673
 Red. masses --      1.1023                 1.1051                 1.0899
 Frc consts  --      6.4241                 6.5084                 6.4538
 IR Inten    --      7.3972                 2.9540                17.3368

                     94                     95                     96
                      A                      A                      A
 Frequencies --   3192.6793              3219.3320              3277.2567
 Red. masses --      1.0890                 1.0939                 1.0970
 Frc consts  --      6.5405                 6.6799                 6.9422
 IR Inten    --      8.0491                 4.5762                 0.5360

                     97                     98                     99
                      A                      A                      A
 Frequencies --   3303.7941              3569.8628              3697.4417
 Red. masses --      1.0987                 1.0750                 1.0641
 Frc consts  --      7.0655                 8.0718                 8.5711
 IR Inten    --      0.7291                32.0610                64.5197

 - Thermochemistry -
 -------------------
 Temperature   298.150 Kelvin.  Pressure   1.00000 Atm.
 Atom     1 has atomic number  6 and mass  12.00000

 Molecular mass:   273.11134 amu.
 Principal axes and moments of inertia in atomic units:
                           1         2         3
     Eigenvalues --  3476.260915601.352947406.58675
           X            0.99965   0.02402  -0.01130
           Y           -0.02382   0.99956   0.01763
           Z            0.01172  -0.01736   0.99978
 This molecule is an asymmetric top.
 Rotational symmetry number  1.
 Warning -- assumption of classical behavior for rotation
           may cause significant error
 Rotational temperatures (Kelvin)      0.02492     0.01546     0.01169
 Rotational constants (GHZ):           0.51916     0.32220     0.24367
 Zero-point vibrational energy     732366.7 (Joules/Mol)
                                  175.03984 (Kcal/Mol)
 Warning -- explicit consideration of  29 degrees of freedom as
           vibrations may cause significant error
 Vibrational temperatures:     33.65    67.41    80.84    83.88   103.60
          (Kelvin)            111.64   136.26   167.21   176.47   216.00
                              255.39   282.02   306.48   401.54   418.86
                              458.61   474.33   501.67   549.27   589.95
                              644.24   682.15   694.89   699.31   772.45
                              806.56   824.35   832.21   874.19   906.30
                              925.26   959.77  1005.51  1045.19  1067.94
                             1105.10  1145.16  1173.47  1190.37  1237.27
                             1291.23  1294.05  1299.06  1377.33  1389.77
                             1398.90  1457.19  1458.14  1478.32  1512.63
                             1545.54  1550.21  1621.37  1671.44  1704.99
                             1711.74  1729.04  1775.35  1810.81  1837.61
                             1903.17  1904.19  1937.62  1941.97  1973.71
                             1997.89  2068.40  2073.08  2075.08  2083.61
                             2110.56  2118.45  2145.31  2171.54  2181.91
                             2182.18  2189.25  2198.97  2242.57  2313.47
                             2353.09  2405.62  2588.82  2631.15  4367.95
                             4390.71  4464.17  4466.00  4474.01  4505.55
                             4525.04  4548.98  4561.31  4593.55  4631.90
                             4715.24  4753.42  5136.24  5319.79

 Zero-point correction=                           0.278944 (Hartree/Particle)
 Thermal correction to Energy=                    0.297562
 Thermal correction to Enthalpy=                  0.298507
 Thermal correction to Gibbs Free Energy=         0.230824
 Sum of electronic and zero-point Energies=           -932.262449
 Sum of electronic and thermal Energies=              -932.243830
 Sum of electronic and thermal Enthalpies=            -932.242886
 Sum of electronic and thermal Free Energies=         -932.310569

                     E (Thermal)             CV                S
                      KCal/Mol        Cal/Mol-Kelvin    Cal/Mol-Kelvin
 Total                  186.723             69.632            142.451
 Electronic               0.000              0.000              0.000
 Translational            0.889              2.981             42.713
 Rotational               0.889              2.981             33.333
 Vibrational            184.946             63.670             66.405
 Vibration     1          0.593              1.985              6.324
 Vibration     2          0.595              1.979              4.946
 Vibration     3          0.596              1.975              4.587
 Vibration     4          0.596              1.974              4.514
 Vibration     5          0.598              1.967              4.098
 Vibration     6          0.599              1.964              3.951
 Vibration     7          0.603              1.953              3.560
 Vibration     8          0.608              1.936              3.162
 Vibration     9          0.610              1.930              3.058
 Vibration    10          0.618              1.903              2.671
 Vibration    11          0.628              1.870              2.355
 Vibration    12          0.636              1.845              2.170
 Vibration    13          0.644              1.821              2.018
 Vibration    14          0.679              1.712              1.539
 Vibration    15          0.687              1.690              1.467
 Vibration    16          0.705              1.638              1.316
 Vibration    17          0.712              1.616              1.262
 Vibration    18          0.726              1.578              1.172
 Vibration    19          0.751              1.509              1.032
 Vibration    20          0.774              1.448              0.926
 Vibration    21          0.807              1.366              0.803
 Vibration    22          0.831              1.307              0.726
 Vibration    23          0.839              1.288              0.702
 Vibration    24          0.842              1.281              0.694
 Vibration    25          0.892              1.168              0.572
 Vibration    26          0.916              1.117              0.523
 Vibration    27          0.929              1.090              0.499
 Vibration    28          0.935              1.078              0.488
 Vibration    29          0.966              1.016              0.437

                           ! Non-Optimized Parameters !
 Normal termination of Gaussian 16 at Sun Dec 13 21:28:58 2020.

 ----------------------------------------------------------------------
 # B3LYP/6-311++G(d,p) empiricaldispersion=gd3bj scf=xqc pop=npa geom=c
 heck
 ----------------------------------------------------------------------

 ---------------------------------------
 CID_19502463_JID_10298_Energie_neutraal
 ---------------------------------------
 Structure from the checkpoint file:  "JID_10298.chk"
 Charge =  0 Multiplicity = 1

 SCF Done:  E(RB3LYP) =  -932.807393934     A.U. after   17 cycles
 Normal termination of Gaussian 16 at Sun Dec 13 21:37:02 2020.

 ----------------------------------------------------------------------
 # B3LYP/6-311++G(d,p) empiricaldispersion=gd3bj scf=xqc pop=npa geom=c
 heck
 ----------------------------------------------------------------------

 -------------------------------------
 CID_19502463_JID_10298_Energie_kation
 -------------------------------------
 Structure from the checkpoint file:  "JID_10298.chk"
 Charge =  1 Multiplicity = 2

 SCF Done:  E(UB3LYP) =  -932.499249233     A.U. after   27 cycles
 Normal termination of Gaussian 16 at Sun Dec 13 21:54:42 2020.
 Gaussian 16:  ES64L-G16RevA.03 25-Dec-2016

 ----------------------------------------------------------------------
 # B3LYP/6-311++G(d,p) empiricaldispersion=gd3bj scf=xqc pop=npa geom=c
 heck
 ----------------------------------------------------------------------

 ------------------------------------
 CID_19502463_JID_10298_Energie_anion
 ------------------------------------
 Structure from the checkpoint file:  "JID_10298.chk"
 Charge = -1 Multiplicity = 2

                         Standard orientation:
 ---------------------------------------------------------------------
 Center     Atomic      Atomic             Coordinates (Angstroms)
 Number     Number       Type             X           Y           Z
 ---------------------------------------------------------------------
      1          6           0        2.845405    2.533985   -0.303161
      2          6           0        1.422722    2.062406   -0.467897
      3          6           0        0.458964    2.350871    0.502912
      4          6           0       -0.854468    1.877238    0.421737
      5          6           0       -1.196902    1.070839   -0.678209
      6          6           0       -0.257652    0.804514   -1.676330
      7          6           0        1.039329    1.295538   -1.573383
      8          7           0       -2.514114    0.529460   -0.804969
      9          6           0       -3.091152   -0.500760   -0.111292
     10          8           0       -4.262897   -0.807445   -0.263045
     11          6           0       -2.241186   -1.269878    0.915005
     12          7           0       -0.884865   -1.566180    0.502077
     13          6           0        0.271125   -1.133756    1.049783
     14          6           0        1.292800   -1.610820    0.241774
     15          6           0        0.628558   -2.336020   -0.780962
     16          7           0       -0.687532   -2.309104   -0.624435
     17          6           0        2.726329   -1.376335    0.345726
     18          8           0        3.564756   -1.777886   -0.436992
     19          8           0        3.056908   -0.625242    1.438325
     20          6           0       -1.852165    2.221595    1.499555
     21          1           0        2.890751    3.526572    0.157403
     22          1           0        3.398145    1.844181    0.346264
     23          1           0        3.368503    2.576644   -1.263279
     24          1           0        0.737444    2.968190    1.354706
     25          1           0       -0.547791    0.175494   -2.511186
     26          1           0        1.767258    1.059726   -2.344656
     27          1           0       -3.128087    0.912941   -1.515236
     28          1           0       -2.191745   -0.706653    1.850823
     29          1           0       -2.778648   -2.201526    1.097524
     30          1           0        0.297621   -0.508480    1.928091
     31          1           0        1.076848   -2.863990   -1.610919
     32          1           0        4.028539   -0.548742    1.411831
     33          1           0       -1.836333    1.491756    2.320949
     34          1           0       -1.623753    3.196629    1.940301
     35          1           0       -2.873538    2.246108    1.110813
 ---------------------------------------------------------------------

 SCF Done:  E(UB3LYP) =  -932.804163865     A.U. after   33 cycles
 SCF Done:  E(UB3LYP) =  -932.804163869     a.u. after    2 cycles

 The electronic state is 2-A.
 Alpha  occ. eigenvalues --  -19.05357 -18.99834 -18.98518 -14.28710 -14.24587
 Alpha  occ. eigenvalues --  -14.22723 -10.18521 -10.17482 -10.12702 -10.10656
 Alpha  occ. eigenvalues --  -10.09616 -10.09001 -10.08720 -10.08031 -10.07252
 Alpha  occ. eigenvalues --  -10.07240 -10.07160 -10.07101 -10.06837 -10.06246
 Alpha  occ. eigenvalues --   -0.98849  -0.95517  -0.94467  -0.89685  -0.83854
 Alpha  occ. eigenvalues --   -0.75678  -0.74880  -0.69260  -0.68399  -0.66364
 Alpha  occ. eigenvalues --   -0.63018  -0.59604  -0.58911  -0.55537  -0.51349
 Alpha  occ. eigenvalues --   -0.50869  -0.48622  -0.48238  -0.46512  -0.43510
 Alpha  occ. eigenvalues --   -0.42677  -0.39302  -0.38044  -0.37723  -0.36834
 Alpha  occ. eigenvalues --   -0.36473  -0.36241  -0.34056  -0.33838  -0.33642
 Alpha  occ. eigenvalues --   -0.32685  -0.32269  -0.31816  -0.31586  -0.30407
 Alpha  occ. eigenvalues --   -0.30192  -0.30034  -0.29004  -0.28583  -0.27951
 Alpha  occ. eigenvalues --   -0.25454  -0.24843  -0.24533  -0.21346  -0.19673
 Alpha  occ. eigenvalues --   -0.18018  -0.17661  -0.16730  -0.16210  -0.14954
 Alpha  occ. eigenvalues --   -0.14863  -0.13423   0.04254
 Alpha virt. eigenvalues --    0.06290   0.06656   0.07110   0.07848   0.08311
 Alpha virt. eigenvalues --    0.08908   0.09138   0.09570   0.09880   0.10253
 Alpha virt. eigenvalues --    0.10661   0.10877   0.11609   0.11968   0.12672

  Beta  occ. eigenvalues --  -19.05329 -18.99831 -18.98337 -14.28649 -14.24584
  Beta  occ. eigenvalues --  -14.22766 -10.18512 -10.17275 -10.12687 -10.10562
  Beta  occ. eigenvalues --  -10.09386 -10.08990 -10.08737 -10.07959 -10.07240
  Beta  occ. eigenvalues --  -10.07219 -10.07153 -10.07071 -10.06809 -10.06242
  Beta  occ. eigenvalues --   -0.98655  -0.95474  -0.94418  -0.89429  -0.83780
  Beta  occ. eigenvalues --   -0.75604  -0.74828  -0.69021  -0.68335  -0.66256
  Beta  occ. eigenvalues --   -0.62894  -0.59549  -0.58831  -0.55240  -0.51273
  Beta  occ. eigenvalues --   -0.50758  -0.48543  -0.48119  -0.46410  -0.43449
  Beta  occ. eigenvalues --   -0.42492  -0.39239  -0.37865  -0.37645  -0.36613
  Beta  occ. eigenvalues --   -0.36327  -0.36134  -0.33830  -0.33637  -0.33512
  Beta  occ. eigenvalues --   -0.32511  -0.32201  -0.31676  -0.31483  -0.30361
  Beta  occ. eigenvalues --   -0.30096  -0.29877  -0.28943  -0.28465  -0.27898
  Beta  occ. eigenvalues --   -0.25397  -0.24717  -0.24431  -0.20719  -0.19692
  Beta  occ. eigenvalues --   -0.17948  -0.17537  -0.16552  -0.15923  -0.14641
  Beta  occ. eigenvalues --   -0.14319  -0.13130
  Beta virt. eigenvalues --    0.06551   0.07181   0.07358   0.08174   0.08296
  Beta virt. eigenvalues --    0.08501   0.09215   0.09487   0.09708   0.10115
  Beta virt. eigenvalues --    0.10589   0.10996   0.11134   0.11752   0.12091

 Mulliken charges and spin densities:
               1          2
     1  C   -0.140530  -0.470071
     2  C    0.534899   0.143254
     3  C   -1.213076   0.377699
     4  C   -0.294499   0.525062
     5  C    0.024745  -0.291480
     6  C   -0.150086   0.157529
     7  C   -0.161178  -0.108101
     8  N   -0.298099   0.042140
     9  C   -0.260392   0.257984
    10  O   -0.339295   0.018997
    11  C    0.588334  -0.722675
    12  N    0.383268   0.085704
    13  C    0.363765  -0.219699
    14  C    0.419286   0.091130
    15  C   -0.244597  -0.060768
    16  N   -0.425489   0.044519
    17  C   -0.663286   0.083961
    18  O   -0.319913   0.062530
    19  O   -0.163961   0.009142
    20  C    1.067616  -1.526314
    21  H   -0.109247   0.245360
    22  H    0.205821  -0.053446
    23  H    0.099077   0.026212
    24  H   -0.145734   0.336771
    25  H    0.147494   0.023773
    26  H    0.141948   0.027412
    27  H    0.135724   0.192135
    28  H   -0.162256   0.322019
    29  H    0.119172   0.118208
    30  H   -0.096212   0.291242
    31  H    0.167646  -0.005821
    32  H    0.196213   0.062766
    33  H   -0.079460   0.247802
    34  H   -0.357771   0.518376
    35  H    0.030071   0.146648
 Sum of Mulliken charges =  -1.00000   1.00000

 Dipole moment (field-independent basis, Debye):
    X=              2.2862    Y=              0.8340    Z=             -1.8963  Tot=              3.0852
 Quadrupole moment (field-independent basis, Debye-Ang):
   XX=           -176.1677   YY=           -164.2861   ZZ=           -142.4735
   XY=              3.6295   XZ=              4.6910   YZ=             -7.2780

 Summary of Natural Population Analysis:

                                       Natural Population
                Natural  -----------------------------------------------
    Atom  No    Charge         Core      Valence    Rydberg      Total
 -----------------------------------------------------------------------
      C    1   -0.29356      0.99963     2.28842    0.00550     3.29356
      C    2    0.00055      0.99951     1.99120    0.00874     2.99945
      C    3   -0.09557      0.99947     2.08653    0.00957     3.09557
      C    4   -0.01782      0.99946     2.00853    0.00983     3.01782
      C    5    0.06778      0.99940     1.92069    0.01214     2.93222
      C    6   -0.08095      0.99951     2.07184    0.00960     3.08095
      C    7   -0.10305      0.99951     2.09481    0.00874     3.10305
      N    8   -0.31716      0.99964     2.80779    0.00973     3.81716
      C    9    0.34520      0.99968     1.63211    0.02301     2.65480
      O   10   -0.31982      0.99988     3.31432    0.00563     4.31982
      C   11   -0.12246      0.99956     2.11165    0.01124     3.12246
      N   12   -0.10543      0.99965     2.59227    0.01350     3.60543
      C   13    0.07226      0.99952     1.91668    0.01153     2.92774
      C   14   -0.13816      0.99945     2.12755    0.01115     3.13816
      C   15    0.01718      0.99960     1.97019    0.01304     2.98282
      N   16   -0.16744      0.99973     2.65685    0.01086     3.66744
      C   17    0.41680      0.99963     1.55896    0.02461     2.58320
      O   18   -0.30617      0.99987     3.30129    0.00500     4.30617
      O   19   -0.35264      0.99988     3.34645    0.00631     4.35264
      C   20   -0.29505      0.99963     2.28951    0.00591     3.29505
      H   21    0.10134      0.00000     0.39784    0.00082     0.39866
      H   22    0.10762      0.00000     0.39123    0.00115     0.39238
      H   23    0.09927      0.00000     0.40003    0.00070     0.40073
      H   24    0.09741      0.00000     0.40118    0.00141     0.40259
      H   25    0.10463      0.00000     0.39413    0.00124     0.39537
      H   26    0.09891      0.00000     0.39990    0.00119     0.40109
      H   27    0.19787      0.00000     0.29978    0.00234     0.30213
      H   28    0.11304      0.00000     0.38537    0.00159     0.38696
      H   29    0.11495      0.00000     0.38388    0.00118     0.38505
      H   30    0.11012      0.00000     0.38847    0.00141     0.38988
      H   31    0.10131      0.00000     0.39784    0.00084     0.39869
      H   32    0.23400      0.00000     0.26288    0.00312     0.26600
      H   33    0.10210      0.00000     0.39640    0.00150     0.39790
      H   34    0.10632      0.00000     0.39254    0.00115     0.39368
      H   35    0.10659      0.00000     0.39226    0.00115     0.39341
 =======================================================================
   * Total *   -0.00000     19.99222    51.77136    0.23642    72.00000

 Normal termination of Gaussian 16 at Sun Dec 13 22:38:26 2020.
