 Gaussian 16, Revision A.03,

 -----------------------------------------------------------
 # opt freq B3LYP/6-31G(d) empiricaldispersion=gd3bj scf=xqc
 -----------------------------------------------------------

 ------------------------------
 CID_13961643_JID_2960_neutraal
 ------------------------------
 Symbolic Z-matrix:
 Charge =  0 Multiplicity = 1

 SCF Done:  E(RB3LYP) =  -897.669042943     A.U. after   15 cycles
 SCF Done:  E(RB3LYP) =  -897.671127444     A.U. after   13 cycles
 SCF Done:  E(RB3LYP) =  -897.671819781     A.U. after   13 cycles
 SCF Done:  E(RB3LYP) =  -897.673452751     A.U. after   13 cycles
 SCF Done:  E(RB3LYP) =  -897.673990096     A.U. after   13 cycles
 SCF Done:  E(RB3LYP) =  -897.674176853     A.U. after   12 cycles
 SCF Done:  E(RB3LYP) =  -897.674245046     A.U. after   13 cycles
 SCF Done:  E(RB3LYP) =  -897.674357418     A.U. after   11 cycles
 SCF Done:  E(RB3LYP) =  -897.674372004     A.U. after   10 cycles
 SCF Done:  E(RB3LYP) =  -897.674379787     A.U. after   10 cycles
 SCF Done:  E(RB3LYP) =  -897.674479358     A.U. after   11 cycles
 SCF Done:  E(RB3LYP) =  -897.674487103     A.U. after   11 cycles
 SCF Done:  E(RB3LYP) =  -897.674489001     A.U. after    9 cycles
 SCF Done:  E(RB3LYP) =  -897.674489172     A.U. after    8 cycles
 SCF Done:  E(RB3LYP) =  -897.674489255     A.U. after    7 cycles
 SCF Done:  E(RB3LYP) =  -897.674489265     A.U. after    6 cycles
 Optimization completed.
    -- Stationary point found.
 Normal termination of Gaussian 16 at Wed Dec  9 18:22:45 2020.

 --------------------------------------------------------------------
 #N Geom=AllCheck Guess=TCheck SCRF=Check GenChk RB3LYP/6-31G(d) Freq
 --------------------------------------------------------------------

 Structure from the checkpoint file:  "JID_2960.chk"
 ------------------------------
 CID_13961643_JID_2960_neutraal
 ------------------------------
 Charge =  0 Multiplicity = 1

 SCF Done:  E(RB3LYP) =  -897.674489265     A.U. after    1 cycles

  Exact polarizability: 153.847   7.656 147.889   0.002  -0.002  55.717
 Approx polarizability: 234.978  17.505 236.988   0.007  -0.002  84.039

                      1                      2                      3
                      A                      A                      A
 Frequencies --     41.8648                57.7859                96.2390
 Red. masses --      5.9272                 1.0403                 3.8796
 Frc consts  --      0.0061                 0.0020                 0.0212
 IR Inten    --      0.2140                 0.1834                 0.4041

                      4                      5                      6
                      A                      A                      A
 Frequencies --    115.8011               153.2965               160.6621
 Red. masses --      3.1914                 1.1730                 3.6903
 Frc consts  --      0.0252                 0.0162                 0.0561
 IR Inten    --      1.8542                 0.0972                 0.6784

                      7                      8                      9
                      A                      A                      A
 Frequencies --    195.2986               245.9151               306.3191
 Red. masses --      3.9339                 5.0508                 4.1832
 Frc consts  --      0.0884                 0.1800                 0.2313
 IR Inten    --      2.0819                 2.6257                 2.7355

                     10                     11                     12
                      A                      A                      A
 Frequencies --    313.3183               358.3090               391.5857
 Red. masses --      4.5673                 6.4676                 1.0619
 Frc consts  --      0.2642                 0.4892                 0.0959
 IR Inten    --     12.0527                 1.1883                30.0882

                     13                     14                     15
                      A                      A                      A
 Frequencies --    392.7154               414.4583               444.8529
 Red. masses --      4.9437                 7.1529                 3.4502
 Frc consts  --      0.4492                 0.7239                 0.4023
 IR Inten    --     20.7083                 3.7535                 0.6898

                     16                     17                     18
                      A                      A                      A
 Frequencies --    497.1641               525.9676               658.7722
 Red. masses --      4.5694                 3.4958                 5.8235
 Frc consts  --      0.6654                 0.5698                 1.4890
 IR Inten    --      4.7114                10.8116                 5.6045

                     19                     20                     21
                      A                      A                      A
 Frequencies --    694.9570               702.6795               781.0147
 Red. masses --      6.9202                 4.7448                 6.6845
 Frc consts  --      1.9692                 1.3803                 2.4023
 IR Inten    --      6.3955                 1.3267                17.1372

                     22                     23                     24
                      A                      A                      A
 Frequencies --    804.6579               839.1038               921.3569
 Red. masses --      5.5307                 1.3439                 1.3697
 Frc consts  --      2.1098                 0.5575                 0.6851
 IR Inten    --      2.4081                14.6135                 1.2472

                     25                     26                     27
                      A                      A                      A
 Frequencies --    922.0729               938.0114               976.4820
 Red. masses --      2.8714                 1.3702                 1.3148
 Frc consts  --      1.4384                 0.7103                 0.7386
 IR Inten    --      1.7160                43.5840                 0.3993

                     28                     29                     30
                      A                      A                      A
 Frequencies --   1014.2981              1040.7123              1079.2140
 Red. masses --      3.2986                 1.7362                 1.5026
 Frc consts  --      1.9995                 1.1079                 1.0311
 IR Inten    --      3.5810                14.4713                 3.8291

                     31                     32                     33
                      A                      A                      A
 Frequencies --   1085.5827              1149.0906              1185.9937
 Red. masses --      7.2574                 2.9373                 1.2710
 Frc consts  --      5.0391                 2.2851                 1.0533
 IR Inten    --     96.1698                37.6352                 0.8270

                     34                     35                     36
                      A                      A                      A
 Frequencies --   1195.7466              1224.0259              1249.7906
 Red. masses --      1.3495                 1.5318                 2.3621
 Frc consts  --      1.1368                 1.3521                 2.1738
 IR Inten    --      0.5275                15.4984               107.7499

                     37                     38                     39
                      A                      A                      A
 Frequencies --   1297.5076              1316.5367              1368.1308
 Red. masses --      5.8629                 1.5293                 7.8706
 Frc consts  --      5.8155                 1.5617                 8.6799
 IR Inten    --    447.5336                26.6431                86.7066

                     40                     41                     42
                      A                      A                      A
 Frequencies --   1435.9472              1445.4964              1493.8074
 Red. masses --      2.6931                 1.2653                 1.2185
 Frc consts  --      3.2717                 1.5577                 1.6020
 IR Inten    --      6.5929                 0.0653                19.2373

                     43                     44                     45
                      A                      A                      A
 Frequencies --   1512.0436              1515.1688              1522.5360
 Red. masses --      1.0480                 1.0440                 1.3285
 Frc consts  --      1.4116                 1.4121                 1.8144
 IR Inten    --      5.7771                 5.9652                31.9718

                     46                     47                     48
                      A                      A                      A
 Frequencies --   1524.5500              1529.1685              1607.3895
 Red. masses --      1.0670                 1.8023                 5.3206
 Frc consts  --      1.4611                 2.4831                 8.0994
 IR Inten    --     17.3132                21.3627                31.4577

                     49                     50                     51
                      A                      A                      A
 Frequencies --   1670.5759              1754.7766              2613.0284
 Red. masses --      5.6345                10.4981                 1.0391
 Frc consts  --      9.2648                19.0461                 4.1804
 IR Inten    --      5.6635               215.6971               146.6949

                     52                     53                     54
                      A                      A                      A
 Frequencies --   3044.1453              3077.7465              3095.4283
 Red. masses --      1.0376                 1.0293                 1.1011
 Frc consts  --      5.6654                 5.7448                 6.2160
 IR Inten    --     38.3124                37.4206                20.1339

                     55                     56                     57
                      A                      A                      A
 Frequencies --   3129.2742              3153.1529              3179.9365
 Red. masses --      1.1006                 1.1076                 1.0877
 Frc consts  --      6.3501                 6.4881                 6.4802
 IR Inten    --     15.1278                19.6363                11.1104

                     58                     59                     60
                      A                      A                      A
 Frequencies --   3184.3580              3200.3502              3235.1853
 Red. masses --      1.1073                 1.0942                 1.0897
 Frc consts  --      6.6154                 6.6031                 6.7198
 IR Inten    --     16.6671                12.7311                 2.7695

 - Thermochemistry -
 -------------------
 Temperature   298.150 Kelvin.  Pressure   1.00000 Atm.
 Atom     1 has atomic number  6 and mass  12.00000

 Molecular mass:   182.04015 amu.
 Principal axes and moments of inertia in atomic units:
                           1         2         3
     Eigenvalues --  1872.175642564.156244413.73869
           X            1.00000   0.00070  -0.00000
           Y           -0.00070   1.00000  -0.00000
           Z            0.00000   0.00000   1.00000
 This molecule is an asymmetric top.
 Rotational symmetry number  1.
 Warning -- assumption of classical behavior for rotation
           may cause significant error
 Rotational temperatures (Kelvin)      0.04626     0.03378     0.01962
 Rotational constants (GHZ):           0.96398     0.70383     0.40889
 Zero-point vibrational energy     449086.2 (Joules/Mol)
                                  107.33419 (Kcal/Mol)
 Warning -- explicit consideration of  17 degrees of freedom as
           vibrations may cause significant error
 Vibrational temperatures:     60.23    83.14   138.47   166.61   220.56
          (Kelvin)            231.16   280.99   353.82   440.72   450.80
                              515.53   563.40   565.03   596.31   640.04
                              715.31   756.75   947.83   999.89  1011.00
                             1123.71  1157.72  1207.28  1325.63  1326.66
                             1349.59  1404.94  1459.35  1497.35  1552.75
                             1561.91  1653.29  1706.38  1720.41  1761.10
                             1798.17  1866.82  1894.20  1968.44  2066.01
                             2079.75  2149.26  2175.49  2179.99  2190.59
                             2193.49  2200.13  2312.68  2403.59  2524.73
                             3759.57  4379.85  4428.19  4453.63  4502.33
                             4536.68  4575.22  4581.58  4604.59  4654.71

 Zero-point correction=                           0.171048 (Hartree/Particle)
 Thermal correction to Energy=                    0.183173
 Thermal correction to Enthalpy=                  0.184117
 Thermal correction to Gibbs Free Energy=         0.131844
 Sum of electronic and zero-point Energies=           -897.503441
 Sum of electronic and thermal Energies=              -897.491317
 Sum of electronic and thermal Enthalpies=            -897.490372
 Sum of electronic and thermal Free Energies=         -897.542645

                     E (Thermal)             CV                S
                      KCal/Mol        Cal/Mol-Kelvin    Cal/Mol-Kelvin
 Total                  114.943             44.050            110.018
 Electronic               0.000              0.000              0.000
 Translational            0.889              2.981             41.504
 Rotational               0.889              2.981             31.427
 Vibrational            113.165             38.088             37.087
 Vibration     1          0.594              1.980              5.169
 Vibration     2          0.596              1.974              4.531
 Vibration     3          0.603              1.952              3.529
 Vibration     4          0.608              1.936              3.169
 Vibration     5          0.619              1.899              2.631
 Vibration     6          0.622              1.891              2.542
 Vibration     7          0.636              1.846              2.177
 Vibration     8          0.660              1.770              1.760
 Vibration     9          0.697              1.662              1.382
 Vibration    10          0.701              1.648              1.345
 Vibration    11          0.733              1.558              1.129
 Vibration    12          0.759              1.488              0.994
 Vibration    13          0.760              1.486              0.990
 Vibration    14          0.778              1.439              0.911
 Vibration    15          0.804              1.372              0.811
 Vibration    16          0.853              1.256              0.665
 Vibration    17          0.881              1.193              0.596

 Optimization completed.
    -- Stationary point found.
 Normal termination of Gaussian 16 at Wed Dec  9 18:27:43 2020.

 ----------------------------------------------------------------------
 # B3LYP/6-311++G(d,p) empiricaldispersion=gd3bj scf=xqc pop=npa geom=c
 heck
 ----------------------------------------------------------------------

 --------------------------------------
 CID_13961643_JID_2960_Energie_neutraal
 --------------------------------------
 Structure from the checkpoint file:  "JID_2960.chk"
 Charge =  0 Multiplicity = 1

 SCF Done:  E(RB3LYP) =  -897.841485829     A.U. after   15 cycles
 Normal termination of Gaussian 16 at Wed Dec  9 18:30:04 2020.

 ----------------------------------------------------------------------
 # B3LYP/6-311++G(d,p) empiricaldispersion=gd3bj scf=xqc pop=npa geom=c
 heck
 ----------------------------------------------------------------------

 ------------------------------------
 CID_13961643_JID_2960_Energie_kation
 ------------------------------------
 Structure from the checkpoint file:  "JID_2960.chk"
 Charge =  1 Multiplicity = 2

 SCF Done:  E(UB3LYP) =  -897.550819669     A.U. after   22 cycles
 Normal termination of Gaussian 16 at Wed Dec  9 18:34:52 2020.
 Gaussian 16:  ES64L-G16RevA.03 25-Dec-2016

 ----------------------------------------------------------------------
 # B3LYP/6-311++G(d,p) empiricaldispersion=gd3bj scf=xqc pop=npa geom=c
 heck
 ----------------------------------------------------------------------

 -----------------------------------
 CID_13961643_JID_2960_Energie_anion
 -----------------------------------
 Structure from the checkpoint file:  "JID_2960.chk"
 Charge = -1 Multiplicity = 2

                         Standard orientation:
 ---------------------------------------------------------------------
 Center     Atomic      Atomic             Coordinates (Angstroms)
 Number     Number       Type             X           Y           Z
 ---------------------------------------------------------------------
      1          6           0       -3.118559   -2.196482    0.000183
      2          6           0       -2.188087   -1.009289   -0.000028
      3          6           0       -0.809222   -1.167266    0.000016
      4          6           0        0.084217   -0.075364   -0.000006
      5          6           0       -0.442017    1.238664   -0.000073
      6          6           0       -1.839570    1.394272   -0.000155
      7          6           0       -2.690231    0.302028   -0.000148
      8         16           0        0.479539    2.755812    0.000056
      9          6           0        1.541026   -0.357925    0.000035
     10          8           0        2.444790    0.468010    0.000196
     11          8           0        1.811771   -1.681417   -0.000120
     12          6           0        3.205116   -2.023333   -0.000110
     13          1           0       -2.560789   -3.137656   -0.000282
     14          1           0       -3.771020   -2.193195   -0.881621
     15          1           0       -3.770062   -2.193557    0.882710
     16          1           0       -0.389719   -2.165848    0.000061
     17          1           0       -2.252515    2.398923   -0.000240
     18          1           0       -3.765378    0.466152   -0.000259
     19          1           0        1.697233    2.167235    0.000161
     20          1           0        3.698383   -1.622960   -0.889391
     21          1           0        3.698196   -1.623633    0.889582
     22          1           0        3.234527   -3.113017   -0.000510
 ---------------------------------------------------------------------

 SCF Done:  E(UB3LYP) =  -897.845682515     A.U. after   22 cycles

 The electronic state is 2-A.
 Alpha  occ. eigenvalues --  -88.68998 -19.01007 -18.93382 -10.11384 -10.09993
 Alpha  occ. eigenvalues --  -10.04500 -10.04225 -10.02403 -10.01629 -10.01391
 Alpha  occ. eigenvalues --  -10.00880 -10.00402  -7.77786  -5.74112  -5.73755
 Alpha  occ. eigenvalues --   -5.73280  -0.95037  -0.85329  -0.70856  -0.64616
 Alpha  occ. eigenvalues --   -0.61929  -0.58799  -0.57590  -0.52145  -0.47541
 Alpha  occ. eigenvalues --   -0.44052  -0.41333  -0.36573  -0.34611  -0.33319
 Alpha  occ. eigenvalues --   -0.32950  -0.31117  -0.30075  -0.29269  -0.26985
 Alpha  occ. eigenvalues --   -0.26188  -0.26066  -0.25134  -0.22011  -0.21534
 Alpha  occ. eigenvalues --   -0.21194  -0.19934  -0.18101  -0.16457  -0.13996
 Alpha  occ. eigenvalues --   -0.11394  -0.10697  -0.06628   0.05688
 Alpha virt. eigenvalues --    0.08448   0.08946   0.10623   0.11737   0.11861
 Alpha virt. eigenvalues --    0.12127   0.12821   0.13371   0.13812   0.14137
 Alpha virt. eigenvalues --    0.14680   0.16316   0.17244   0.17334   0.18043

  Beta  occ. eigenvalues --  -88.68989 -19.00907 -18.92973 -10.11045 -10.09999
  Beta  occ. eigenvalues --  -10.04251 -10.04220 -10.02487 -10.01688 -10.01234
  Beta  occ. eigenvalues --  -10.00694 -10.00004  -7.77777  -5.74115  -5.73753
  Beta  occ. eigenvalues --   -5.73239  -0.94666  -0.84701  -0.70461  -0.64370
  Beta  occ. eigenvalues --   -0.61493  -0.58638  -0.57369  -0.51878  -0.46734
  Beta  occ. eigenvalues --   -0.43879  -0.41092  -0.36368  -0.34169  -0.33032
  Beta  occ. eigenvalues --   -0.32740  -0.30842  -0.29868  -0.29197  -0.26838
  Beta  occ. eigenvalues --   -0.25940  -0.25028  -0.24724  -0.21852  -0.21356
  Beta  occ. eigenvalues --   -0.20131  -0.19722  -0.17949  -0.15104  -0.13169
  Beta  occ. eigenvalues --   -0.11037  -0.08999  -0.05813
  Beta virt. eigenvalues --    0.08417   0.08892   0.10568   0.11470   0.11704
  Beta virt. eigenvalues --    0.12108   0.12487   0.12838   0.13372   0.13779
  Beta virt. eigenvalues --    0.14522   0.14616   0.16263   0.17341   0.17347

 Mulliken charges and spin densities:
               1          2
     1  C   -0.442469   0.013256
     2  C    0.211890  -0.080914
     3  C   -1.536253   0.148298
     4  C    1.095317   0.133035
     5  C    0.528979   0.159210
     6  C   -0.896805  -0.057503
     7  C    0.223762   0.359311
     8  S   -0.767179   0.029056
     9  C    0.089402   0.165981
    10  O   -0.366112   0.126838
    11  O   -0.139104   0.018369
    12  C   -0.238369  -0.003693
    13  H    0.135442  -0.000597
    14  H    0.109548   0.011638
    15  H    0.109603   0.011636
    16  H    0.137250  -0.011732
    17  H    0.096216   0.001999
    18  H    0.102936  -0.028209
    19  H    0.128921  -0.002761
    20  H    0.154245   0.003690
    21  H    0.154210   0.003706
    22  H    0.108572  -0.000613
 Sum of Mulliken charges =  -1.00000   1.00000

 Dipole moment (field-independent basis, Debye):
    X=              0.4328    Y=             -3.2692    Z=             -0.0001  Tot=              3.2977
 Quadrupole moment (field-independent basis, Debye-Ang):
   XX=           -100.5268   YY=            -97.8179   ZZ=            -88.2860
   XY=             -5.6518   XZ=             -0.0012   YZ=             -0.0005

 Summary of Natural Population Analysis:

                                       Natural Population
                Natural  -----------------------------------------------
    Atom  No    Charge         Core      Valence    Rydberg      Total
 -----------------------------------------------------------------------
      C    1   -0.28511      0.99964     2.28094    0.00452     3.28511
      C    2   -0.05735      0.99951     2.04960    0.00823     3.05735
      C    3   -0.04254      0.99950     2.03519    0.00785     3.04254
      C    4   -0.06839      0.99940     2.05883    0.01015     3.06839
      C    5   -0.01683      0.99939     2.00794    0.00951     3.01683
      C    6   -0.13404      0.99953     2.12462    0.00990     3.13404
      C    7   -0.01979      0.99952     2.01100    0.00927     3.01979
      S    8   -0.03055      4.99954     3.01297    0.01803     8.03055
      C    9    0.44694      0.99964     1.53105    0.02238     2.55306
      O   10   -0.30574      0.99986     3.29851    0.00737     4.30574
      O   11   -0.28127      0.99986     3.27190    0.00952     4.28127
      C   12   -0.10365      0.99961     2.09539    0.00865     3.10365
      H   13    0.09538      0.00000     0.40363    0.00100     0.40462
      H   14    0.09329      0.00000     0.40554    0.00117     0.40671
      H   15    0.09329      0.00000     0.40554    0.00117     0.40671
      H   16    0.09819      0.00000     0.40081    0.00100     0.40181
      H   17    0.09029      0.00000     0.40772    0.00199     0.40971
      H   18    0.08241      0.00000     0.41611    0.00148     0.41759
      H   19    0.09321      0.00000     0.40352    0.00327     0.40679
      H   20    0.08615      0.00000     0.41251    0.00134     0.41385
      H   21    0.08615      0.00000     0.41252    0.00134     0.41385
      H   22    0.07997      0.00000     0.41913    0.00090     0.42003
 =======================================================================
   * Total *    0.00000     15.99500    31.86496    0.14004    48.00000

 Normal termination of Gaussian 16 at Wed Dec  9 18:39:19 2020.
