 Gaussian 16, Revision A.03,

 -----------------------------------------------------------
 # opt freq B3LYP/6-31G(d) empiricaldispersion=gd3bj scf=xqc
 -----------------------------------------------------------

 -------------------------------
 CID_129973065_JID_3615_neutraal
 -------------------------------
 Symbolic Z-matrix:
 Charge =  0 Multiplicity = 1

 SCF Done:  E(RB3LYP) =  -950.373270242     A.U. after   14 cycles
 SCF Done:  E(RB3LYP) =  -950.383229188     A.U. after   12 cycles
 SCF Done:  E(RB3LYP) =  -950.384255461     A.U. after   11 cycles
 SCF Done:  E(RB3LYP) =  -950.384607233     A.U. after   11 cycles
 SCF Done:  E(RB3LYP) =  -950.384691021     A.U. after   10 cycles
 SCF Done:  E(RB3LYP) =  -950.384727552     A.U. after   10 cycles
 SCF Done:  E(RB3LYP) =  -950.384755838     A.U. after   10 cycles
 SCF Done:  E(RB3LYP) =  -950.384772702     A.U. after    9 cycles
 SCF Done:  E(RB3LYP) =  -950.384783959     A.U. after    9 cycles
 SCF Done:  E(RB3LYP) =  -950.384788994     A.U. after    9 cycles
 SCF Done:  E(RB3LYP) =  -950.384790051     A.U. after    8 cycles
 SCF Done:  E(RB3LYP) =  -950.384790561     A.U. after    8 cycles
 SCF Done:  E(RB3LYP) =  -950.384790652     A.U. after    7 cycles
 Optimization completed.
    -- Stationary point found.
 Normal termination of Gaussian 16 at Wed Dec  9 23:47:11 2020.

 --------------------------------------------------------------------
 #N Geom=AllCheck Guess=TCheck SCRF=Check GenChk RB3LYP/6-31G(d) Freq
 --------------------------------------------------------------------

 Structure from the checkpoint file:  "JID_3615.chk"
 -------------------------------
 CID_129973065_JID_3615_neutraal
 -------------------------------
 Charge =  0 Multiplicity = 1

 SCF Done:  E(RB3LYP) =  -950.384790652     A.U. after    1 cycles

  Exact polarizability: 137.588   6.643 124.823   0.088   5.548  89.727
 Approx polarizability: 185.947  21.755 192.778   0.167   9.781 144.614

                      1                      2                      3
                      A                      A                      A
 Frequencies --     72.9825                83.5529                94.1887
 Red. masses --      5.0882                 5.0319                 4.2231
 Frc consts  --      0.0160                 0.0207                 0.0221
 IR Inten    --      0.1422                 0.4691                 0.0850

                      4                      5                      6
                      A                      A                      A
 Frequencies --    149.0364               189.4371               196.7442
 Red. masses --      4.7485                 1.8150                 1.1242
 Frc consts  --      0.0621                 0.0384                 0.0256
 IR Inten    --      0.5291                 1.7712                 2.1187

                      7                      8                      9
                      A                      A                      A
 Frequencies --    214.1119               220.3322               233.1755
 Red. masses --      1.2553                 2.9416                 1.6749
 Frc consts  --      0.0339                 0.0841                 0.0537
 IR Inten    --      6.8696                 0.9319                 4.2068

                     10                     11                     12
                      A                      A                      A
 Frequencies --    296.0742               303.5470               327.7035
 Red. masses --      3.4120                 2.3116                 4.4935
 Frc consts  --      0.1762                 0.1255                 0.2843
 IR Inten    --      6.2011                 4.0831                 4.1285

                     13                     14                     15
                      A                      A                      A
 Frequencies --    398.4341               418.1439               461.6580
 Red. masses --      5.1673                 5.0953                 3.2695
 Frc consts  --      0.4833                 0.5249                 0.4106
 IR Inten    --      3.5029                 4.0207                 5.2652

                     16                     17                     18
                      A                      A                      A
 Frequencies --    504.9906               523.8028               566.0272
 Red. masses --      3.7122                 1.3847                 1.7891
 Frc consts  --      0.5578                 0.2238                 0.3377
 IR Inten    --      9.3954                41.6390                82.0212

                     19                     20                     21
                      A                      A                      A
 Frequencies --    573.9881               614.5872               628.2889
 Red. masses --      1.9893                 3.6181                 3.1546
 Frc consts  --      0.3862                 0.8052                 0.7337
 IR Inten    --     98.7024                31.8271                 1.3183

                     22                     23                     24
                      A                      A                      A
 Frequencies --    660.4730               670.7731               720.1861
 Red. masses --      4.1566                 2.3826                 1.9522
 Frc consts  --      1.0683                 0.6316                 0.5966
 IR Inten    --      4.4970                 4.0785                63.3113

                     25                     26                     27
                      A                      A                      A
 Frequencies --    753.3238               757.5158               855.7624
 Red. masses --      6.0453                 2.6731                 3.8077
 Frc consts  --      2.0213                 0.9038                 1.6429
 IR Inten    --     46.7271                 4.6611                 7.1343

                     28                     29                     30
                      A                      A                      A
 Frequencies --    905.2375               928.9115               985.2152
 Red. masses --      2.5900                 2.1533                 2.5022
 Frc consts  --      1.2505                 1.0947                 1.4310
 IR Inten    --      3.1453                 3.0841                56.3618

                     31                     32                     33
                      A                      A                      A
 Frequencies --   1024.9020              1067.6021              1080.4444
 Red. masses --      1.4877                 3.3524                 1.5679
 Frc consts  --      0.9207                 2.2513                 1.0784
 IR Inten    --      3.2410                 9.2829                 1.9103

                     34                     35                     36
                      A                      A                      A
 Frequencies --   1090.6285              1104.6890              1133.9429
 Red. masses --      2.0127                 2.3341                 2.1213
 Frc consts  --      1.4105                 1.6782                 1.6071
 IR Inten    --      7.4113                39.6622                 9.4955

                     37                     38                     39
                      A                      A                      A
 Frequencies --   1157.2169              1172.2723              1218.4306
 Red. masses --      1.4813                 1.6841                 2.6647
 Frc consts  --      1.1688                 1.3636                 2.3307
 IR Inten    --     34.8470                 9.2069                 1.8061

                     40                     41                     42
                      A                      A                      A
 Frequencies --   1233.4145              1268.3642              1287.0412
 Red. masses --      1.6202                 2.4097                 1.8068
 Frc consts  --      1.4523                 2.2840                 1.7633
 IR Inten    --     36.5685                58.7852                60.6823

                     43                     44                     45
                      A                      A                      A
 Frequencies --   1301.8431              1340.1733              1365.2237
 Red. masses --      2.1174                 1.6364                 1.8560
 Frc consts  --      2.1143                 1.7317                 2.0382
 IR Inten    --     30.2383                17.1915                53.2544

                     46                     47                     48
                      A                      A                      A
 Frequencies --   1371.2391              1403.4530              1427.3717
 Red. masses --      1.2835                 1.6349                 1.4918
 Frc consts  --      1.4219                 1.8973                 1.7908
 IR Inten    --     83.2699                97.5868                12.8615

                     49                     50                     51
                      A                      A                      A
 Frequencies --   1428.9392              1444.7050              1457.8283
 Red. masses --      1.8931                 1.4602                 1.7781
 Frc consts  --      2.2774                 1.7956                 2.2264
 IR Inten    --     77.3067                 2.3943                21.4733

                     52                     53                     54
                      A                      A                      A
 Frequencies --   1480.9755              1488.7421              1507.4189
 Red. masses --      1.7582                 1.2366                 1.0452
 Frc consts  --      2.2720                 1.6149                 1.3993
 IR Inten    --     78.5837                 6.8869                14.3864

                     55                     56                     57
                      A                      A                      A
 Frequencies --   1516.2414              1529.6174              1536.2900
 Red. masses --      1.0802                 1.0654                 1.0558
 Frc consts  --      1.4632                 1.4687                 1.4681
 IR Inten    --     16.4352                 3.0681                 8.4284

                     58                     59                     60
                      A                      A                      A
 Frequencies --   1697.1718              1816.7451              2690.1159
 Red. masses --      6.7879                 7.2970                 1.0382
 Frc consts  --     11.5196                14.1899                 4.4265
 IR Inten    --     49.8326               572.5414                10.8627

                     61                     62                     63
                      A                      A                      A
 Frequencies --   2909.7519              2945.3489              2973.7581
 Red. masses --      1.0782                 1.0813                 1.0592
 Frc consts  --      5.3787                 5.5268                 5.5189
 IR Inten    --     53.9540                40.5019                82.6659

                     64                     65                     66
                      A                      A                      A
 Frequencies --   3046.4981              3064.7845              3097.0164
 Red. masses --      1.0390                 1.0864                 1.1005
 Frc consts  --      5.6814                 6.0124                 6.2192
 IR Inten    --     21.0421                20.9988                15.0186

                     67                     68                     69
                      A                      A                      A
 Frequencies --   3107.9918              3146.4172              3152.3891
 Red. masses --      1.0761                 1.0995                 1.1018
 Frc consts  --      6.1242                 6.4133                 6.4510
 IR Inten    --     21.8915                17.0756                13.6903

                     70                     71                     72
                      A                      A                      A
 Frequencies --   3243.5409              3606.6418              3633.3612
 Red. masses --      1.0948                 1.0765                 1.0769
 Frc consts  --      6.7862                 8.2499                 8.3761
 IR Inten    --      6.3665                28.3764                40.5113

 - Thermochemistry -
 -------------------
 Temperature   298.150 Kelvin.  Pressure   1.00000 Atm.
 Atom     1 has atomic number  6 and mass  12.00000

 Molecular mass:   199.07793 amu.
 Principal axes and moments of inertia in atomic units:
                           1         2         3
     Eigenvalues --  1737.369543150.821514294.67254
           X            0.99984  -0.01661   0.00627
           Y            0.01639   0.99928   0.03414
           Z           -0.00683  -0.03403   0.99940
 This molecule is an asymmetric top.
 Rotational symmetry number  1.
 Warning -- assumption of classical behavior for rotation
           may cause significant error
 Rotational temperatures (Kelvin)      0.04985     0.02749     0.02017
 Rotational constants (GHZ):           1.03878     0.57278     0.42023
 Zero-point vibrational energy     561519.6 (Joules/Mol)
                                  134.20641 (Kcal/Mol)
 Warning -- explicit consideration of  20 degrees of freedom as
           vibrations may cause significant error
 Vibrational temperatures:    105.01   120.21   135.52   214.43   272.56
          (Kelvin)            283.07   308.06   317.01   335.49   425.98
                              436.74   471.49   573.26   601.62   664.22
                              726.57   753.64   814.39   825.84   884.25
                              903.97   950.27   965.09  1036.19  1083.86
                             1089.90  1231.25  1302.43  1336.50  1417.50
                             1474.61  1536.04  1554.52  1569.17  1589.40
                             1631.49  1664.98  1686.64  1753.05  1774.61
                             1824.89  1851.77  1873.06  1928.21  1964.25
                             1972.91  2019.26  2053.67  2055.92  2078.61
                             2097.49  2130.79  2141.97  2168.84  2181.53
                             2200.78  2210.38  2441.85  2613.89  3870.48
                             4186.48  4237.70  4278.57  4383.23  4409.54
                             4455.92  4471.71  4526.99  4535.58  4666.73
                             5189.15  5227.60

 Zero-point correction=                           0.213872 (Hartree/Particle)
 Thermal correction to Energy=                    0.226640
 Thermal correction to Enthalpy=                  0.227584
 Thermal correction to Gibbs Free Energy=         0.175152
 Sum of electronic and zero-point Energies=           -950.170919
 Sum of electronic and thermal Energies=              -950.158151
 Sum of electronic and thermal Enthalpies=            -950.157207
 Sum of electronic and thermal Free Energies=         -950.209639

                     E (Thermal)             CV                S
                      KCal/Mol        Cal/Mol-Kelvin    Cal/Mol-Kelvin
 Total                  142.218             49.036            110.352
 Electronic               0.000              0.000              0.000
 Translational            0.889              2.981             41.770
 Rotational               0.889              2.981             31.531
 Vibrational            140.441             43.074             37.050
 Vibration     1          0.599              1.967              4.071
 Vibration     2          0.600              1.960              3.806
 Vibration     3          0.603              1.953              3.571
 Vibration     4          0.618              1.904              2.684
 Vibration     5          0.633              1.854              2.233
 Vibration     6          0.636              1.844              2.163
 Vibration     7          0.644              1.819              2.008
 Vibration     8          0.647              1.810              1.956
 Vibration     9          0.654              1.790              1.854
 Vibration    10          0.690              1.681              1.439
 Vibration    11          0.695              1.667              1.397
 Vibration    12          0.711              1.620              1.271
 Vibration    13          0.765              1.473              0.968
 Vibration    14          0.781              1.431              0.898
 Vibration    15          0.819              1.335              0.761
 Vibration    16          0.860              1.239              0.646
 Vibration    17          0.879              1.197              0.601
 Vibration    18          0.922              1.105              0.512
 Vibration    19          0.930              1.088              0.497
 Vibration    20          0.974              1.001              0.425

 Optimization completed.
    -- Stationary point found.
 Normal termination of Gaussian 16 at Wed Dec  9 23:54:50 2020.

 ----------------------------------------------------------------------
 # B3LYP/6-311++G(d,p) empiricaldispersion=gd3bj scf=xqc pop=npa geom=c
 heck
 ----------------------------------------------------------------------

 ---------------------------------------
 CID_129973065_JID_3615_Energie_neutraal
 ---------------------------------------
 Structure from the checkpoint file:  "JID_3615.chk"
 Charge =  0 Multiplicity = 1

 SCF Done:  E(RB3LYP) =  -950.576941268     A.U. after   17 cycles
 Normal termination of Gaussian 16 at Wed Dec  9 23:58:39 2020.

 ----------------------------------------------------------------------
 # B3LYP/6-311++G(d,p) empiricaldispersion=gd3bj scf=xqc pop=npa geom=c
 heck
 ----------------------------------------------------------------------

 -------------------------------------
 CID_129973065_JID_3615_Energie_kation
 -------------------------------------
 Structure from the checkpoint file:  "JID_3615.chk"
 Charge =  1 Multiplicity = 2

 SCF Done:  E(UB3LYP) =  -950.291869560     A.U. after   27 cycles
 Normal termination of Gaussian 16 at Thu Dec 10 00:07:25 2020.
 Gaussian 16:  ES64L-G16RevA.03 25-Dec-2016

 ----------------------------------------------------------------------
 # B3LYP/6-311++G(d,p) empiricaldispersion=gd3bj scf=xqc pop=npa geom=c
 heck
 ----------------------------------------------------------------------

 ------------------------------------
 CID_129973065_JID_3615_Energie_anion
 ------------------------------------
 Structure from the checkpoint file:  "JID_3615.chk"
 Charge = -1 Multiplicity = 2

                         Standard orientation:
 ---------------------------------------------------------------------
 Center     Atomic      Atomic             Coordinates (Angstroms)
 Number     Number       Type             X           Y           Z
 ---------------------------------------------------------------------
      1          6           0        3.683597   -0.936242   -0.284459
      2          6           0        2.196297   -0.814035   -0.214761
      3          6           0        1.272755   -1.727990   -0.578802
      4          6           0       -0.073599   -1.056805   -0.518387
      5          6           0        0.223331    0.045717    0.495870
      6          7           0        1.603301    0.404076    0.206284
      7          6           0        2.264157    1.236792    1.195883
      8          6           0       -0.877943    1.100388    0.485987
      9          7           0       -2.125428    0.366708    0.518700
     10          6           0       -2.372110   -0.976323    0.238969
     11          8           0       -3.506968   -1.429712    0.282098
     12          7           0       -1.255614   -1.752142   -0.039811
     13         16           0       -0.767568    2.362731   -0.874476
     14          1           0        4.145333   -0.871449    0.708444
     15          1           0        4.114291   -0.135248   -0.898030
     16          1           0        3.962830   -1.895830   -0.725958
     17          1           0        1.484077   -2.667626   -1.072936
     18          1           0       -0.281127   -0.603772   -1.508093
     19          1           0        0.173167   -0.438730    1.489415
     20          1           0        2.277733    0.779895    2.201292
     21          1           0        3.292599    1.437497    0.888036
     22          1           0        1.744448    2.197287    1.253443
     23          1           0       -0.808455    1.732147    1.378430
     24          1           0       -2.976918    0.890244    0.666519
     25          1           0       -1.505248   -2.636468   -0.464070
     26          1           0       -0.740607    1.486552   -1.899674
 ---------------------------------------------------------------------

 SCF Done:  E(UB3LYP) =  -950.566721298     A.U. after   33 cycles
 SCF Done:  E(UB3LYP) =  -950.566721298     a.u. after    1 cycles

 The electronic state is 2-A.
 Alpha  occ. eigenvalues --  -88.75067 -18.99347 -14.25030 -14.24306 -14.23504
 Alpha  occ. eigenvalues --  -10.20951 -10.16189 -10.12666 -10.12422 -10.11713
 Alpha  occ. eigenvalues --  -10.09588 -10.07480 -10.06255  -7.83780  -5.80151
 Alpha  occ. eigenvalues --   -5.79804  -5.79155  -0.96202  -0.88220  -0.84936
 Alpha  occ. eigenvalues --   -0.82076  -0.70342  -0.69771  -0.65743  -0.60569
 Alpha  occ. eigenvalues --   -0.58856  -0.56118  -0.53391  -0.48945  -0.44892
 Alpha  occ. eigenvalues --   -0.43484  -0.41676  -0.41127  -0.39213  -0.37275
 Alpha  occ. eigenvalues --   -0.36075  -0.34801  -0.33557  -0.32766  -0.31974
 Alpha  occ. eigenvalues --   -0.31351  -0.30612  -0.29648  -0.27913  -0.27073
 Alpha  occ. eigenvalues --   -0.26101  -0.25131  -0.20766  -0.18463  -0.17510
 Alpha  occ. eigenvalues --   -0.16707  -0.15058  -0.11030   0.04182
 Alpha virt. eigenvalues --    0.06282   0.06715   0.07792   0.08598   0.09228
 Alpha virt. eigenvalues --    0.09354   0.09510   0.10193   0.11044   0.11414
 Alpha virt. eigenvalues --    0.12270   0.12509   0.13525   0.13913   0.14038

  Beta  occ. eigenvalues --  -88.75056 -18.99345 -14.25020 -14.24300 -14.23495
  Beta  occ. eigenvalues --  -10.20951 -10.16164 -10.12652 -10.12417 -10.11716
  Beta  occ. eigenvalues --  -10.09537 -10.07428 -10.06238  -7.83767  -5.80130
  Beta  occ. eigenvalues --   -5.79797  -5.79145  -0.96195  -0.88204  -0.84920
  Beta  occ. eigenvalues --   -0.82055  -0.70311  -0.69740  -0.65695  -0.60508
  Beta  occ. eigenvalues --   -0.58786  -0.56063  -0.53351  -0.48906  -0.44845
  Beta  occ. eigenvalues --   -0.43443  -0.41606  -0.41089  -0.39179  -0.37238
  Beta  occ. eigenvalues --   -0.36039  -0.34751  -0.33529  -0.32729  -0.31938
  Beta  occ. eigenvalues --   -0.31301  -0.30563  -0.29598  -0.27869  -0.27018
  Beta  occ. eigenvalues --   -0.26060  -0.25086  -0.20735  -0.18450  -0.17490
  Beta  occ. eigenvalues --   -0.16689  -0.15031  -0.10986
  Beta virt. eigenvalues --    0.06556   0.07402   0.07463   0.08188   0.09111
  Beta virt. eigenvalues --    0.09593   0.09771   0.09970   0.10594   0.11340
  Beta virt. eigenvalues --    0.11886   0.12723   0.12854   0.13804   0.14210

 Mulliken charges and spin densities:
               1          2
     1  C    2.162122  -2.588842
     2  C   -0.687867   0.959799
     3  C   -0.443316   0.287875
     4  C    1.037648  -1.215103
     5  C   -3.022499   1.410369
     6  N    0.283846   0.188249
     7  C    1.072560  -1.434309
     8  C    1.666703  -1.556666
     9  N   -0.241936   0.029366
    10  C    0.288723  -0.011398
    11  O   -0.405537   0.002886
    12  N   -0.130855   0.033260
    13  S    0.303523  -0.472842
    14  H   -0.362676   0.541404
    15  H   -0.350574   0.534119
    16  H   -0.363247   0.520640
    17  H   -0.504795   0.669765
    18  H   -0.022320   0.193046
    19  H    0.061777   0.150339
    20  H   -0.325992   0.477743
    21  H   -0.244660   0.412718
    22  H   -0.386429   0.509483
    23  H   -0.725257   1.063471
    24  H    0.206042   0.094582
    25  H    0.296219  -0.001396
    26  H   -0.161202   0.201441
 Sum of Mulliken charges =  -1.00000   1.00000

 Dipole moment (field-independent basis, Debye):
    X=             -4.2897    Y=             -1.0332    Z=             -2.2145  Tot=              4.9369
 Quadrupole moment (field-independent basis, Debye-Ang):
   XX=           -166.5937   YY=           -129.7248   ZZ=           -120.7857
   XY=             -1.8385   XZ=              1.0797   YZ=             -4.7195

 Summary of Natural Population Analysis:

                                       Natural Population
                Natural  -----------------------------------------------
    Atom  No    Charge         Core      Valence    Rydberg      Total
 -----------------------------------------------------------------------
      C    1   -0.30511      0.99962     2.29941    0.00608     3.30511
      C    2    0.11791      0.99948     1.86930    0.01331     2.88209
      C    3   -0.15224      0.99943     2.14209    0.01072     3.15224
      C    4   -0.02085      0.99953     2.00844    0.01288     3.02085
      C    5   -0.00772      0.99951     1.99292    0.01530     3.00772
      N    6   -0.26001      0.99964     2.74697    0.01340     3.76001
      C    7   -0.17894      0.99964     2.17029    0.00901     3.17894
      C    8   -0.05965      0.99951     2.04255    0.01759     3.05965
      N    9   -0.33460      0.99966     2.82456    0.01038     3.83460
      C   10    0.40967      0.99970     1.56789    0.02274     2.59033
      O   11   -0.33813      0.99988     3.33290    0.00535     4.33813
      N   12   -0.32872      0.99966     2.81983    0.00923     3.82872
      S   13   -0.01993      4.99965     3.00651    0.01377     8.01993
      H   14    0.11028      0.00000     0.38781    0.00191     0.38972
      H   15    0.11045      0.00000     0.38788    0.00167     0.38955
      H   16    0.10985      0.00000     0.38880    0.00136     0.39015
      H   17    0.10545      0.00000     0.39359    0.00096     0.39455
      H   18    0.08621      0.00000     0.41150    0.00229     0.41379
      H   19    0.09784      0.00000     0.39935    0.00281     0.40216
      H   20    0.08710      0.00000     0.41104    0.00186     0.41290
      H   21    0.10409      0.00000     0.39421    0.00170     0.39591
      H   22    0.10209      0.00000     0.39593    0.00198     0.39791
      H   23    0.10890      0.00000     0.38868    0.00241     0.39110
      H   24    0.20190      0.00000     0.29601    0.00209     0.29810
      H   25    0.19507      0.00000     0.30278    0.00215     0.30493
      H   26    0.05910      0.00000     0.43757    0.00333     0.44090
 =======================================================================
   * Total *   -0.00000     16.99491    35.81879    0.18630    53.00000

 Normal termination of Gaussian 16 at Thu Dec 10 00:18:09 2020.
