 Gaussian 16, Revision A.03,

 -----------------------------------------------------------
 # opt freq B3LYP/6-31G(d) empiricaldispersion=gd3bj scf=xqc
 -----------------------------------------------------------

 -----------------------------
 CID_9920744_JID_6336_neutraal
 -----------------------------
 Symbolic Z-matrix:
 Charge =  0 Multiplicity = 1

 SCF Done:  E(RB3LYP) =  -666.192549052     A.U. after   15 cycles
 SCF Done:  E(RB3LYP) =  -666.212223218     A.U. after   13 cycles
 SCF Done:  E(RB3LYP) =  -666.215977275     A.U. after   12 cycles
 SCF Done:  E(RB3LYP) =  -666.217351227     A.U. after   11 cycles
 SCF Done:  E(RB3LYP) =  -666.217788810     A.U. after   11 cycles
 SCF Done:  E(RB3LYP) =  -666.217903380     A.U. after   11 cycles
 SCF Done:  E(RB3LYP) =  -666.217941769     A.U. after   10 cycles
 SCF Done:  E(RB3LYP) =  -666.217952536     A.U. after    9 cycles
 SCF Done:  E(RB3LYP) =  -666.217955369     A.U. after    8 cycles
 SCF Done:  E(RB3LYP) =  -666.217956050     A.U. after    7 cycles
 SCF Done:  E(RB3LYP) =  -666.217956239     A.U. after    7 cycles
 Optimization completed.
    -- Stationary point found.
 Normal termination of Gaussian 16 at Thu Dec 10 22:10:36 2020.

 --------------------------------------------------------------------
 #N Geom=AllCheck Guess=TCheck SCRF=Check GenChk RB3LYP/6-31G(d) Freq
 --------------------------------------------------------------------

 Structure from the checkpoint file:  "JID_6336.chk"
 -----------------------------
 CID_9920744_JID_6336_neutraal
 -----------------------------
 Charge =  0 Multiplicity = 1

 SCF Done:  E(RB3LYP) =  -666.217956239     A.U. after    1 cycles

  Exact polarizability: 243.082  -0.000 134.663 -10.940   0.000  82.424
 Approx polarizability: 368.392  -0.000 257.961 -27.077  -0.000 127.474

                      1                      2                      3
                      A                      A                      A
 Frequencies --     67.8541                96.5797               174.9856
 Red. masses --      4.8537                 4.4916                 4.9233
 Frc consts  --      0.0132                 0.0247                 0.0888
 IR Inten    --      0.2400                 0.0755                 1.7087

                      4                      5                      6
                      A                      A                      A
 Frequencies --    187.9034               227.0385               272.8317
 Red. masses --      3.3099                 4.2795                 2.2317
 Frc consts  --      0.0689                 0.1300                 0.0979
 IR Inten    --      0.0000                 0.1774                 8.2338

                      7                      8                      9
                      A                      A                      A
 Frequencies --    322.3814               323.6410               387.3615
 Red. masses --      3.9558                 3.7488                 4.1067
 Frc consts  --      0.2422                 0.2313                 0.3631
 IR Inten    --      0.6144                 4.0296                11.3434

                     10                     11                     12
                      A                      A                      A
 Frequencies --    415.3616               430.0793               469.8296
 Red. masses --      4.3745                 3.0692                 3.0335
 Frc consts  --      0.4447                 0.3345                 0.3945
 IR Inten    --      0.1548                17.3632                 1.2833

                     13                     14                     15
                      A                      A                      A
 Frequencies --    521.4157               566.9976               569.1319
 Red. masses --      7.5710                 2.1593                 4.2689
 Frc consts  --      1.2128                 0.4090                 0.8147
 IR Inten    --      8.7871               114.4224                 0.0919

                     16                     17                     18
                      A                      A                      A
 Frequencies --    590.4888               610.3701               619.8280
 Red. masses --      5.4892                 6.5387                 4.0166
 Frc consts  --      1.1277                 1.4353                 0.9092
 IR Inten    --      2.3219                 2.6296                12.7758

                     19                     20                     21
                      A                      A                      A
 Frequencies --    661.8657               707.3990               747.7672
 Red. masses --      4.8680                 3.9211                 5.9258
 Frc consts  --      1.2564                 1.1561                 1.9522
 IR Inten    --      0.4174                 4.0305                 5.0281

                     22                     23                     24
                      A                      A                      A
 Frequencies --    767.5757               771.0798               818.3632
 Red. masses --      5.8260                 4.2338                 4.6254
 Frc consts  --      2.0224                 1.4831                 1.8251
 IR Inten    --     20.2296                 0.4304                 0.0325

                     25                     26                     27
                      A                      A                      A
 Frequencies --    840.0963               864.4503               873.7949
 Red. masses --      3.6547                 1.4769                 2.1159
 Frc consts  --      1.5197                 0.6502                 0.9518
 IR Inten    --      0.0069                 6.0000                12.2303

                     28                     29                     30
                      A                      A                      A
 Frequencies --    910.5232               912.9511               936.0140
 Red. masses --      1.4506                 1.4746                 2.3624
 Frc consts  --      0.7086                 0.7242                 1.2195
 IR Inten    --     35.5550                 0.2428                 6.4882

                     31                     32                     33
                      A                      A                      A
 Frequencies --    950.8042               976.4483               988.2840
 Red. masses --      4.9352                 1.4450                 1.8043
 Frc consts  --      2.6287                 0.8117                 1.0383
 IR Inten    --     17.0767                 0.0531                 7.7671

                     34                     35                     36
                      A                      A                      A
 Frequencies --    998.0002              1013.2645              1018.4570
 Red. masses --      1.4023                 3.1661                 1.7748
 Frc consts  --      0.8229                 1.9152                 1.0846
 IR Inten    --      0.3754                11.1261                 4.1564

                     37                     38                     39
                      A                      A                      A
 Frequencies --   1061.5903              1070.0024              1094.3089
 Red. masses --      2.8698                 2.4298                 1.9442
 Frc consts  --      1.9055                 1.6391                 1.3717
 IR Inten    --     10.3013                12.2509                19.3458

                     40                     41                     42
                      A                      A                      A
 Frequencies --   1107.9824              1135.9189              1212.0964
 Red. masses --      1.3705                 1.9876                 1.1969
 Frc consts  --      0.9913                 1.5110                 1.0360
 IR Inten    --      4.1146                 0.0623                 4.4558

                     43                     44                     45
                      A                      A                      A
 Frequencies --   1215.9930              1217.8266              1228.6952
 Red. masses --      2.2006                 1.8050                 2.7969
 Frc consts  --      1.9172                 1.5773                 2.4878
 IR Inten    --      2.4736                 1.1355                17.7706

                     46                     47                     48
                      A                      A                      A
 Frequencies --   1234.1275              1271.2528              1275.7146
 Red. masses --      1.6555                 1.9829                 1.4753
 Frc consts  --      1.4856                 1.8881                 1.4146
 IR Inten    --      0.6045                 3.0227                11.8177

                     49                     50                     51
                      A                      A                      A
 Frequencies --   1329.5588              1332.8152              1344.2707
 Red. masses --      4.2281                 2.5248                 4.4686
 Frc consts  --      4.4037                 2.6425                 4.7577
 IR Inten    --      0.7397                18.7277                20.8534

                     52                     53                     54
                      A                      A                      A
 Frequencies --   1379.8213              1383.4876              1402.3446
 Red. masses --      2.1599                 2.0398                 1.6133
 Frc consts  --      2.4229                 2.3003                 1.8693
 IR Inten    --      0.0128                12.5172                13.8590

                     55                     56                     57
                      A                      A                      A
 Frequencies --   1451.1622              1463.3907              1494.1090
 Red. masses --      1.4601                 4.1137                 1.2669
 Frc consts  --      1.8115                 5.1905                 1.6663
 IR Inten    --     12.7270                81.3225                 7.1780

                     58                     59                     60
                      A                      A                      A
 Frequencies --   1503.7011              1540.5282              1548.6673
 Red. masses --      3.5014                 1.0901                 3.1743
 Frc consts  --      4.6646                 1.5243                 4.4855
 IR Inten    --      0.9411                 2.0461                 6.2201

                     61                     62                     63
                      A                      A                      A
 Frequencies --   1551.8023              1606.9561              1665.1563
 Red. masses --      1.1886                 6.9730                 9.0166
 Frc consts  --      1.6863                10.6090                14.7300
 IR Inten    --      1.1987                 0.0545                 7.0926

                     64                     65                     66
                      A                      A                      A
 Frequencies --   1685.6144              2971.8112              2975.6722
 Red. masses --      8.1454                 1.0721                 1.0721
 Frc consts  --     13.6358                 5.5786                 5.5933
 IR Inten    --      1.7336                47.5646                74.0942

                     67                     68                     69
                      A                      A                      A
 Frequencies --   3072.7708              3074.3046              3154.5934
 Red. masses --      1.0896                 1.0918                 1.0546
 Frc consts  --      6.0615                 6.0795                 6.1833
 IR Inten    --     54.4593                61.1266                15.7227

                     70                     71                     72
                      A                      A                      A
 Frequencies --   3164.3565              3182.9180              3216.4162
 Red. masses --      1.0873                 1.0957                 1.0929
 Frc consts  --      6.4144                 6.5400                 6.6613
 IR Inten    --      8.4727                67.7374                 7.9619

                     73                     74                     75
                      A                      A                      A
 Frequencies --   3217.7382              3242.9917              3530.3160
 Red. masses --      1.0924                 1.1186                 1.0758
 Frc consts  --      6.6640                 6.9313                 7.8995
 IR Inten    --      0.7834                 2.9840                 1.9428

 - Thermochemistry -
 -------------------
 Temperature   298.150 Kelvin.  Pressure   1.00000 Atm.
 Atom     1 has atomic number  6 and mass  12.00000

 Molecular mass:   209.09530 amu.
 Principal axes and moments of inertia in atomic units:
                           1         2         3
     Eigenvalues --  1066.708035549.486506070.51021
           X            1.00000   0.00000   0.00275
           Y           -0.00000   1.00000   0.00000
           Z           -0.00275  -0.00000   1.00000
 This molecule is an asymmetric top.
 Rotational symmetry number  1.
 Warning -- assumption of classical behavior for rotation
           may cause significant error
 Rotational temperatures (Kelvin)      0.08120     0.01561     0.01427
 Rotational constants (GHZ):           1.69188     0.32521     0.29730
 Zero-point vibrational energy     569566.0 (Joules/Mol)
                                  136.12954 (Kcal/Mol)
 Warning -- explicit consideration of  18 degrees of freedom as
           vibrations may cause significant error
 Vibrational temperatures:     97.63   138.96   251.77   270.35   326.66
          (Kelvin)            392.54   463.83   465.65   557.33   597.61
                              618.79   675.98   750.20   815.78   818.85
                              849.58   878.19   891.79   952.28  1017.79
                             1075.87  1104.37  1109.41  1177.44  1208.71
                             1243.75  1257.20  1310.04  1313.53  1346.72
                             1368.00  1404.89  1421.92  1435.90  1457.86
                             1465.33  1527.39  1539.49  1574.47  1594.14
                             1634.33  1743.94  1749.54  1752.18  1767.82
                             1775.63  1829.05  1835.47  1912.94  1917.62
                             1934.11  1985.26  1990.53  2017.66  2087.90
                             2105.49  2149.69  2163.49  2216.48  2228.19
                             2232.70  2312.05  2395.79  2425.22  4275.77
                             4281.33  4421.03  4423.24  4538.76  4552.80
                             4579.51  4627.71  4629.61  4665.94  5079.34

 Zero-point correction=                           0.216936 (Hartree/Particle)
 Thermal correction to Energy=                    0.227903
 Thermal correction to Enthalpy=                  0.228848
 Thermal correction to Gibbs Free Energy=         0.180105
 Sum of electronic and zero-point Energies=           -666.001020
 Sum of electronic and thermal Energies=              -665.990053
 Sum of electronic and thermal Enthalpies=            -665.989109
 Sum of electronic and thermal Free Energies=         -666.037852

                     E (Thermal)             CV                S
                      KCal/Mol        Cal/Mol-Kelvin    Cal/Mol-Kelvin
 Total                  143.012             46.496            102.588
 Electronic               0.000              0.000              0.000
 Translational            0.889              2.981             41.917
 Rotational               0.889              2.981             31.952
 Vibrational            141.234             40.534             28.719
 Vibration     1          0.598              1.970              4.215
 Vibration     2          0.603              1.952              3.522
 Vibration     3          0.627              1.873              2.381
 Vibration     4          0.633              1.856              2.248
 Vibration     5          0.651              1.800              1.902
 Vibration     6          0.676              1.723              1.578
 Vibration     7          0.707              1.631              1.298
 Vibration     8          0.708              1.628              1.292
 Vibration     9          0.756              1.497              1.010
 Vibration    10          0.779              1.437              0.908
 Vibration    11          0.791              1.405              0.858
 Vibration    12          0.827              1.317              0.738
 Vibration    13          0.876              1.203              0.607
 Vibration    14          0.923              1.103              0.510
 Vibration    15          0.925              1.098              0.506
 Vibration    16          0.948              1.052              0.466
 Vibration    17          0.969              1.010              0.432
 Vibration    18          0.980              0.990              0.417

                           ! Non-Optimized Parameters !
 Normal termination of Gaussian 16 at Thu Dec 10 22:19:13 2020.

 ----------------------------------------------------------------------
 # B3LYP/6-311++G(d,p) empiricaldispersion=gd3bj scf=xqc pop=npa geom=c
 heck
 ----------------------------------------------------------------------

 -------------------------------------
 CID_9920744_JID_6336_Energie_neutraal
 -------------------------------------
 Structure from the checkpoint file:  "JID_6336.chk"
 Charge =  0 Multiplicity = 1

 SCF Done:  E(RB3LYP) =  -666.382861994     A.U. after   14 cycles
 Normal termination of Gaussian 16 at Thu Dec 10 22:22:10 2020.

 ----------------------------------------------------------------------
 # B3LYP/6-311++G(d,p) empiricaldispersion=gd3bj scf=xqc pop=npa geom=c
 heck
 ----------------------------------------------------------------------

 -----------------------------------
 CID_9920744_JID_6336_Energie_kation
 -----------------------------------
 Structure from the checkpoint file:  "JID_6336.chk"
 Charge =  1 Multiplicity = 2

 SCF Done:  E(UB3LYP) =  -666.091046996     A.U. after   23 cycles
 Normal termination of Gaussian 16 at Thu Dec 10 22:29:01 2020.
 Gaussian 16:  ES64L-G16RevA.03 25-Dec-2016

 ----------------------------------------------------------------------
 # B3LYP/6-311++G(d,p) empiricaldispersion=gd3bj scf=xqc pop=npa geom=c
 heck
 ----------------------------------------------------------------------

 ----------------------------------
 CID_9920744_JID_6336_Energie_anion
 ----------------------------------
 Structure from the checkpoint file:  "JID_6336.chk"
 Charge = -1 Multiplicity = 2

                         Standard orientation:
 ---------------------------------------------------------------------
 Center     Atomic      Atomic             Coordinates (Angstroms)
 Number     Number       Type             X           Y           Z
 ---------------------------------------------------------------------
      1          6           0       -2.537006    0.000001    1.582033
      2          6           0       -2.036302   -0.790065    0.399994
      3          6           0       -2.036302    0.790066    0.399993
      4          6           0       -3.013063    1.200266   -0.680262
      5          7           0       -3.865297   -0.000000   -0.808805
      6          6           0       -3.013064   -1.200267   -0.680260
      7          6           0       -0.528501    0.714550    0.305586
      8          6           0        0.601629    1.458510    0.157380
      9          6           0        1.825529    0.720890    0.028509
     10          7           0        2.984922    1.414034   -0.111791
     11          6           0        4.093691    0.706018   -0.235469
     12          6           0        4.093691   -0.706018   -0.235469
     13          7           0        2.984922   -1.414034   -0.111791
     14          6           0        1.825529   -0.720891    0.028509
     15          6           0        0.601629   -1.458510    0.157381
     16          6           0       -0.528501   -0.714549    0.305586
     17          1           0       -1.952545    0.000002    2.497093
     18          1           0       -3.614585    0.000001    1.717577
     19          1           0       -2.439947    1.447876   -1.590650
     20          1           0       -3.640701    2.063135   -0.428459
     21          1           0       -4.424117   -0.000001   -1.657875
     22          1           0       -3.640702   -2.063135   -0.428455
     23          1           0       -2.439948   -1.447880   -1.590647
     24          1           0        0.636719    2.541595    0.098249
     25          1           0        5.026761    1.256371   -0.344715
     26          1           0        5.026761   -1.256372   -0.344716
     27          1           0        0.636718   -2.541595    0.098248
 ---------------------------------------------------------------------

 SCF Done:  E(UB3LYP) =  -666.398165616     A.U. after   24 cycles

 The electronic state is 2-A.
 Alpha  occ. eigenvalues --  -14.20341 -14.13229 -14.13227 -10.09882 -10.09881
 Alpha  occ. eigenvalues --  -10.07370 -10.07350 -10.07168 -10.05410 -10.05371
 Alpha  occ. eigenvalues --  -10.03772 -10.03723 -10.03478 -10.03434 -10.02013
 Alpha  occ. eigenvalues --  -10.02013  -0.83841  -0.80599  -0.76677  -0.73568
 Alpha  occ. eigenvalues --   -0.68081  -0.62817  -0.59896  -0.59738  -0.55316
 Alpha  occ. eigenvalues --   -0.52797  -0.48897  -0.46570  -0.43987  -0.43456
 Alpha  occ. eigenvalues --   -0.40651  -0.36578  -0.35065  -0.34672  -0.34626
 Alpha  occ. eigenvalues --   -0.33311  -0.32701  -0.30786  -0.29799  -0.28156
 Alpha  occ. eigenvalues --   -0.28143  -0.26963  -0.26825  -0.26287  -0.22392
 Alpha  occ. eigenvalues --   -0.20871  -0.19345  -0.19214  -0.18054  -0.13793
 Alpha  occ. eigenvalues --   -0.13685  -0.13170  -0.09905  -0.08640  -0.08019
 Alpha  occ. eigenvalues --    0.04282
 Alpha virt. eigenvalues --    0.06739   0.08953   0.08961   0.09921   0.10592
 Alpha virt. eigenvalues --    0.11167   0.11565   0.12294   0.12416   0.12454
 Alpha virt. eigenvalues --    0.12864   0.13452   0.14052   0.15798   0.15805

  Beta  occ. eigenvalues --  -14.20334 -14.12645 -14.12643 -10.09876 -10.09875
  Beta  occ. eigenvalues --  -10.07370 -10.07350 -10.07145 -10.05478 -10.05438
  Beta  occ. eigenvalues --  -10.03686 -10.03638 -10.03387 -10.03344 -10.01837
  Beta  occ. eigenvalues --  -10.01836  -0.83778  -0.79897  -0.76528  -0.72557
  Beta  occ. eigenvalues --   -0.67788  -0.62767  -0.59618  -0.59391  -0.55265
  Beta  occ. eigenvalues --   -0.52310  -0.48760  -0.46162  -0.43878  -0.43292
  Beta  occ. eigenvalues --   -0.40486  -0.36523  -0.34855  -0.34471  -0.34454
  Beta  occ. eigenvalues --   -0.33294  -0.32560  -0.30694  -0.29649  -0.28124
  Beta  occ. eigenvalues --   -0.27926  -0.26892  -0.26148  -0.25642  -0.22232
  Beta  occ. eigenvalues --   -0.20267  -0.19188  -0.18567  -0.15863  -0.13589
  Beta  occ. eigenvalues --   -0.12941  -0.12899  -0.08215  -0.07860  -0.07411
  Beta virt. eigenvalues --    0.06690   0.08844   0.08930   0.09850   0.10289
  Beta virt. eigenvalues --    0.10647   0.11104   0.11526   0.12335   0.12380
  Beta virt. eigenvalues --    0.12529   0.12917   0.13425   0.15386   0.15742

 Mulliken charges and spin densities:
               1          2
     1  C   -0.961673  -0.068220
     2  C    0.881392   0.010299
     3  C    0.881394   0.010299
     4  C   -0.617079  -0.025645
     5  N   -0.235662   0.002991
     6  C   -0.617079  -0.025645
     7  C    0.226547   0.046444
     8  C   -0.835825   0.160526
     9  C   -0.183984  -0.057718
    10  N   -0.087776   0.249962
    11  C   -0.066256   0.104734
    12  C   -0.066256   0.104735
    13  N   -0.087777   0.249962
    14  C   -0.183983  -0.057718
    15  C   -0.835825   0.160527
    16  C    0.226545   0.046443
    17  H    0.190029  -0.000539
    18  H    0.111292   0.055403
    19  H    0.144906   0.003081
    20  H    0.145737   0.007285
    21  H    0.170961   0.047052
    22  H    0.145737   0.007285
    23  H    0.144906   0.003081
    24  H    0.126409  -0.009051
    25  H    0.128455  -0.008261
    26  H    0.128455  -0.008261
    27  H    0.126409  -0.009051
 Sum of Mulliken charges =  -1.00000   1.00000

 Dipole moment (field-independent basis, Debye):
    X=             -7.7038    Y=             -0.0000    Z=             -0.8477  Tot=              7.7503
 Quadrupole moment (field-independent basis, Debye-Ang):
   XX=           -142.8985   YY=           -111.0127   ZZ=           -100.6449
   XY=              0.0000   XZ=              4.5326   YZ=              0.0000

 Summary of Natural Population Analysis:

                                       Natural Population
                Natural  -----------------------------------------------
    Atom  No    Charge         Core      Valence    Rydberg      Total
 -----------------------------------------------------------------------
      C    1   -0.18578      0.99955     2.17579    0.01044     3.18578
      C    2   -0.02822      0.99945     2.01667    0.01210     3.02822
      C    3   -0.02822      0.99945     2.01667    0.01210     3.02822
      C    4   -0.08722      0.99958     2.07741    0.01023     3.08722
      N    5   -0.35144      0.99976     2.84071    0.01097     3.85144
      C    6   -0.08722      0.99958     2.07741    0.01023     3.08722
      C    7   -0.00541      0.99944     1.99286    0.01311     3.00541
      C    8   -0.07100      0.99947     2.06296    0.00858     3.07100
      C    9    0.05847      0.99950     1.92905    0.01297     2.94153
      N   10   -0.15342      0.99968     2.63981    0.01392     3.65342
      C   11    0.00986      0.99961     1.97268    0.01785     2.99014
      C   12    0.00986      0.99961     1.97268    0.01785     2.99014
      N   13   -0.15342      0.99968     2.63981    0.01392     3.65342
      C   14    0.05847      0.99950     1.92905    0.01297     2.94153
      C   15   -0.07100      0.99947     2.06296    0.00858     3.07100
      C   16   -0.00541      0.99944     1.99286    0.01311     3.00541
      H   17    0.10814      0.00000     0.39112    0.00075     0.39186
      H   18    0.10771      0.00000     0.39047    0.00182     0.39229
      H   19    0.08721      0.00000     0.41126    0.00153     0.41279
      H   20    0.09117      0.00000     0.40747    0.00136     0.40883
      H   21    0.17195      0.00000     0.32528    0.00278     0.32805
      H   22    0.09117      0.00000     0.40747    0.00136     0.40883
      H   23    0.08721      0.00000     0.41126    0.00153     0.41279
      H   24    0.09649      0.00000     0.40148    0.00203     0.40351
      H   25    0.07678      0.00000     0.42195    0.00127     0.42322
      H   26    0.07678      0.00000     0.42195    0.00127     0.42322
      H   27    0.09649      0.00000     0.40148    0.00203     0.40351
 =======================================================================
   * Total *    0.00000     15.99278    38.79058    0.21663    55.00000

 Normal termination of Gaussian 16 at Thu Dec 10 22:36:06 2020.
