 Gaussian 16, Revision A.03,

 -----------------------------------------------------------
 # opt freq B3LYP/6-31G(d) empiricaldispersion=gd3bj scf=xqc
 -----------------------------------------------------------

 -------------------------------
 CID_153071346_JID_1808_neutraal
 -------------------------------
 Symbolic Z-matrix:
 Charge =  0 Multiplicity = 1

 SCF Done:  E(RB3LYP) =  -565.883793241     A.U. after   14 cycles
 SCF Done:  E(RB3LYP) =  -565.892500341     A.U. after   12 cycles
 SCF Done:  E(RB3LYP) =  -565.894208659     A.U. after   11 cycles
 SCF Done:  E(RB3LYP) =  -565.894989192     A.U. after   12 cycles
 SCF Done:  E(RB3LYP) =  -565.895324138     A.U. after   12 cycles
 SCF Done:  E(RB3LYP) =  -565.895422160     A.U. after   11 cycles
 SCF Done:  E(RB3LYP) =  -565.895450642     A.U. after   10 cycles
 SCF Done:  E(RB3LYP) =  -565.895459506     A.U. after    9 cycles
 SCF Done:  E(RB3LYP) =  -565.895462613     A.U. after    8 cycles
 SCF Done:  E(RB3LYP) =  -565.895463199     A.U. after    8 cycles
 SCF Done:  E(RB3LYP) =  -565.895463367     A.U. after    7 cycles
 Optimization completed.
    -- Stationary point found.
 Normal termination of Gaussian 16 at Tue Dec  8 21:13:47 2020.

 --------------------------------------------------------------------
 #N Geom=AllCheck Guess=TCheck SCRF=Check GenChk RB3LYP/6-31G(d) Freq
 --------------------------------------------------------------------

 Structure from the checkpoint file:  "JID_1808.chk"
 -------------------------------
 CID_153071346_JID_1808_neutraal
 -------------------------------
 Charge =  0 Multiplicity = 1

 SCF Done:  E(RB3LYP) =  -565.895463367     A.U. after    1 cycles

  Exact polarizability: 113.662   2.655  75.935  10.516   4.326  63.932
 Approx polarizability: 145.975   6.201 116.233  17.256   7.947  97.220

                      1                      2                      3
                      A                      A                      A
 Frequencies --     52.9380                62.7255               115.0504
 Red. masses --      3.8499                 3.1722                 6.1210
 Frc consts  --      0.0064                 0.0074                 0.0477
 IR Inten    --      0.1208                 0.0737                10.9624

                      4                      5                      6
                      A                      A                      A
 Frequencies --    152.1031               179.9745               214.9308
 Red. masses --      3.8331                 2.8811                 1.8930
 Frc consts  --      0.0522                 0.0550                 0.0515
 IR Inten    --      5.8863                 1.4386                19.1259

                      7                      8                      9
                      A                      A                      A
 Frequencies --    233.8919               257.5483               321.8733
 Red. masses --      1.3539                 1.2434                 3.0725
 Frc consts  --      0.0436                 0.0486                 0.1875
 IR Inten    --     25.7503                 9.4523                11.3714

                     10                     11                     12
                      A                      A                      A
 Frequencies --    361.7590               410.0295               437.1669
 Red. masses --      2.6650                 5.7830                 3.5163
 Frc consts  --      0.2055                 0.5728                 0.3959
 IR Inten    --      6.4984                 5.6363                15.7105

                     13                     14                     15
                      A                      A                      A
 Frequencies --    523.4605               548.9031               559.7311
 Red. masses --      5.3895                 4.9310                 4.6174
 Frc consts  --      0.8701                 0.8753                 0.8523
 IR Inten    --      4.0402                 1.7558                 7.8990

                     16                     17                     18
                      A                      A                      A
 Frequencies --    634.0984               653.3333               796.9135
 Red. masses --      3.6738                 4.6207                 1.2174
 Frc consts  --      0.8703                 1.1621                 0.4555
 IR Inten    --     62.8911                 8.9313                 6.0590

                     19                     20                     21
                      A                      A                      A
 Frequencies --    833.5805               841.1480               858.7321
 Red. masses --      8.4555                 3.9548                 3.7957
 Frc consts  --      3.4617                 1.6486                 1.6491
 IR Inten    --     87.7555                35.6200                43.1394

                     22                     23                     24
                      A                      A                      A
 Frequencies --    909.6234               936.1950               967.0276
 Red. masses --      2.6685                 2.6435                 2.5187
 Frc consts  --      1.3009                 1.3651                 1.3878
 IR Inten    --     30.7568                26.8077                30.0267

                     25                     26                     27
                      A                      A                      A
 Frequencies --   1014.2492              1024.7469              1049.1082
 Red. masses --      4.8348                 2.4960                 3.1733
 Frc consts  --      2.9304                 1.5443                 2.0578
 IR Inten    --     55.2850                57.2294                58.5395

                     28                     29                     30
                      A                      A                      A
 Frequencies --   1096.1337              1113.6594              1117.7437
 Red. masses --      2.0810                 1.2736                 1.8231
 Frc consts  --      1.4732                 0.9306                 1.3420
 IR Inten    --     42.7734                 0.5475                52.3025

                     31                     32                     33
                      A                      A                      A
 Frequencies --   1151.6542              1179.2613              1214.9396
 Red. masses --      1.7199                 1.7953                 2.8789
 Frc consts  --      1.3440                 1.4710                 2.5037
 IR Inten    --     27.0497                 1.5483                23.7626

                     34                     35                     36
                      A                      A                      A
 Frequencies --   1301.9331              1327.4237              1366.1658
 Red. masses --      3.2911                 1.3610                 1.1650
 Frc consts  --      3.2868                 1.4129                 1.2811
 IR Inten    --     26.4577                48.5906                 3.7207

                     37                     38                     39
                      A                      A                      A
 Frequencies --   1383.0898              1405.0610              1435.7492
 Red. masses --      1.2074                 1.2847                 1.2816
 Frc consts  --      1.3608                 1.4943                 1.5566
 IR Inten    --      2.9442                36.2279                16.7484

                     40                     41                     42
                      A                      A                      A
 Frequencies --   1436.9085              1486.5945              1509.9266
 Red. masses --      2.2312                 2.0386                 1.1301
 Frc consts  --      2.7142                 2.6544                 1.5180
 IR Inten    --    217.7018                48.8656                 4.5020

                     43                     44                     45
                      A                      A                      A
 Frequencies --   1523.5728              1534.6570              1565.9783
 Red. masses --      1.0504                 1.0566                 2.2305
 Frc consts  --      1.4366                 1.4662                 3.2227
 IR Inten    --      3.1947                 1.1927                88.8851

                     46                     47                     48
                      A                      A                      A
 Frequencies --   1703.9287              1734.3609              3058.8447
 Red. masses --      9.2412                 1.0941                 1.0349
 Frc consts  --     15.8082                 1.9390                 5.7048
 IR Inten    --    447.9852                61.8573                15.5052

                     49                     50                     51
                      A                      A                      A
 Frequencies --   3091.7937              3113.9690              3125.8532
 Red. masses --      1.0610                 1.0503                 1.1038
 Frc consts  --      5.9758                 6.0008                 6.3544
 IR Inten    --     21.9790                19.7776                 8.3191

                     52                     53                     54
                      A                      A                      A
 Frequencies --   3132.3457              3149.3497              3204.8523
 Red. masses --      1.1013                 1.1064                 1.1222
 Frc consts  --      6.3664                 6.4654                 6.7911
 IR Inten    --     25.4458                32.6861                16.6725

                     55                     56                     57
                      A                      A                      A
 Frequencies --   3430.1695              3432.6910              3515.6280
 Red. masses --      1.0761                 1.0499                 1.0923
 Frc consts  --      7.4598                 7.2892                 7.9542
 IR Inten    --      8.1794                 3.8536                 2.3921

 - Thermochemistry -
 -------------------
 Temperature   298.150 Kelvin.  Pressure   1.00000 Atm.
 Atom     1 has atomic number  6 and mass  12.00000

 Molecular mass:   158.08038 amu.
 Principal axes and moments of inertia in atomic units:
                           1         2         3
     Eigenvalues --   700.024052683.040313007.12016
           X            0.99995   0.01019   0.00243
           Y           -0.01021   0.99991   0.00877
           Z           -0.00234  -0.00880   0.99996
 This molecule is an asymmetric top.
 Rotational symmetry number  1.
 Warning -- assumption of classical behavior for rotation
           may cause significant error
 Rotational temperatures (Kelvin)      0.12373     0.03228     0.02880
 Rotational constants (GHZ):           2.57811     0.67265     0.60016
 Zero-point vibrational energy     447373.9 (Joules/Mol)
                                  106.92494 (Kcal/Mol)
 Warning -- explicit consideration of  15 degrees of freedom as
           vibrations may cause significant error
 Vibrational temperatures:     76.17    90.25   165.53   218.84   258.94
          (Kelvin)            309.24   336.52   370.55   463.10   520.49
                              589.94   628.99   753.14   789.75   805.33
                              912.33   940.00  1146.58  1199.34  1210.22
                             1235.52  1308.75  1346.98  1391.34  1459.28
                             1474.38  1509.43  1577.09  1602.31  1608.18
                             1656.97  1696.69  1748.03  1873.19  1909.87
                             1965.61  1989.96  2021.57  2065.72  2067.39
                             2138.88  2172.45  2192.08  2208.03  2253.09
                             2451.57  2495.36  4401.00  4448.40  4480.31
                             4497.41  4506.75  4531.21  4611.07  4935.25
                             4938.88  5058.20

 Zero-point correction=                           0.170396 (Hartree/Particle)
 Thermal correction to Energy=                    0.181229
 Thermal correction to Enthalpy=                  0.182174
 Thermal correction to Gibbs Free Energy=         0.133507
 Sum of electronic and zero-point Energies=           -565.725068
 Sum of electronic and thermal Energies=              -565.714234
 Sum of electronic and thermal Enthalpies=            -565.713290
 Sum of electronic and thermal Free Energies=         -565.761957

                     E (Thermal)             CV                S
                      KCal/Mol        Cal/Mol-Kelvin    Cal/Mol-Kelvin
 Total                  113.723             39.811            102.428
 Electronic               0.000              0.000              0.000
 Translational            0.889              2.981             41.083
 Rotational               0.889              2.981             30.114
 Vibrational            111.946             33.849             31.231
 Vibration     1          0.596              1.976              4.704
 Vibration     2          0.597              1.972              4.370
 Vibration     3          0.608              1.937              3.182
 Vibration     4          0.619              1.900              2.646
 Vibration     5          0.629              1.867              2.329
 Vibration     6          0.645              1.818              2.001
 Vibration     7          0.654              1.789              1.849
 Vibration     8          0.667              1.750              1.678
 Vibration     9          0.707              1.632              1.301
 Vibration    10          0.736              1.551              1.115
 Vibration    11          0.774              1.448              0.927
 Vibration    12          0.797              1.389              0.836
 Vibration    13          0.878              1.198              0.602
 Vibration    14          0.904              1.142              0.546
 Vibration    15          0.915              1.118              0.524

                           ! Non-Optimized Parameters !
 Normal termination of Gaussian 16 at Tue Dec  8 21:18:22 2020.

 ----------------------------------------------------------------------
 # B3LYP/6-311++G(d,p) empiricaldispersion=gd3bj scf=xqc pop=npa geom=c
 heck
 ----------------------------------------------------------------------

 ---------------------------------------
 CID_153071346_JID_1808_Energie_neutraal
 ---------------------------------------
 Structure from the checkpoint file:  "JID_1808.chk"
 Charge =  0 Multiplicity = 1

 SCF Done:  E(RB3LYP) =  -566.066428866     A.U. after   14 cycles
 Normal termination of Gaussian 16 at Tue Dec  8 21:21:03 2020.

 ----------------------------------------------------------------------
 # B3LYP/6-311++G(d,p) empiricaldispersion=gd3bj scf=xqc pop=npa geom=c
 heck
 ----------------------------------------------------------------------

 -------------------------------------
 CID_153071346_JID_1808_Energie_kation
 -------------------------------------
 Structure from the checkpoint file:  "JID_1808.chk"
 Charge =  1 Multiplicity = 2

 SCF Done:  E(UB3LYP) =  -565.739594519     A.U. after   33 cycles
 SCF Done:  E(UB3LYP) =  -565.747324402     a.u. after   13 cycles
 Normal termination of Gaussian 16 at Tue Dec  8 21:58:18 2020.
 Gaussian 16:  ES64L-G16RevA.03 25-Dec-2016

 ----------------------------------------------------------------------
 # B3LYP/6-311++G(d,p) empiricaldispersion=gd3bj scf=xqc pop=npa geom=c
 heck
 ----------------------------------------------------------------------

 ------------------------------------
 CID_153071346_JID_1808_Energie_anion
 ------------------------------------
 Structure from the checkpoint file:  "JID_1808.chk"
 Charge = -1 Multiplicity = 2

                         Standard orientation:
 ---------------------------------------------------------------------
 Center     Atomic      Atomic             Coordinates (Angstroms)
 Number     Number       Type             X           Y           Z
 ---------------------------------------------------------------------
      1          6           0       -3.083981   -0.725171    1.038359
      2          6           0       -2.660599   -0.444855   -0.402024
      3          7           0       -1.528231    0.485108   -0.498181
      4          6           0       -0.255739    0.068031   -0.247222
      5          7           0        0.699583    0.807444    0.205642
      6          6           0        1.859468   -0.001594    0.145799
      7          6           0        3.100376    0.211844    0.874723
      8          8           0        2.984058    0.472709   -0.557472
      9          8           0        1.470667   -1.348984   -0.136288
     10          7           0        0.080765   -1.291782   -0.482591
     11          7           0       -1.844342    1.817839   -0.122623
     12          1           0       -2.272953   -1.211739    1.590332
     13          1           0       -3.957534   -1.385875    1.057937
     14          1           0       -3.348698    0.208203    1.544485
     15          1           0       -2.378340   -1.372575   -0.907371
     16          1           0       -3.477038    0.009240   -0.968456
     17          1           0        3.214115    1.098022    1.497654
     18          1           0        3.720013   -0.645105    1.136456
     19          1           0        0.020249   -1.524468   -1.477539
     20          1           0       -1.329929    2.027251    0.736103
     21          1           0       -1.439264    2.427448   -0.833056
 ---------------------------------------------------------------------

 SCF Done:  E(UB3LYP) =  -566.052117528     A.U. after   29 cycles

 The electronic state is 2-A.
 Alpha  occ. eigenvalues --  -19.07209 -19.04177 -14.27944 -14.26518 -14.22850
 Alpha  occ. eigenvalues --  -14.19511 -10.20760 -10.17695 -10.13211 -10.09611
 Alpha  occ. eigenvalues --  -10.05268  -1.03153  -0.97440  -0.91198  -0.81629
 Alpha  occ. eigenvalues --   -0.76245  -0.70631  -0.63840  -0.58705  -0.55184
 Alpha  occ. eigenvalues --   -0.51625  -0.49007  -0.45351  -0.43629  -0.41263
 Alpha  occ. eigenvalues --   -0.40341  -0.36647  -0.35084  -0.34799  -0.33257
 Alpha  occ. eigenvalues --   -0.31586  -0.30433  -0.28811  -0.27116  -0.24834
 Alpha  occ. eigenvalues --   -0.24492  -0.23041  -0.20655  -0.19537  -0.17558
 Alpha  occ. eigenvalues --   -0.14266  -0.13611   0.04997
 Alpha virt. eigenvalues --    0.07609   0.08102   0.08351   0.09679   0.10328
 Alpha virt. eigenvalues --    0.11160   0.11232   0.12218   0.12346   0.13206
 Alpha virt. eigenvalues --    0.13751   0.14920   0.15876   0.16902   0.17317

  Beta  occ. eigenvalues --  -19.07208 -19.04172 -14.27886 -14.26518 -14.22795
  Beta  occ. eigenvalues --  -14.19497 -10.20761 -10.17687 -10.13208 -10.09564
  Beta  occ. eigenvalues --  -10.05229  -1.03138  -0.97425  -0.91165  -0.81599
  Beta  occ. eigenvalues --   -0.76163  -0.70545  -0.63783  -0.58691  -0.55111
  Beta  occ. eigenvalues --   -0.51596  -0.48918  -0.45252  -0.43576  -0.41217
  Beta  occ. eigenvalues --   -0.40288  -0.36605  -0.35045  -0.34774  -0.33219
  Beta  occ. eigenvalues --   -0.31551  -0.30366  -0.28769  -0.27062  -0.24789
  Beta  occ. eigenvalues --   -0.24452  -0.23014  -0.20626  -0.19523  -0.17503
  Beta  occ. eigenvalues --   -0.14226  -0.13568
  Beta virt. eigenvalues --    0.07400   0.08160   0.09081   0.09300   0.10455
  Beta virt. eigenvalues --    0.10564   0.11196   0.11728   0.12764   0.12940
  Beta virt. eigenvalues --    0.13618   0.14127   0.15291   0.16301   0.16887

 Mulliken charges and spin densities:
               1          2
     1  C    0.270384  -0.721268
     2  C    1.089832  -1.230564
     3  N   -0.298308   0.460237
     4  C    0.840179  -0.846838
     5  N   -0.273639   0.099804
     6  C   -0.331435   0.115697
     7  C    0.103023  -0.309161
     8  O   -0.163375   0.009726
     9  O    0.046836   0.025139
    10  N   -0.193498  -0.179972
    11  N   -0.105525  -0.311064
    12  H   -0.180585   0.342201
    13  H   -0.617061   0.767106
    14  H    0.143249  -0.004612
    15  H   -0.222579   0.353451
    16  H   -0.741740   0.931676
    17  H    0.052718   0.090622
    18  H    0.112896   0.024820
    19  H   -0.460038   0.798052
    20  H    0.038137   0.202238
    21  H   -0.109468   0.382708
 Sum of Mulliken charges =  -1.00000   1.00000

 Dipole moment (field-independent basis, Debye):
    X=              6.5916    Y=              1.7791    Z=              4.2178  Tot=              8.0252
 Quadrupole moment (field-independent basis, Debye-Ang):
   XX=           -123.8597   YY=           -103.5089   ZZ=            -92.5147
   XY=             -6.0112   XZ=              1.5008   YZ=             -2.1984

 Summary of Natural Population Analysis:

                                       Natural Population
                Natural  -----------------------------------------------
    Atom  No    Charge         Core      Valence    Rydberg      Total
 -----------------------------------------------------------------------
      C    1   -0.29526      0.99966     2.28959    0.00601     3.29526
      C    2   -0.08015      0.99961     2.06851    0.01204     3.08015
      N    3   -0.16888      0.99962     2.65237    0.01689     3.66888
      C    4    0.30315      0.99956     1.67969    0.01761     2.69685
      N    5   -0.30589      0.99963     2.79569    0.01056     3.80589
      C    6    0.32235      0.99958     1.65123    0.02683     2.67765
      C    7   -0.04285      0.99952     2.03432    0.00901     3.04285
      O    8   -0.27882      0.99991     3.27188    0.00703     4.27882
      O    9   -0.21638      0.99988     3.20804    0.00845     4.21638
      N   10   -0.16296      0.99968     2.65020    0.01307     3.66296
      N   11   -0.31392      0.99977     2.80245    0.01169     3.81392
      H   12    0.09920      0.00000     0.39960    0.00120     0.40080
      H   13    0.10382      0.00000     0.39446    0.00172     0.39618
      H   14    0.10093      0.00000     0.39787    0.00120     0.39907
      H   15    0.10449      0.00000     0.39024    0.00527     0.39551
      H   16    0.10315      0.00000     0.39400    0.00285     0.39685
      H   17    0.08950      0.00000     0.40921    0.00129     0.41050
      H   18    0.08840      0.00000     0.41032    0.00128     0.41160
      H   19    0.19196      0.00000     0.29900    0.00904     0.30804
      H   20    0.17756      0.00000     0.31981    0.00263     0.32244
      H   21    0.18057      0.00000     0.31630    0.00313     0.31943
 =======================================================================
   * Total *    0.00000     10.99644    30.83477    0.16879    42.00000

 Normal termination of Gaussian 16 at Tue Dec  8 22:02:16 2020.
