 Gaussian 16, Revision A.03,

 -----------------------------------------------------------
 # opt freq B3LYP/6-31G(d) empiricaldispersion=gd3bj scf=xqc
 -----------------------------------------------------------

 ------------------------------
 CID_71777800_JID_1894_neutraal
 ------------------------------
 Symbolic Z-matrix:
 Charge =  0 Multiplicity = 1

 SCF Done:  E(RB3LYP) =  -840.848831010     A.U. after   14 cycles
 SCF Done:  E(RB3LYP) =  -840.853497493     A.U. after   12 cycles
 SCF Done:  E(RB3LYP) =  -840.853804672     A.U. after   12 cycles
 SCF Done:  E(RB3LYP) =  -840.854068748     A.U. after   11 cycles
 SCF Done:  E(RB3LYP) =  -840.854107813     A.U. after   10 cycles
 SCF Done:  E(RB3LYP) =  -840.854125219     A.U. after   10 cycles
 SCF Done:  E(RB3LYP) =  -840.854131369     A.U. after    9 cycles
 SCF Done:  E(RB3LYP) =  -840.854138989     A.U. after   10 cycles
 SCF Done:  E(RB3LYP) =  -840.854143426     A.U. after   10 cycles
 SCF Done:  E(RB3LYP) =  -840.854149408     A.U. after   10 cycles
 SCF Done:  E(RB3LYP) =  -840.854476317     A.U. after   11 cycles
 SCF Done:  E(RB3LYP) =  -840.854478450     A.U. after    9 cycles
 SCF Done:  E(RB3LYP) =  -840.854479211     A.U. after    8 cycles
 SCF Done:  E(RB3LYP) =  -840.854479172     A.U. after    7 cycles
 SCF Done:  E(RB3LYP) =  -840.854480114     A.U. after    9 cycles
 SCF Done:  E(RB3LYP) =  -840.854480467     A.U. after    8 cycles
 Optimization completed.
    -- Stationary point found.
 Normal termination of Gaussian 16 at Tue Dec  8 21:41:03 2020.

 --------------------------------------------------------------------
 #N Geom=AllCheck Guess=TCheck SCRF=Check GenChk RB3LYP/6-31G(d) Freq
 --------------------------------------------------------------------

 Structure from the checkpoint file:  "JID_1894.chk"
 ------------------------------
 CID_71777800_JID_1894_neutraal
 ------------------------------
 Charge =  0 Multiplicity = 1

 SCF Done:  E(RB3LYP) =  -840.854480467     A.U. after    1 cycles

  Exact polarizability: 123.215  -2.089 120.833   6.336  -5.404  74.134
 Approx polarizability: 175.580  -6.645 190.457  16.336 -18.474 115.884

                      1                      2                      3
                      A                      A                      A
 Frequencies --     32.2886                55.7351                97.0168
 Red. masses --      3.1723                 2.6541                 3.1617
 Frc consts  --      0.0019                 0.0049                 0.0175
 IR Inten    --      0.0247                 0.3092                 3.2003

                      4                      5                      6
                      A                      A                      A
 Frequencies --    118.5227               166.1634               197.6852
 Red. masses --      4.3945                 3.6705                 2.0379
 Frc consts  --      0.0364                 0.0597                 0.0469
 IR Inten    --      0.3955                 3.6723                10.8575

                      7                      8                      9
                      A                      A                      A
 Frequencies --    248.3219               269.7192               281.9920
 Red. masses --      1.1174                 2.2211                 1.1686
 Frc consts  --      0.0406                 0.0952                 0.0548
 IR Inten    --      3.7383                 8.0698                 0.8753

                     10                     11                     12
                      A                      A                      A
 Frequencies --    298.0755               315.8410               379.5434
 Red. masses --      2.2251                 2.3006                 2.4507
 Frc consts  --      0.1165                 0.1352                 0.2080
 IR Inten    --     29.2874                14.4195                 0.6500

                     13                     14                     15
                      A                      A                      A
 Frequencies --    418.8200               468.1148               489.6235
 Red. masses --      3.7931                 3.4365                 4.8781
 Frc consts  --      0.3920                 0.4437                 0.6890
 IR Inten    --      4.2112                 2.1972                 3.3274

                     16                     17                     18
                      A                      A                      A
 Frequencies --    551.6248               566.6673               584.3853
 Red. masses --      4.6519                 4.4292                 5.0318
 Frc consts  --      0.8340                 0.8380                 1.0125
 IR Inten    --      2.5485                13.0512                 2.0049

                     19                     20                     21
                      A                      A                      A
 Frequencies --    677.1218               743.1349               781.2575
 Red. masses --      1.2926                 3.4780                 3.3135
 Frc consts  --      0.3492                 1.1316                 1.1916
 IR Inten    --      3.0355                 0.3490                 2.1641

                     22                     23                     24
                      A                      A                      A
 Frequencies --    820.0828               840.0957               863.1054
 Red. masses --      1.3329                 3.2325                 3.2451
 Frc consts  --      0.5281                 1.3442                 1.4243
 IR Inten    --     55.0492                12.3462                60.2133

                     25                     26                     27
                      A                      A                      A
 Frequencies --    879.7913               883.8558               938.5727
 Red. masses --      2.1772                 1.8290                 1.3100
 Frc consts  --      0.9929                 0.8419                 0.6799
 IR Inten    --     33.8270                58.7855                 0.3849

                     28                     29                     30
                      A                      A                      A
 Frequencies --    949.0560               961.1910              1025.0164
 Red. masses --      1.3624                 2.5827                 1.7187
 Frc consts  --      0.7230                 1.4058                 1.0639
 IR Inten    --      3.6930                40.8745                17.8145

                     31                     32                     33
                      A                      A                      A
 Frequencies --   1063.2443              1139.6840              1157.2142
 Red. masses --      2.7964                 2.1918                 2.1218
 Frc consts  --      1.8626                 1.6774                 1.6741
 IR Inten    --     14.7509                 5.7229                12.4602

                     34                     35                     36
                      A                      A                      A
 Frequencies --   1177.6881              1189.2251              1196.0307
 Red. masses --      1.8181                 1.3480                 1.4758
 Frc consts  --      1.4857                 1.1232                 1.2438
 IR Inten    --     80.9546                49.5023                 1.6636

                     37                     38                     39
                      A                      A                      A
 Frequencies --   1209.2097              1214.9815              1320.2769
 Red. masses --      1.7842                 1.9276                 1.3309
 Frc consts  --      1.5371                 1.6765                 1.3669
 IR Inten    --     79.1778                23.2044                23.9631

                     40                     41                     42
                      A                      A                      A
 Frequencies --   1382.1571              1397.1769              1413.8100
 Red. masses --      1.3269                 1.4642                 1.7956
 Frc consts  --      1.4935                 1.6840                 2.1147
 IR Inten    --      3.2047                41.1054                17.2461

                     43                     44                     45
                      A                      A                      A
 Frequencies --   1427.5724              1441.7660              1460.4059
 Red. masses --      1.3451                 1.2490                 2.0970
 Frc consts  --      1.6151                 1.5296                 2.6351
 IR Inten    --     19.3935                19.7388                23.4683

                     46                     47                     48
                      A                      A                      A
 Frequencies --   1507.4678              1512.7760              1521.0416
 Red. masses --      2.7666                 1.1419                 1.0928
 Frc consts  --      3.7041                 1.5396                 1.4897
 IR Inten    --     26.1399                 6.2463                 1.2613

                     49                     50                     51
                      A                      A                      A
 Frequencies --   1526.2660              1537.7911              1542.8701
 Red. masses --      1.0574                 1.1591                 1.0717
 Frc consts  --      1.4513                 1.6149                 1.5031
 IR Inten    --      6.8362                 5.4670                 7.8045

                     52                     53                     54
                      A                      A                      A
 Frequencies --   1612.3892              1692.1723              2986.3984
 Red. masses --      6.5439                 1.1024                 1.0715
 Frc consts  --     10.0236                 1.8599                 5.6304
 IR Inten    --     29.5232                28.8293                66.2723

                     55                     56                     57
                      A                      A                      A
 Frequencies --   3047.3922              3055.6364              3060.9605
 Red. masses --      1.0886                 1.0354                 1.0356
 Frc consts  --      5.9560                 5.6958                 5.7168
 IR Inten    --     29.9963                16.9585                 9.6189

                     58                     59                     60
                      A                      A                      A
 Frequencies --   3075.8171              3122.8804              3130.1437
 Red. masses --      1.0866                 1.1012                 1.1017
 Frc consts  --      6.0566                 6.3271                 6.3597
 IR Inten    --     24.0973                 7.6936                51.1993

                     61                     62                     63
                      A                      A                      A
 Frequencies --   3136.4379              3141.5531              3287.0501
 Red. masses --      1.1033                 1.1029                 1.0933
 Frc consts  --      6.3947                 6.4135                 6.9601
 IR Inten    --     19.2495                37.3986                 1.6173

                     64                     65                     66
                      A                      A                      A
 Frequencies --   3293.8644              3467.7726              3556.2819
 Red. masses --      1.0941                 1.0500                 1.0924
 Frc consts  --      6.9939                 7.4394                 8.1402
 IR Inten    --      1.9058                 1.6885                 0.5663

 - Thermochemistry -
 -------------------
 Temperature   298.150 Kelvin.  Pressure   1.00000 Atm.
 Atom     1 has atomic number  6 and mass  12.00000

 Molecular mass:   171.07179 amu.
 Principal axes and moments of inertia in atomic units:
                           1         2         3
     Eigenvalues --  1528.439232335.961803434.99851
           X            0.99796   0.06317  -0.00896
           Y           -0.06302   0.99788   0.01593
           Z            0.00995  -0.01533   0.99983
 This molecule is an asymmetric top.
 Rotational symmetry number  1.
 Warning -- assumption of classical behavior for rotation
           may cause significant error
 Rotational temperatures (Kelvin)      0.05667     0.03708     0.02522
 Rotational constants (GHZ):           1.18077     0.77259     0.52540
 Zero-point vibrational energy     531786.9 (Joules/Mol)
                                  127.10012 (Kcal/Mol)
 Warning -- explicit consideration of  18 degrees of freedom as
           vibrations may cause significant error
 Vibrational temperatures:     46.46    80.19   139.59   170.53   239.07
          (Kelvin)            284.42   357.28   388.07   405.72   428.86
                              454.42   546.08   602.59   673.51   704.46
                              793.67   815.31   840.80   974.23  1069.21
                             1124.06  1179.92  1208.71  1241.82  1265.82
                             1271.67  1350.40  1365.48  1382.94  1474.77
                             1529.77  1639.75  1664.97  1694.43  1711.03
                             1720.82  1739.78  1748.09  1899.58  1988.62
                             2010.23  2034.16  2053.96  2074.38  2101.20
                             2168.91  2176.55  2188.44  2195.96  2212.54
                             2219.85  2319.87  2434.66  4296.76  4384.52
                             4396.38  4404.04  4425.41  4493.13  4503.58
                             4512.63  4519.99  4729.33  4739.14  4989.35
                             5116.70

 Zero-point correction=                           0.202547 (Hartree/Particle)
 Thermal correction to Energy=                    0.214575
 Thermal correction to Enthalpy=                  0.215519
 Thermal correction to Gibbs Free Energy=         0.163761
 Sum of electronic and zero-point Energies=           -840.651934
 Sum of electronic and thermal Energies=              -840.639905
 Sum of electronic and thermal Enthalpies=            -840.638961
 Sum of electronic and thermal Free Energies=         -840.690719

                     E (Thermal)             CV                S
                      KCal/Mol        Cal/Mol-Kelvin    Cal/Mol-Kelvin
 Total                  134.648             44.731            108.934
 Electronic               0.000              0.000              0.000
 Translational            0.889              2.981             41.318
 Rotational               0.889              2.981             30.884
 Vibrational            132.870             38.769             36.732
 Vibration     1          0.594              1.983              5.684
 Vibration     2          0.596              1.975              4.603
 Vibration     3          0.603              1.951              3.513
 Vibration     4          0.609              1.934              3.124
 Vibration     5          0.624              1.884              2.478
 Vibration     6          0.637              1.843              2.155
 Vibration     7          0.662              1.766              1.742
 Vibration     8          0.674              1.729              1.598
 Vibration     9          0.681              1.707              1.522
 Vibration    10          0.691              1.677              1.428
 Vibration    11          0.703              1.643              1.332
 Vibration    12          0.750              1.514              1.041
 Vibration    13          0.782              1.429              0.896
 Vibration    14          0.825              1.321              0.743
 Vibration    15          0.845              1.273              0.685
 Vibration    16          0.907              1.136              0.541
 Vibration    17          0.923              1.103              0.511
 Vibration    18          0.941              1.065              0.477

                           ! Non-Optimized Parameters !
 Normal termination of Gaussian 16 at Tue Dec  8 21:46:33 2020.

 ----------------------------------------------------------------------
 # B3LYP/6-311++G(d,p) empiricaldispersion=gd3bj scf=xqc pop=npa geom=c
 heck
 ----------------------------------------------------------------------

 --------------------------------------
 CID_71777800_JID_1894_Energie_neutraal
 --------------------------------------
 Structure from the checkpoint file:  "JID_1894.chk"
 Charge =  0 Multiplicity = 1

 SCF Done:  E(RB3LYP) =  -841.012578528     A.U. after   15 cycles
 Normal termination of Gaussian 16 at Tue Dec  8 21:50:13 2020.

 ----------------------------------------------------------------------
 # B3LYP/6-311++G(d,p) empiricaldispersion=gd3bj scf=xqc pop=npa geom=c
 heck
 ----------------------------------------------------------------------

 ------------------------------------
 CID_71777800_JID_1894_Energie_kation
 ------------------------------------
 Structure from the checkpoint file:  "JID_1894.chk"
 Charge =  1 Multiplicity = 2

 SCF Done:  E(UB3LYP) =  -840.712757204     A.U. after   29 cycles
 Normal termination of Gaussian 16 at Tue Dec  8 21:57:12 2020.
 Gaussian 16:  ES64L-G16RevA.03 25-Dec-2016

 ----------------------------------------------------------------------
 # B3LYP/6-311++G(d,p) empiricaldispersion=gd3bj scf=xqc pop=npa geom=c
 heck
 ----------------------------------------------------------------------

 -----------------------------------
 CID_71777800_JID_1894_Energie_anion
 -----------------------------------
 Structure from the checkpoint file:  "JID_1894.chk"
 Charge = -1 Multiplicity = 2

                         Standard orientation:
 ---------------------------------------------------------------------
 Center     Atomic      Atomic             Coordinates (Angstroms)
 Number     Number       Type             X           Y           Z
 ---------------------------------------------------------------------
      1          6           0       -3.280401   -0.473310   -0.060914
      2          6           0       -2.353715    0.738765   -0.128131
      3          6           0       -1.940671    1.235089    1.254652
      4          8           0       -1.207176    0.499935   -0.983224
      5          6           0       -0.181157   -0.272897   -0.499885
      6          6           0       -0.224887   -1.621746   -0.255034
      7         16           0        1.315766   -2.211723    0.287581
      8          6           0        2.017907   -0.628231    0.162214
      9          6           0        1.117173    0.305619   -0.265201
     10          6           0        1.432286    1.758768   -0.497177
     11          7           0        2.648534    2.152501    0.222067
     12          1           0       -2.848257   -1.271677    0.550201
     13          1           0       -3.474739   -0.861272   -1.065581
     14          1           0       -4.236938   -0.187112    0.391155
     15          1           0       -2.870478    1.544010   -0.660585
     16          1           0       -1.375858    0.466165    1.791591
     17          1           0       -1.319659    2.132964    1.178331
     18          1           0       -2.829860    1.480663    1.845308
     19          1           0       -1.055337   -2.297151   -0.390913
     20          1           0        3.057129   -0.460061    0.403925
     21          1           0        1.612241    1.922735   -1.568361
     22          1           0        0.539879    2.357386   -0.250585
     23          1           0        2.879258    3.118293   -0.002451
     24          1           0        2.468819    2.123287    1.224840
 ---------------------------------------------------------------------

 SCF Done:  E(UB3LYP) =  -840.998410924     A.U. after   30 cycles

 The electronic state is 2-A.
 Alpha  occ. eigenvalues --  -88.77837 -19.03688 -14.18835 -10.12968 -10.12755
 Alpha  occ. eigenvalues --  -10.09458 -10.09402 -10.09379 -10.07943 -10.06084
 Alpha  occ. eigenvalues --  -10.05533  -7.86438  -5.82726  -5.82373  -5.82032
 Alpha  occ. eigenvalues --   -0.95113  -0.79031  -0.76865  -0.68689  -0.64666
 Alpha  occ. eigenvalues --   -0.61916  -0.59134  -0.55253  -0.51513  -0.47302
 Alpha  occ. eigenvalues --   -0.42610  -0.40245  -0.38726  -0.37321  -0.36603
 Alpha  occ. eigenvalues --   -0.33368  -0.32823  -0.31588  -0.30580  -0.29911
 Alpha  occ. eigenvalues --   -0.28900  -0.28629  -0.27469  -0.26183  -0.25376
 Alpha  occ. eigenvalues --   -0.24882  -0.22609  -0.18300  -0.14974  -0.13495
 Alpha  occ. eigenvalues --   -0.13102   0.04586
 Alpha virt. eigenvalues --    0.06495   0.07670   0.07987   0.08652   0.09142
 Alpha virt. eigenvalues --    0.09500   0.09923   0.10737   0.11477   0.11618
 Alpha virt. eigenvalues --    0.12547   0.12834   0.13483   0.14123   0.14306

  Beta  occ. eigenvalues --  -88.77835 -19.03688 -14.18782 -10.12968 -10.12741
  Beta  occ. eigenvalues --  -10.09448 -10.09377 -10.09360 -10.07945 -10.06049
  Beta  occ. eigenvalues --  -10.05490  -7.86436  -5.82725  -5.82370  -5.82029
  Beta  occ. eigenvalues --   -0.95108  -0.78983  -0.76810  -0.68652  -0.64624
  Beta  occ. eigenvalues --   -0.61892  -0.59060  -0.55173  -0.51467  -0.47270
  Beta  occ. eigenvalues --   -0.42577  -0.40211  -0.38677  -0.37261  -0.36545
  Beta  occ. eigenvalues --   -0.33308  -0.32783  -0.31558  -0.30555  -0.29866
  Beta  occ. eigenvalues --   -0.28862  -0.28591  -0.27431  -0.26150  -0.25336
  Beta  occ. eigenvalues --   -0.24854  -0.22571  -0.18285  -0.14935  -0.13459
  Beta  occ. eigenvalues --   -0.13067
  Beta virt. eigenvalues --    0.07055   0.07556   0.07891   0.08415   0.09204
  Beta virt. eigenvalues --    0.09504   0.10034   0.10476   0.11180   0.11910
  Beta virt. eigenvalues --    0.12007   0.12992   0.13238   0.13785   0.14331

 Mulliken charges and spin densities:
               1          2
     1  C    1.211458  -1.822196
     2  C   -1.283012   1.484688
     3  C    1.148202  -1.742411
     4  O   -0.104041  -0.001610
     5  C   -0.990231   0.219491
     6  C    0.828817  -0.420583
     7  S   -0.251747  -0.250552
     8  C   -0.121711   0.438389
     9  C   -0.682472   0.892427
    10  C    2.127765  -2.786919
    11  N   -0.555640   0.187864
    12  H   -0.184615   0.319839
    13  H   -0.061961   0.220884
    14  H   -0.478644   0.625403
    15  H   -0.369890   0.575037
    16  H    0.004425   0.153297
    17  H   -0.330998   0.468183
    18  H   -0.507839   0.666934
    19  H    0.103738   0.159360
    20  H    0.078989   0.207880
    21  H    0.001437   0.176324
    22  H   -0.227396   0.411702
    23  H   -0.290537   0.540162
    24  H   -0.064098   0.276409
 Sum of Mulliken charges =  -1.00000   1.00000

 Dipole moment (field-independent basis, Debye):
    X=              2.4611    Y=             -6.7041    Z=             -1.7105  Tot=              7.3435
 Quadrupole moment (field-independent basis, Debye-Ang):
   XX=           -144.3517   YY=           -123.9191   ZZ=           -104.6013
   XY=             -6.5035   XZ=              5.0476   YZ=             -5.0414

 Summary of Natural Population Analysis:

                                       Natural Population
                Natural  -----------------------------------------------
    Atom  No    Charge         Core      Valence    Rydberg      Total
 -----------------------------------------------------------------------
      C    1   -0.29990      0.99964     2.29401    0.00625     3.29990
      C    2    0.06796      0.99955     1.91812    0.01438     2.93204
      C    3   -0.30185      0.99964     2.29605    0.00616     3.30185
      O    4   -0.29299      0.99986     3.28373    0.00940     4.29299
      C    5    0.13378      0.99927     1.85145    0.01551     2.86622
      C    6   -0.22198      0.99946     2.21273    0.00979     3.22198
      S    7    0.19011      4.99947     2.78795    0.02247     7.80989
      C    8   -0.18639      0.99946     2.17685    0.01009     3.18639
      C    9   -0.05620      0.99942     2.04396    0.01281     3.05620
      C   10   -0.09308      0.99959     2.08148    0.01202     3.09308
      N   11   -0.42258      0.99978     2.91216    0.01064     3.92258
      H   12    0.09694      0.00000     0.40139    0.00166     0.40306
      H   13    0.10197      0.00000     0.39688    0.00115     0.39803
      H   14    0.10603      0.00000     0.39233    0.00164     0.39397
      H   15    0.09016      0.00000     0.40811    0.00173     0.40984
      H   16    0.10107      0.00000     0.39734    0.00159     0.39893
      H   17    0.10575      0.00000     0.39238    0.00188     0.39425
      H   18    0.10671      0.00000     0.39154    0.00175     0.39329
      H   19    0.11245      0.00000     0.38656    0.00100     0.38755
      H   20    0.11778      0.00000     0.38100    0.00123     0.38222
      H   21    0.09735      0.00000     0.40142    0.00124     0.40265
      H   22    0.09224      0.00000     0.40511    0.00265     0.40776
      H   23    0.17982      0.00000     0.31571    0.00447     0.32018
      H   24    0.17488      0.00000     0.32214    0.00298     0.32512
 =======================================================================
   * Total *   -0.00000     14.99514    30.85036    0.15450    46.00000

 Normal termination of Gaussian 16 at Tue Dec  8 22:04:08 2020.
