 Gaussian 16, Revision A.03,

 -----------------------------------------------------------
 # opt freq B3LYP/6-31G(d) empiricaldispersion=gd3bj scf=xqc
 -----------------------------------------------------------

 ----------------------------
 CID_143714_JID_1140_neutraal
 ----------------------------
 Symbolic Z-matrix:
 Charge =  0 Multiplicity = 1

 SCF Done:  E(RB3LYP) =  -426.409346324     A.U. after   13 cycles
 SCF Done:  E(RB3LYP) =  -426.412853276     A.U. after   11 cycles
 SCF Done:  E(RB3LYP) =  -426.413028073     A.U. after   10 cycles
 SCF Done:  E(RB3LYP) =  -426.413041813     A.U. after    9 cycles
 SCF Done:  E(RB3LYP) =  -426.413043183     A.U. after    7 cycles
 SCF Done:  E(RB3LYP) =  -426.413043913     A.U. after    7 cycles
 Optimization completed.
    -- Stationary point found.
 Normal termination of Gaussian 16 at Tue Dec  8 19:11:42 2020.

 --------------------------------------------------------------------
 #N Geom=AllCheck Guess=TCheck SCRF=Check GenChk RB3LYP/6-31G(d) Freq
 --------------------------------------------------------------------

 Structure from the checkpoint file:  "JID_1140.chk"
 ----------------------------
 CID_143714_JID_1140_neutraal
 ----------------------------
 Charge =  0 Multiplicity = 1

 SCF Done:  E(RB3LYP) =  -426.413043913     A.U. after    1 cycles

  Exact polarizability: 151.428  -0.000 111.243  -2.249  -0.000  64.668
 Approx polarizability: 204.827  -0.000 188.073  -4.534  -0.000  98.880

                      1                      2                      3
                      A                      A                      A
 Frequencies --    112.1329               150.2515               196.2123
 Red. masses --      2.9549                 2.1065                 1.9957
 Frc consts  --      0.0219                 0.0280                 0.0453
 IR Inten    --      1.3950                 0.0087                 1.8629

                      4                      5                      6
                      A                      A                      A
 Frequencies --    244.4667               307.1720               308.7434
 Red. masses --      2.0998                 3.0309                 3.5594
 Frc consts  --      0.0739                 0.1685                 0.1999
 IR Inten    --      0.0112                 0.2006                 1.5332

                      7                      8                      9
                      A                      A                      A
 Frequencies --    408.2280               436.5583               446.9423
 Red. masses --      2.6031                 3.8127                 4.8048
 Frc consts  --      0.2556                 0.4281                 0.5655
 IR Inten    --      5.2808                 0.4636                 0.1786

                     10                     11                     12
                      A                      A                      A
 Frequencies --    566.3081               617.6506               656.8956
 Red. masses --      3.1263                 2.0539                 4.8038
 Frc consts  --      0.5907                 0.4617                 1.2213
 IR Inten    --      0.0034                 1.2152                 0.0126

                     13                     14                     15
                      A                      A                      A
 Frequencies --    724.7546               769.1798               779.5404
 Red. masses --      3.3352                 2.8496                 1.2119
 Frc consts  --      1.0322                 0.9933                 0.4339
 IR Inten    --      0.0002                 0.3747                 0.2283

                     16                     17                     18
                      A                      A                      A
 Frequencies --    790.1347               820.3538               873.7194
 Red. masses --      4.9424                 3.1797                 1.9377
 Frc consts  --      1.8180                 1.2608                 0.8715
 IR Inten    --      0.7275                 0.4130                 2.9225

                     19                     20                     21
                      A                      A                      A
 Frequencies --    880.8749               892.5725               916.3127
 Red. masses --      1.5798                 1.3428                 1.3980
 Frc consts  --      0.7222                 0.6303                 0.6916
 IR Inten    --     11.9999                 0.0803                 0.0002

                     22                     23                     24
                      A                      A                      A
 Frequencies --    921.1475               933.3328              1004.5147
 Red. masses --      2.8548                 2.4335                 2.5376
 Frc consts  --      1.4272                 1.2490                 1.5086
 IR Inten    --      0.9478                 0.1051                 0.2540

                     25                     26                     27
                      A                      A                      A
 Frequencies --   1034.2697              1059.9995              1073.9737
 Red. masses --      3.0837                 2.0319                 1.6710
 Frc consts  --      1.9435                 1.3451                 1.1356
 IR Inten    --      0.1058                 0.0002                 3.3150

                     28                     29                     30
                      A                      A                      A
 Frequencies --   1104.3470              1152.6410              1158.4626
 Red. masses --      1.1777                 1.4707                 1.6140
 Frc consts  --      0.8462                 1.1512                 1.2762
 IR Inten    --      0.7153                 0.2151                 0.5055

                     31                     32                     33
                      A                      A                      A
 Frequencies --   1168.2303              1194.9357              1211.5206
 Red. masses --      2.1532                 1.1383                 1.5204
 Frc consts  --      1.7314                 0.9576                 1.3148
 IR Inten    --      0.7307                 0.0019                 0.1364

                     34                     35                     36
                      A                      A                      A
 Frequencies --   1225.4480              1243.6752              1249.0769
 Red. masses --      1.4656                 1.4496                 1.3688
 Frc consts  --      1.2968                 1.3210                 1.2582
 IR Inten    --      1.3453                 2.6417                 6.8153

                     37                     38                     39
                      A                      A                      A
 Frequencies --   1279.0347              1289.7027              1326.2753
 Red. masses --      1.4011                 2.5093                 1.3236
 Frc consts  --      1.3505                 2.4591                 1.3718
 IR Inten    --      4.6329                 0.4340                 1.1291

                     40                     41                     42
                      A                      A                      A
 Frequencies --   1336.8464              1358.6998              1378.2007
 Red. masses --      3.5860                 1.3516                 3.4067
 Frc consts  --      3.7759                 1.4701                 3.8125
 IR Inten    --      0.1474                 0.0273                31.4140

                     43                     44                     45
                      A                      A                      A
 Frequencies --   1477.9286              1496.3456              1505.6316
 Red. masses --      7.2946                 1.0865                 1.9647
 Frc consts  --      9.3877                 1.4333                 2.6242
 IR Inten    --      0.1556                 0.1228                 8.1200

                     46                     47                     48
                      A                      A                      A
 Frequencies --   1512.5074              1513.4407              1520.3166
 Red. masses --      1.1246                 1.0987                 1.3756
 Frc consts  --      1.5158                 1.4827                 1.8734
 IR Inten    --      1.1732                 0.8684                18.6931

                     49                     50                     51
                      A                      A                      A
 Frequencies --   1533.7485              1650.0437              1659.3907
 Red. masses --      1.1086                 8.0278                 7.0549
 Frc consts  --      1.5365                12.8777                11.4456
 IR Inten    --      0.0252                 0.1790                 0.5194

                     52                     53                     54
                      A                      A                      A
 Frequencies --   3019.8644              3020.3346              3058.8789
 Red. masses --      1.0712                 1.0695                 1.0562
 Frc consts  --      5.7556                 5.7483                 5.8226
 IR Inten    --     45.4152                33.8701                36.9508

                     55                     56                     57
                      A                      A                      A
 Frequencies --   3058.9300              3064.0466              3083.1090
 Red. masses --      1.0669                 1.0590                 1.0933
 Frc consts  --      5.8817                 5.8576                 6.1229
 IR Inten    --     21.8498                87.7270                32.8965

                     58                     59                     60
                      A                      A                      A
 Frequencies --   3086.4458              3097.8041              3112.9066
 Red. masses --      1.0882                 1.1092                 1.1070
 Frc consts  --      6.1075                 6.2717                 6.3204
 IR Inten    --     49.3263                 0.0005                44.9218

                     61                     62                     63
                      A                      A                      A
 Frequencies --   3113.8717              3182.0798              3183.5986
 Red. masses --      1.1039                 1.0914                 1.0909
 Frc consts  --      6.3063                 6.5109                 6.5142
 IR Inten    --     58.4183                38.5694                 0.0678

 - Thermochemistry -
 -------------------
 Temperature   298.150 Kelvin.  Pressure   1.00000 Atm.
 Atom     1 has atomic number  6 and mass  12.00000

 Molecular mass:   144.09390 amu.
 Principal axes and moments of inertia in atomic units:
                           1         2         3
     Eigenvalues --   599.373592306.558052834.07082
           X            1.00000  -0.00000  -0.00013
           Y            0.00000   1.00000   0.00000
           Z            0.00013  -0.00000   1.00000
 This molecule is an asymmetric top.
 Rotational symmetry number  1.
 Warning -- assumption of classical behavior for rotation
           may cause significant error
 Rotational temperatures (Kelvin)      0.14451     0.03755     0.03056
 Rotational constants (GHZ):           3.01105     0.78244     0.63680
 Zero-point vibrational energy     523692.6 (Joules/Mol)
                                  125.16553 (Kcal/Mol)
 Warning -- explicit consideration of  11 degrees of freedom as
           vibrations may cause significant error
 Vibrational temperatures:    161.33   216.18   282.31   351.73   441.95
          (Kelvin)            444.21   587.35   628.11   643.05   814.79
                              888.66   945.13  1042.76  1106.68  1121.58
                             1136.83  1180.31  1257.09  1267.38  1284.21
                             1318.37  1325.33  1342.86  1445.27  1488.08
                             1525.10  1545.21  1588.91  1658.39  1666.77
                             1680.82  1719.25  1743.11  1763.15  1789.37
                             1797.14  1840.25  1855.59  1908.21  1923.42
                             1954.87  1982.92  2126.41  2152.91  2166.27
                             2176.16  2177.50  2187.40  2206.72  2374.04
                             2387.49  4344.91  4345.59  4401.04  4401.12
                             4408.48  4435.91  4440.71  4457.05  4478.78
                             4480.17  4578.30  4580.49

 Zero-point correction=                           0.199464 (Hartree/Particle)
 Thermal correction to Energy=                    0.207972
 Thermal correction to Enthalpy=                  0.208916
 Thermal correction to Gibbs Free Energy=         0.166184
 Sum of electronic and zero-point Energies=           -426.213580
 Sum of electronic and thermal Energies=              -426.205072
 Sum of electronic and thermal Enthalpies=            -426.204128
 Sum of electronic and thermal Free Energies=         -426.246859

                     E (Thermal)             CV                S
                      KCal/Mol        Cal/Mol-Kelvin    Cal/Mol-Kelvin
 Total                  130.504             35.062             89.936
 Electronic               0.000              0.000              0.000
 Translational            0.889              2.981             40.807
 Rotational               0.889              2.981             29.750
 Vibrational            128.727             29.101             19.379
 Vibration     1          0.607              1.939              3.232
 Vibration     2          0.618              1.902              2.669
 Vibration     3          0.636              1.845              2.168
 Vibration     4          0.660              1.772              1.770
 Vibration     5          0.697              1.660              1.378
 Vibration     6          0.698              1.657              1.369
 Vibration     7          0.773              1.452              0.933
 Vibration     8          0.797              1.391              0.837
 Vibration     9          0.806              1.368              0.805
 Vibration    10          0.922              1.104              0.511
 Vibration    11          0.977              0.995              0.420

                           ! Non-Optimized Parameters !
 Normal termination of Gaussian 16 at Tue Dec  8 19:16:30 2020.

 ----------------------------------------------------------------------
 # B3LYP/6-311++G(d,p) empiricaldispersion=gd3bj scf=xqc pop=npa geom=c
 heck
 ----------------------------------------------------------------------

 ------------------------------------
 CID_143714_JID_1140_Energie_neutraal
 ------------------------------------
 Structure from the checkpoint file:  "JID_1140.chk"
 Charge =  0 Multiplicity = 1

 SCF Done:  E(RB3LYP) =  -426.516343974     A.U. after   14 cycles
 Normal termination of Gaussian 16 at Tue Dec  8 19:18:32 2020.

 ----------------------------------------------------------------------
 # B3LYP/6-311++G(d,p) empiricaldispersion=gd3bj scf=xqc pop=npa geom=c
 heck
 ----------------------------------------------------------------------

 ----------------------------------
 CID_143714_JID_1140_Energie_kation
 ----------------------------------
 Structure from the checkpoint file:  "JID_1140.chk"
 Charge =  1 Multiplicity = 2

 SCF Done:  E(UB3LYP) =  -426.225039830     A.U. after   16 cycles
 Normal termination of Gaussian 16 at Tue Dec  8 19:21:49 2020.
 Gaussian 16:  ES64L-G16RevA.03 25-Dec-2016

 ----------------------------------------------------------------------
 # B3LYP/6-311++G(d,p) empiricaldispersion=gd3bj scf=xqc pop=npa geom=c
 heck
 ----------------------------------------------------------------------

 ---------------------------------
 CID_143714_JID_1140_Energie_anion
 ---------------------------------
 Structure from the checkpoint file:  "JID_1140.chk"
 Charge = -1 Multiplicity = 2

                         Standard orientation:
 ---------------------------------------------------------------------
 Center     Atomic      Atomic             Coordinates (Angstroms)
 Number     Number       Type             X           Y           Z
 ---------------------------------------------------------------------
      1          6           0        3.108478    0.000001    0.306744
      2          6           0        2.266445   -1.225259   -0.121330
      3          6           0        0.845000   -0.704533   -0.064533
      4          6           0       -0.342594   -1.447125   -0.035049
      5          6           0       -1.512117   -0.698944   -0.003339
      6          6           0       -1.512117    0.698944   -0.003342
      7          6           0       -3.031575    0.791197    0.051752
      8          6           0       -3.031576   -0.791197    0.051723
      9          6           0       -0.342595    1.447126   -0.035061
     10          6           0        0.845000    0.704534   -0.064541
     11          6           0        2.266445    1.225258   -0.121334
     12          1           0        3.213721    0.000002    1.398045
     13          1           0        4.114679    0.000000   -0.123263
     14          1           0        2.519393   -1.531549   -1.147436
     15          1           0        2.431522   -2.099409    0.518581
     16          1           0       -0.329554   -2.534641   -0.029890
     17          1           0       -3.448902    1.246451    0.956879
     18          1           0       -3.513035    1.247257   -0.820553
     19          1           0       -3.513043   -1.247249   -0.820583
     20          1           0       -3.448895   -1.246460    0.956848
     21          1           0       -0.329554    2.534642   -0.029887
     22          1           0        2.431526    2.099416    0.518564
     23          1           0        2.519393    1.531534   -1.147445
 ---------------------------------------------------------------------

 SCF Done:  E(UB3LYP) =  -426.494030193     A.U. after   33 cycles
 SCF Done:  E(UB3LYP) =  -426.494030193     a.u. after    1 cycles

 The electronic state is 2-A.
 Alpha  occ. eigenvalues --  -10.06916 -10.06900 -10.06107 -10.06059 -10.05839
 Alpha  occ. eigenvalues --  -10.05838 -10.05823 -10.05822 -10.05724 -10.05673
 Alpha  occ. eigenvalues --  -10.05610  -0.76993  -0.73192  -0.65908  -0.64433
 Alpha  occ. eigenvalues --   -0.58112  -0.56058  -0.52151  -0.48967  -0.46617
 Alpha  occ. eigenvalues --   -0.41948  -0.38202  -0.37922  -0.35744  -0.35224
 Alpha  occ. eigenvalues --   -0.33442  -0.29243  -0.27756  -0.27743  -0.26085
 Alpha  occ. eigenvalues --   -0.25592  -0.24173  -0.23580  -0.22945  -0.21340
 Alpha  occ. eigenvalues --   -0.21257  -0.20104  -0.13653  -0.11406   0.05416
 Alpha virt. eigenvalues --    0.07169   0.07741   0.08025   0.09119   0.09542
 Alpha virt. eigenvalues --    0.09915   0.10682   0.11205   0.11500   0.11578
 Alpha virt. eigenvalues --    0.11852   0.12325   0.12812   0.14233   0.16429

  Beta  occ. eigenvalues --  -10.06892 -10.06876 -10.06105 -10.06056 -10.05801
  Beta  occ. eigenvalues --  -10.05800 -10.05798 -10.05796 -10.05713 -10.05664
  Beta  occ. eigenvalues --  -10.05580  -0.76944  -0.73150  -0.65855  -0.64365
  Beta  occ. eigenvalues --   -0.58056  -0.56002  -0.52074  -0.48868  -0.46538
  Beta  occ. eigenvalues --   -0.41912  -0.38146  -0.37864  -0.35696  -0.35173
  Beta  occ. eigenvalues --   -0.33374  -0.29205  -0.27701  -0.27701  -0.26039
  Beta  occ. eigenvalues --   -0.25520  -0.24117  -0.23537  -0.22897  -0.21305
  Beta  occ. eigenvalues --   -0.21169  -0.20049  -0.13432  -0.11325
  Beta virt. eigenvalues --    0.07552   0.08156   0.08227   0.08407   0.09693
  Beta virt. eigenvalues --    0.09888   0.10465   0.11221   0.11404   0.11819
  Beta virt. eigenvalues --    0.12106   0.12178   0.12608   0.13180   0.14528

 Mulliken charges and spin densities:
               1          2
     1  C    0.488541  -0.840706
     2  C   -0.036300  -0.397068
     3  C    0.598334  -0.485957
     4  C   -1.472449   0.834076
     5  C    0.125095   0.504175
     6  C    0.124924   0.504373
     7  C    1.130614  -1.479986
     8  C    1.130587  -1.479953
     9  C   -1.472465   0.834077
    10  C    0.598340  -0.486000
    11  C   -0.036179  -0.397204
    12  H    0.057998   0.063555
    13  H   -0.611944   0.780732
    14  H   -0.163861   0.327814
    15  H   -0.065431   0.200207
    16  H   -0.298132   0.423977
    17  H    0.022533   0.107610
    18  H   -0.307638   0.463316
    19  H   -0.307743   0.463431
    20  H    0.022603   0.107532
    21  H   -0.298124   0.423970
    22  H   -0.065451   0.200227
    23  H   -0.163851   0.327804
 Sum of Mulliken charges =  -1.00000   1.00000

 Dipole moment (field-independent basis, Debye):
    X=             -1.4824    Y=              0.0000    Z=              4.0140  Tot=              4.2790
 Quadrupole moment (field-independent basis, Debye-Ang):
   XX=           -140.6515   YY=            -94.8903   ZZ=            -95.2202
   XY=             -0.0002   XZ=             -0.5949   YZ=             -0.0003

 Summary of Natural Population Analysis:

                                       Natural Population
                Natural  -----------------------------------------------
    Atom  No    Charge         Core      Valence    Rydberg      Total
 -----------------------------------------------------------------------
      C    1   -0.18308      0.99965     2.17502    0.00841     3.18308
      C    2   -0.19625      0.99961     2.18830    0.00834     3.19625
      C    3   -0.01221      0.99948     2.00184    0.01089     3.01221
      C    4   -0.09395      0.99945     2.08601    0.00850     3.09395
      C    5   -0.01391      0.99946     2.00281    0.01163     3.01391
      C    6   -0.01391      0.99946     2.00281    0.01163     3.01391
      C    7   -0.18773      0.99963     2.18006    0.00804     3.18773
      C    8   -0.18773      0.99963     2.18006    0.00804     3.18773
      C    9   -0.09395      0.99945     2.08601    0.00850     3.09395
      C   10   -0.01221      0.99948     2.00184    0.01089     3.01221
      C   11   -0.19625      0.99961     2.18830    0.00834     3.19625
      H   12    0.09178      0.00000     0.40688    0.00134     0.40822
      H   13    0.10137      0.00000     0.39594    0.00269     0.39863
      H   14    0.10322      0.00000     0.39454    0.00224     0.39678
      H   15    0.09894      0.00000     0.39995    0.00111     0.40106
      H   16    0.09872      0.00000     0.40008    0.00120     0.40128
      H   17    0.09560      0.00000     0.40330    0.00109     0.40440
      H   18    0.10252      0.00000     0.39487    0.00262     0.39748
      H   19    0.10252      0.00000     0.39486    0.00262     0.39748
      H   20    0.09560      0.00000     0.40330    0.00109     0.40440
      H   21    0.09872      0.00000     0.40008    0.00120     0.40128
      H   22    0.09894      0.00000     0.39995    0.00111     0.40106
      H   23    0.10322      0.00000     0.39454    0.00224     0.39678
 =======================================================================
   * Total *    0.00000     10.99490    27.88134    0.12376    39.00000

 Normal termination of Gaussian 16 at Tue Dec  8 19:28:38 2020.
