 Gaussian 16, Revision A.03,

 -----------------------------------------------------------
 # opt freq B3LYP/6-31G(d) empiricaldispersion=gd3bj scf=xqc
 -----------------------------------------------------------

 -------------------------------
 CID_130709216_JID_3888_neutraal
 -------------------------------
 Symbolic Z-matrix:
 Charge =  0 Multiplicity = 1

 SCF Done:  E(RB3LYP) =  -921.923719412     A.U. after   13 cycles
 SCF Done:  E(RB3LYP) =  -921.927604433     A.U. after   11 cycles
 SCF Done:  E(RB3LYP) =  -921.928109720     A.U. after   11 cycles
 SCF Done:  E(RB3LYP) =  -921.928515402     A.U. after   11 cycles
 SCF Done:  E(RB3LYP) =  -921.928615732     A.U. after   10 cycles
 SCF Done:  E(RB3LYP) =  -921.928655739     A.U. after   10 cycles
 SCF Done:  E(RB3LYP) =  -921.928771796     A.U. after   10 cycles
 SCF Done:  E(RB3LYP) =  -921.928815497     A.U. after   10 cycles
 SCF Done:  E(RB3LYP) =  -921.928821580     A.U. after    9 cycles
 SCF Done:  E(RB3LYP) =  -921.928823822     A.U. after    9 cycles
 SCF Done:  E(RB3LYP) =  -921.928824236     A.U. after    7 cycles
 SCF Done:  E(RB3LYP) =  -921.928824343     A.U. after    7 cycles
 SCF Done:  E(RB3LYP) =  -921.928824354     A.U. after    6 cycles
 Optimization completed.
    -- Stationary point found.
 Normal termination of Gaussian 16 at Mon Dec 14 16:35:19 2020.

 --------------------------------------------------------------------
 #N Geom=AllCheck Guess=TCheck SCRF=Check GenChk RB3LYP/6-31G(d) Freq
 --------------------------------------------------------------------

 Structure from the checkpoint file:  "JID_3888.chk"
 -------------------------------
 CID_130709216_JID_3888_neutraal
 -------------------------------
 Charge =  0 Multiplicity = 1

 SCF Done:  E(RB3LYP) =  -921.928824354     A.U. after    1 cycles

  Exact polarizability: 148.028   2.072 131.480  -2.108  -0.179 109.038
 Approx polarizability: 193.362   0.526 190.291  -1.473  -3.487 170.209

                      1                      2                      3
                      A                      A                      A
 Frequencies --     48.1384                60.2888                75.0932
 Red. masses --      3.8467                 3.6913                 3.4938
 Frc consts  --      0.0053                 0.0079                 0.0116
 IR Inten    --      0.9363                 1.2850                 1.2251

                      4                      5                      6
                      A                      A                      A
 Frequencies --    141.5805               150.1656               186.6238
 Red. masses --      2.1633                 2.8152                 2.4701
 Frc consts  --      0.0255                 0.0374                 0.0507
 IR Inten    --      1.1920                 0.2190                 0.7708

                      7                      8                      9
                      A                      A                      A
 Frequencies --    205.6153               210.2250               239.2014
 Red. masses --      1.4389                 1.4853                 1.7241
 Frc consts  --      0.0358                 0.0387                 0.0581
 IR Inten    --      2.5946                 0.6148                 2.4683

                     10                     11                     12
                      A                      A                      A
 Frequencies --    247.1976               264.7852               304.5632
 Red. masses --      1.2671                 2.1200                 2.8251
 Frc consts  --      0.0456                 0.0876                 0.1544
 IR Inten    --      1.0489                 0.9182                 0.2293

                     13                     14                     15
                      A                      A                      A
 Frequencies --    331.2420               354.6000               357.7118
 Red. masses --      2.3647                 2.2843                 3.1122
 Frc consts  --      0.1529                 0.1692                 0.2346
 IR Inten    --      0.1125                 1.0129                 1.0416

                     16                     17                     18
                      A                      A                      A
 Frequencies --    364.9646               423.6880               439.9169
 Red. masses --      3.1681                 2.2453                 2.1223
 Frc consts  --      0.2486                 0.2375                 0.2420
 IR Inten    --      1.0132                 1.8074                 1.3602

                     19                     20                     21
                      A                      A                      A
 Frequencies --    458.0311               482.9969               504.6682
 Red. masses --      3.6273                 2.1847                 3.3224
 Frc consts  --      0.4484                 0.3003                 0.4986
 IR Inten    --      6.0471                 1.3497                 7.6953

                     22                     23                     24
                      A                      A                      A
 Frequencies --    560.7457               609.9829               631.6970
 Red. masses --      2.6084                 2.4550                 1.1704
 Frc consts  --      0.4832                 0.5382                 0.2752
 IR Inten    --      3.1505                26.0880               113.2308

                     25                     26                     27
                      A                      A                      A
 Frequencies --    683.9991               746.2082               768.7683
 Red. masses --      3.9512                 2.9940                 3.6370
 Frc consts  --      1.0892                 0.9823                 1.2664
 IR Inten    --      2.3930                 5.0669                 7.6923

                     28                     29                     30
                      A                      A                      A
 Frequencies --    784.1932               813.6124               841.1171
 Red. masses --      2.3541                 1.8509                 1.7104
 Frc consts  --      0.8529                 0.7219                 0.7130
 IR Inten    --      8.4971                12.4685                 4.4900

                     31                     32                     33
                      A                      A                      A
 Frequencies --    857.9575               917.3532               927.3117
 Red. masses --      1.7788                 1.8697                 1.8790
 Frc consts  --      0.7714                 0.9270                 0.9520
 IR Inten    --      1.1931                 4.4414                 5.8714

                     34                     35                     36
                      A                      A                      A
 Frequencies --    953.4242               961.5628               986.1816
 Red. masses --      1.5245                 1.7582                 1.8311
 Frc consts  --      0.8165                 0.9578                 1.0493
 IR Inten    --      1.8188                17.6610                15.2447

                     37                     38                     39
                      A                      A                      A
 Frequencies --   1005.6992              1037.6813              1041.2404
 Red. masses --      1.8818                 1.5699                 1.5249
 Frc consts  --      1.1214                 0.9960                 0.9741
 IR Inten    --      1.5188                 9.1508                 7.1930

                     40                     41                     42
                      A                      A                      A
 Frequencies --   1058.7694              1078.2106              1102.3393
 Red. masses --      2.9199                 2.2141                 2.0282
 Frc consts  --      1.9285                 1.5166                 1.4521
 IR Inten    --      4.7672                51.1168                 2.9816

                     43                     44                     45
                      A                      A                      A
 Frequencies --   1117.2546              1145.8336              1169.6771
 Red. masses --      2.2843                 1.7474                 1.7301
 Frc consts  --      1.6800                 1.3517                 1.3946
 IR Inten    --     15.7818                20.6559                18.3389

                     46                     47                     48
                      A                      A                      A
 Frequencies --   1178.5750              1201.8981              1236.6127
 Red. masses --      2.1884                 1.8140                 1.6386
 Frc consts  --      1.7910                 1.5439                 1.4764
 IR Inten    --     27.5240                10.7802                12.3499

                     49                     50                     51
                      A                      A                      A
 Frequencies --   1257.0998              1277.3197              1284.5401
 Red. masses --      1.9433                 1.4831                 1.4033
 Frc consts  --      1.8094                 1.4257                 1.3643
 IR Inten    --     19.1117                18.6673                 3.0583

                     52                     53                     54
                      A                      A                      A
 Frequencies --   1291.0960              1298.9847              1337.2787
 Red. masses --      1.2787                 1.4139                 1.3988
 Frc consts  --      1.2558                 1.4056                 1.4739
 IR Inten    --      2.7258                 7.3697                15.8620

                     55                     56                     57
                      A                      A                      A
 Frequencies --   1344.5364              1360.0783              1367.2556
 Red. masses --      1.4920                 1.2135                 1.3376
 Frc consts  --      1.5892                 1.3226                 1.4732
 IR Inten    --      4.6323                19.6794                 2.9199

                     58                     59                     60
                      A                      A                      A
 Frequencies --   1403.0790              1420.5146              1426.7261
 Red. masses --      1.3409                 1.4032                 1.3750
 Frc consts  --      1.5553                 1.6682                 1.6491
 IR Inten    --      9.1741                 7.5124                21.6032

                     61                     62                     63
                      A                      A                      A
 Frequencies --   1430.7988              1443.2865              1451.8944
 Red. masses --      1.2743                 1.2358                 1.2129
 Frc consts  --      1.5370                 1.5167                 1.5064
 IR Inten    --     13.5182                 6.2484                14.8479

                     64                     65                     66
                      A                      A                      A
 Frequencies --   1464.5519              1480.4809              1490.6222
 Red. masses --      1.2421                 1.0943                 1.0938
 Frc consts  --      1.5698                 1.4132                 1.4319
 IR Inten    --     62.1553                 2.0254                11.1882

                     67                     68                     69
                      A                      A                      A
 Frequencies --   1511.0942              1514.7350              1516.9884
 Red. masses --      1.0599                 1.0638                 1.0695
 Frc consts  --      1.4259                 1.4381                 1.4501
 IR Inten    --      3.3097                 1.0333                 0.1258

                     70                     71                     72
                      A                      A                      A
 Frequencies --   1524.5764              1529.8893              1534.3559
 Red. masses --      1.0575                 1.0551                 1.0489
 Frc consts  --      1.4482                 1.4549                 1.4549
 IR Inten    --      4.2598                 3.4120                 5.7670

                     73                     74                     75
                      A                      A                      A
 Frequencies --   1539.9080              1550.4994              1552.8177
 Red. masses --      1.0661                 1.0656                 1.0654
 Frc consts  --      1.4894                 1.5093                 1.5135
 IR Inten    --      8.1034                 4.8711                 8.7358

                     76                     77                     78
                      A                      A                      A
 Frequencies --   2996.0632              3032.8782              3040.4163
 Red. masses --      1.0723                 1.0725                 1.0734
 Frc consts  --      5.6714                 5.8124                 5.8463
 IR Inten    --     36.3774                19.4974                 6.5275

                     79                     80                     81
                      A                      A                      A
 Frequencies --   3045.3708              3051.1448              3056.7944
 Red. masses --      1.0464                 1.0655                 1.0384
 Frc consts  --      5.7176                 5.8443                 5.7166
 IR Inten    --     12.5859                80.6178                25.1234

                     82                     83                     84
                      A                      A                      A
 Frequencies --   3060.9947              3063.2361              3068.4872
 Red. masses --      1.0573                 1.0583                 1.0446
 Frc consts  --      5.8366                 5.8508                 5.7949
 IR Inten    --     20.1648                 9.2753                29.9171

                     85                     86                     87
                      A                      A                      A
 Frequencies --   3081.7501              3108.9110              3115.7243
 Red. masses --      1.0997                 1.1012                 1.0913
 Frc consts  --      6.1535                 6.2708                 6.2418
 IR Inten    --     17.6429                73.8603                40.1701

                     88                     89                     90
                      A                      A                      A
 Frequencies --   3116.8934              3117.0510              3122.8735
 Red. masses --      1.1011                 1.1003                 1.1026
 Frc consts  --      6.3028                 6.2984                 6.3353
 IR Inten    --     15.2568                19.1923                12.1900

                     91                     92                     93
                      A                      A                      A
 Frequencies --   3126.2363              3128.2226              3147.4279
 Red. masses --      1.1034                 1.1015                 1.0995
 Frc consts  --      6.3536                 6.3511                 6.4175
 IR Inten    --     13.3328                39.1401                10.2887

                     94                     95                     96
                      A                      A                      A
 Frequencies --   3153.6176              3158.2284              3582.1598
 Red. masses --      1.0939                 1.0972                 1.0640
 Frc consts  --      6.4099                 6.4479                 8.0443
 IR Inten    --     14.5866                25.9002               104.4675

 - Thermochemistry -
 -------------------
 Temperature   298.150 Kelvin.  Pressure   1.00000 Atm.
 Atom     1 has atomic number  6 and mass  12.00000

 Molecular mass:   203.13439 amu.
 Principal axes and moments of inertia in atomic units:
                           1         2         3
     Eigenvalues --  1723.484213861.503204567.26462
           X            0.99896   0.04534  -0.00509
           Y           -0.04531   0.99895   0.00638
           Z            0.00537  -0.00614   0.99997
 This molecule is an asymmetric top.
 Rotational symmetry number  1.
 Warning -- assumption of classical behavior for rotation
           may cause significant error
 Rotational temperatures (Kelvin)      0.05026     0.02243     0.01896
 Rotational constants (GHZ):           1.04715     0.46737     0.39515
 Zero-point vibrational energy     808966.8 (Joules/Mol)
                                  193.34771 (Kcal/Mol)
 Warning -- explicit consideration of  23 degrees of freedom as
           vibrations may cause significant error
 Vibrational temperatures:     69.26    86.74   108.04   203.70   216.05
          (Kelvin)            268.51   295.83   302.47   344.16   355.66
                              380.97   438.20   476.58   510.19   514.67
                              525.10   609.59   632.94   659.00   694.92
                              726.10   806.79   877.63   908.87   984.12
                             1073.63  1106.09  1128.28  1170.61  1210.18
                             1234.41  1319.87  1334.19  1371.76  1383.47
                             1418.90  1446.98  1492.99  1498.11  1523.33
                             1551.30  1586.02  1607.48  1648.60  1682.90
                             1695.71  1729.26  1779.21  1808.69  1837.78
                             1848.17  1857.60  1868.95  1924.05  1934.49
                             1956.85  1967.18  2018.72  2043.80  2052.74
                             2058.60  2076.57  2088.95  2107.16  2130.08
                             2144.67  2174.13  2179.37  2182.61  2193.53
                             2201.17  2207.60  2215.58  2230.82  2234.16
                             4310.67  4363.64  4374.48  4381.61  4389.92
                             4398.05  4404.09  4407.31  4414.87  4433.95
                             4473.03  4482.83  4484.51  4484.74  4493.12
                             4497.96  4500.81  4528.45  4537.35  4543.99
                             5153.93

 Zero-point correction=                           0.308119 (Hartree/Particle)
 Thermal correction to Energy=                    0.322732
 Thermal correction to Enthalpy=                  0.323676
 Thermal correction to Gibbs Free Energy=         0.267349
 Sum of electronic and zero-point Energies=           -921.620705
 Sum of electronic and thermal Energies=              -921.606093
 Sum of electronic and thermal Enthalpies=            -921.605148
 Sum of electronic and thermal Free Energies=         -921.661475

                     E (Thermal)             CV                S
                      KCal/Mol        Cal/Mol-Kelvin    Cal/Mol-Kelvin
 Total                  202.517             57.137            118.550
 Electronic               0.000              0.000              0.000
 Translational            0.889              2.981             41.830
 Rotational               0.889              2.981             31.786
 Vibrational            200.740             51.176             44.933
 Vibration     1          0.595              1.978              4.892
 Vibration     2          0.597              1.973              4.448
 Vibration     3          0.599              1.966              4.015
 Vibration     4          0.615              1.912              2.782
 Vibration     5          0.618              1.902              2.670
 Vibration     6          0.632              1.858              2.261
 Vibration     7          0.640              1.832              2.082
 Vibration     8          0.642              1.825              2.042
 Vibration     9          0.657              1.781              1.809
 Vibration    10          0.661              1.767              1.750
 Vibration    11          0.671              1.738              1.630
 Vibration    12          0.695              1.665              1.392
 Vibration    13          0.714              1.613              1.254
 Vibration    14          0.730              1.566              1.146
 Vibration    15          0.733              1.559              1.132
 Vibration    16          0.738              1.544              1.101
 Vibration    17          0.786              1.419              0.880
 Vibration    18          0.800              1.383              0.827
 Vibration    19          0.816              1.343              0.772
 Vibration    20          0.839              1.288              0.702
 Vibration    21          0.860              1.240              0.647
 Vibration    22          0.916              1.116              0.522
 Vibration    23          0.969              1.011              0.433

 Optimization completed.
    -- Stationary point found.
 Normal termination of Gaussian 16 at Mon Dec 14 16:46:09 2020.

 ----------------------------------------------------------------------
 # B3LYP/6-311++G(d,p) empiricaldispersion=gd3bj scf=xqc pop=npa geom=c
 heck
 ----------------------------------------------------------------------

 ---------------------------------------
 CID_130709216_JID_3888_Energie_neutraal
 ---------------------------------------
 Structure from the checkpoint file:  "JID_3888.chk"
 Charge =  0 Multiplicity = 1

 SCF Done:  E(RB3LYP) =  -922.110238999     A.U. after   13 cycles
 Normal termination of Gaussian 16 at Mon Dec 14 16:51:07 2020.

 ----------------------------------------------------------------------
 # B3LYP/6-311++G(d,p) empiricaldispersion=gd3bj scf=xqc pop=npa geom=c
 heck
 ----------------------------------------------------------------------

 -------------------------------------
 CID_130709216_JID_3888_Energie_kation
 -------------------------------------
 Structure from the checkpoint file:  "JID_3888.chk"
 Charge =  1 Multiplicity = 2

 SCF Done:  E(UB3LYP) =  -921.817043026     A.U. after   23 cycles
 Normal termination of Gaussian 16 at Mon Dec 14 17:03:30 2020.
 Gaussian 16:  ES64L-G16RevA.03 25-Dec-2016

 ----------------------------------------------------------------------
 # B3LYP/6-311++G(d,p) empiricaldispersion=gd3bj scf=xqc pop=npa geom=c
 heck
 ----------------------------------------------------------------------

 ------------------------------------
 CID_130709216_JID_3888_Energie_anion
 ------------------------------------
 Structure from the checkpoint file:  "JID_3888.chk"
 Charge = -1 Multiplicity = 2

                         Standard orientation:
 ---------------------------------------------------------------------
 Center     Atomic      Atomic             Coordinates (Angstroms)
 Number     Number       Type             X           Y           Z
 ---------------------------------------------------------------------
      1          6           0       -3.761907   -1.234723    0.793472
      2          6           0       -3.103605   -0.673002   -0.469193
      3          6           0       -2.413309    0.687028   -0.282643
      4          6           0       -1.248121    0.717853    0.736951
      5          7           0       -0.025390    0.156698    0.137410
      6          6           0        0.159803   -1.245203    0.536892
      7          6           0        1.100320   -2.002715   -0.389631
      8         16           0        2.786898   -1.301189   -0.344217
      9          6           0        2.275029    0.418414   -0.693991
     10          6           0        1.201239    1.005441    0.249843
     11          6           0        0.911673    2.422876   -0.285891
     12          6           0        1.727795    1.109747    1.692245
     13          8           0       -1.931216    1.158782   -1.533766
     14          1           0       -3.025962   -1.493814    1.563469
     15          1           0       -4.333027   -2.141706    0.568358
     16          1           0       -4.455327   -0.507473    1.233728
     17          1           0       -2.381105   -1.391305   -0.878582
     18          1           0       -3.859189   -0.533942   -1.251222
     19          1           0       -3.170022    1.407669    0.054630
     20          1           0       -1.077862    1.759812    1.005578
     21          1           0       -1.517005    0.197493    1.666560
     22          1           0        0.513746   -1.336558    1.576716
     23          1           0       -0.820286   -1.726646    0.493849
     24          1           0        0.718675   -1.974406   -1.416627
     25          1           0        1.182649   -3.047835   -0.077477
     26          1           0        1.907463    0.472595   -1.724757
     27          1           0        3.185669    1.020336   -0.627594
     28          1           0        0.369740    3.037322    0.438574
     29          1           0        1.857708    2.934163   -0.492183
     30          1           0        0.319361    2.388667   -1.203395
     31          1           0        2.092169    0.149977    2.065496
     32          1           0        2.559924    1.820964    1.740699
     33          1           0        0.940141    1.471435    2.362244
     34          1           0       -1.063876    0.710854   -1.610663
 ---------------------------------------------------------------------

 SCF Done:  E(UB3LYP) =  -922.095206274     A.U. after   31 cycles

 The electronic state is 2-A.
 Alpha  occ. eigenvalues --  -88.74506 -19.01273 -14.22008 -10.12552 -10.11847
 Alpha  occ. eigenvalues --  -10.10625 -10.10507 -10.10482 -10.09622 -10.06666
 Alpha  occ. eigenvalues --  -10.06629 -10.06109 -10.06003  -7.83153  -5.79529
 Alpha  occ. eigenvalues --   -5.79203  -5.78517  -0.92199  -0.83832  -0.72134
 Alpha  occ. eigenvalues --   -0.70543  -0.68158  -0.62928  -0.60471  -0.59653
 Alpha  occ. eigenvalues --   -0.56177  -0.53538  -0.51034  -0.48382  -0.43927
 Alpha  occ. eigenvalues --   -0.40554  -0.39706  -0.38337  -0.36943  -0.35984
 Alpha  occ. eigenvalues --   -0.35663  -0.34516  -0.33391  -0.32343  -0.31323
 Alpha  occ. eigenvalues --   -0.29829  -0.29750  -0.28830  -0.28490  -0.28152
 Alpha  occ. eigenvalues --   -0.27272  -0.26293  -0.25616  -0.25063  -0.24701
 Alpha  occ. eigenvalues --   -0.23435  -0.22260  -0.20749  -0.17195  -0.13876
 Alpha  occ. eigenvalues --   -0.13076   0.04437
 Alpha virt. eigenvalues --    0.06080   0.06978   0.07585   0.08410   0.09132
 Alpha virt. eigenvalues --    0.09262   0.09378   0.10333   0.10583   0.10978
 Alpha virt. eigenvalues --    0.11606   0.12306   0.12414   0.13033   0.13103

  Beta  occ. eigenvalues --  -88.74504 -19.01271 -14.21999 -10.12551 -10.11839
  Beta  occ. eigenvalues --  -10.10611 -10.10487 -10.10467 -10.09605 -10.06642
  Beta  occ. eigenvalues --  -10.06617 -10.06065 -10.05968  -7.83151  -5.79527
  Beta  occ. eigenvalues --   -5.79198  -5.78514  -0.92192  -0.83817  -0.72114
  Beta  occ. eigenvalues --   -0.70517  -0.68127  -0.62892  -0.60428  -0.59599
  Beta  occ. eigenvalues --   -0.56128  -0.53480  -0.50990  -0.48337  -0.43873
  Beta  occ. eigenvalues --   -0.40530  -0.39673  -0.38298  -0.36918  -0.35956
  Beta  occ. eigenvalues --   -0.35638  -0.34482  -0.33364  -0.32313  -0.31284
  Beta  occ. eigenvalues --   -0.29791  -0.29719  -0.28795  -0.28448  -0.28119
  Beta  occ. eigenvalues --   -0.27235  -0.26261  -0.25582  -0.25030  -0.24668
  Beta  occ. eigenvalues --   -0.23407  -0.22238  -0.20726  -0.17183  -0.13844
  Beta  occ. eigenvalues --   -0.13049
  Beta virt. eigenvalues --    0.06684   0.07087   0.07540   0.08131   0.08870
  Beta virt. eigenvalues --    0.09566   0.09722   0.09777   0.10582   0.10998
  Beta virt. eigenvalues --    0.11363   0.12053   0.12612   0.12737   0.13286

 Mulliken charges and spin densities:
               1          2
     1  C    1.562370  -2.195124
     2  C   -1.234481   1.246728
     3  C    0.371907  -0.826877
     4  C    0.282095  -0.619778
     5  N    0.107198   0.069020
     6  C    0.392807  -0.397947
     7  C   -0.608644  -0.239739
     8  S    0.110338  -0.001241
     9  C   -0.031844  -0.526552
    10  C   -1.355259   1.612370
    11  C    0.013602  -0.381277
    12  C    1.060793  -1.808226
    13  O   -0.175819   0.007851
    14  H   -0.468772   0.607942
    15  H   -0.410277   0.560005
    16  H   -0.253015   0.387883
    17  H   -0.131765   0.267803
    18  H   -0.035901   0.218585
    19  H   -0.152597   0.352581
    20  H    0.381831  -0.249034
    21  H    0.009315   0.164657
    22  H   -0.000837   0.150822
    23  H    0.315791  -0.146664
    24  H    0.186905   0.005128
    25  H   -0.247084   0.462929
    26  H    0.098372   0.096560
    27  H    0.024939   0.195599
    28  H   -0.271472   0.434088
    29  H   -0.238342   0.390897
    30  H    0.153030  -0.017117
    31  H    0.079250   0.054265
    32  H   -0.389633   0.547551
    33  H   -0.417387   0.588904
    34  H    0.272585  -0.012593
 Sum of Mulliken charges =  -1.00000   1.00000

 Dipole moment (field-independent basis, Debye):
    X=              2.7375    Y=             -0.2385    Z=             -3.5943  Tot=              4.5244
 Quadrupole moment (field-independent basis, Debye-Ang):
   XX=           -165.9424   YY=           -142.9172   ZZ=           -131.7443
   XY=            -11.8466   XZ=              0.2470   YZ=              0.4827

 Summary of Natural Population Analysis:

                                       Natural Population
                Natural  -----------------------------------------------
    Atom  No    Charge         Core      Valence    Rydberg      Total
 -----------------------------------------------------------------------
      C    1   -0.28919      0.99966     2.28427    0.00526     3.28919
      C    2   -0.20208      0.99962     2.19304    0.00942     3.20208
      C    3    0.06165      0.99956     1.92385    0.01495     2.93835
      C    4   -0.09891      0.99958     2.08758    0.01175     3.09891
      N    5   -0.30745      0.99968     2.79165    0.01612     3.80745
      C    6   -0.09046      0.99958     2.07828    0.01261     3.09046
      C    7   -0.25074      0.99958     2.24084    0.01032     3.25074
      S    8    0.08820      4.99963     2.89501    0.01716     7.91180
      C    9   -0.25174      0.99950     2.23964    0.01260     3.25174
      C   10    0.06591      0.99954     1.91796    0.01658     2.93409
      C   11   -0.29180      0.99960     2.28427    0.00793     3.29180
      C   12   -0.30242      0.99960     2.29508    0.00774     3.30242
      O   13   -0.37946      0.99990     3.37324    0.00632     4.37946
      H   14    0.09746      0.00000     0.40084    0.00169     0.40254
      H   15    0.10183      0.00000     0.39686    0.00130     0.39817
      H   16    0.09737      0.00000     0.40116    0.00147     0.40263
      H   17    0.09269      0.00000     0.40579    0.00152     0.40731
      H   18    0.10035      0.00000     0.39849    0.00116     0.39965
      H   19    0.08369      0.00000     0.41505    0.00126     0.41631
      H   20    0.10205      0.00000     0.39624    0.00171     0.39795
      H   21    0.09652      0.00000     0.40183    0.00166     0.40348
      H   22    0.08949      0.00000     0.40862    0.00189     0.41051
      H   23    0.10363      0.00000     0.39426    0.00212     0.39637
      H   24    0.09915      0.00000     0.39923    0.00162     0.40085
      H   25    0.10952      0.00000     0.38946    0.00101     0.39048
      H   26    0.10235      0.00000     0.39606    0.00158     0.39765
      H   27    0.11060      0.00000     0.38839    0.00101     0.38940
      H   28    0.10342      0.00000     0.39552    0.00106     0.39658
      H   29    0.10328      0.00000     0.39570    0.00103     0.39672
      H   30    0.10798      0.00000     0.39090    0.00113     0.39202
      H   31    0.10655      0.00000     0.39183    0.00161     0.39345
      H   32    0.10414      0.00000     0.39434    0.00152     0.39586
      H   33    0.10373      0.00000     0.39493    0.00133     0.39627
      H   34    0.23266      0.00000     0.26396    0.00338     0.26734
 =======================================================================
   * Total *   -0.00000     16.99503    38.82415    0.18082    56.00000

 Normal termination of Gaussian 16 at Mon Dec 14 17:19:31 2020.
