 Gaussian 16, Revision A.03,

 -----------------------------------------------------------
 # opt freq B3LYP/6-31G(d) empiricaldispersion=gd3bj scf=xqc
 -----------------------------------------------------------

 ------------------------------
 CID_57055567_JID_3007_neutraal
 ------------------------------
 Symbolic Z-matrix:
 Charge =  0 Multiplicity = 1

 SCF Done:  E(RB3LYP) =  -644.901716121     A.U. after   15 cycles
 SCF Done:  E(RB3LYP) =  -644.909901300     A.U. after   13 cycles
 SCF Done:  E(RB3LYP) =  -644.910939763     A.U. after   12 cycles
 SCF Done:  E(RB3LYP) =  -644.911124881     A.U. after   11 cycles
 SCF Done:  E(RB3LYP) =  -644.911074260     A.U. after   12 cycles
 SCF Done:  E(RB3LYP) =  -644.911182174     A.U. after   11 cycles
 SCF Done:  E(RB3LYP) =  -644.911260528     A.U. after   11 cycles
 SCF Done:  E(RB3LYP) =  -644.911726044     A.U. after   15 cycles
 SCF Done:  E(RB3LYP) =  -644.911823822     A.U. after   15 cycles
 SCF Done:  E(RB3LYP) =  -644.912872579     A.U. after   11 cycles
 SCF Done:  E(RB3LYP) =  -644.914434704     A.U. after   10 cycles
 SCF Done:  E(RB3LYP) =  -644.914435410     A.U. after   10 cycles
 SCF Done:  E(RB3LYP) =  -644.914435646     A.U. after    8 cycles
 SCF Done:  E(RB3LYP) =  -644.914435702     A.U. after    8 cycles
 SCF Done:  E(RB3LYP) =  -644.914435720     A.U. after    8 cycles
 Optimization completed.
    -- Stationary point found.
 Normal termination of Gaussian 16 at Wed Dec  9 22:25:37 2020.

 --------------------------------------------------------------------
 #N Geom=AllCheck Guess=TCheck SCRF=Check GenChk RB3LYP/6-31G(d) Freq
 --------------------------------------------------------------------

 Structure from the checkpoint file:  "JID_3007.chk"
 ------------------------------
 CID_57055567_JID_3007_neutraal
 ------------------------------
 Charge =  0 Multiplicity = 1

 SCF Done:  E(RB3LYP) =  -644.914435720     A.U. after    1 cycles

  Exact polarizability: 171.587   5.365  99.321  -3.424   0.340  51.951
 Approx polarizability: 245.220  19.051 176.515  -1.930   2.530  84.207

                      1                      2                      3
                      A                      A                      A
 Frequencies --     20.5460                43.2813                65.3479
 Red. masses --      4.7656                 6.6643                 5.8487
 Frc consts  --      0.0012                 0.0074                 0.0147
 IR Inten    --      7.3302                 5.8549                 0.4850

                      4                      5                      6
                      A                      A                      A
 Frequencies --    114.2702               122.7033               221.6950
 Red. masses --      6.3417                 6.3816                 9.0599
 Frc consts  --      0.0488                 0.0566                 0.2624
 IR Inten    --      0.7332                 0.8380                 1.4271

                      7                      8                      9
                      A                      A                      A
 Frequencies --    282.2885               287.6590               322.6834
 Red. masses --      5.3471                 5.1810                 1.2602
 Frc consts  --      0.2510                 0.2526                 0.0773
 IR Inten    --      4.2313                11.1191               254.1372

                     10                     11                     12
                      A                      A                      A
 Frequencies --    358.0962               383.3473               421.5279
 Red. masses --      1.0654                 3.6507                 3.1915
 Frc consts  --      0.0805                 0.3161                 0.3341
 IR Inten    --     19.3253                 0.5018                 0.0147

                     13                     14                     15
                      A                      A                      A
 Frequencies --    441.1823               492.6795               516.7631
 Red. masses --      3.9617                 1.7826                 3.9153
 Frc consts  --      0.4543                 0.2549                 0.6160
 IR Inten    --      2.5414               222.4448                80.2126

                     16                     17                     18
                      A                      A                      A
 Frequencies --    535.1612               539.7983               589.4389
 Red. masses --      1.2873                 1.9352                 3.3671
 Frc consts  --      0.2172                 0.3322                 0.6893
 IR Inten    --     10.0078               244.4125                23.4160

                     19                     20                     21
                      A                      A                      A
 Frequencies --    645.3570               653.9234               699.4586
 Red. masses --      5.8692                 6.8752                 3.9082
 Frc consts  --      1.4402                 1.7322                 1.1265
 IR Inten    --      0.7382                 1.4626                23.6949

                     22                     23                     24
                      A                      A                      A
 Frequencies --    714.5928               760.1978               826.6339
 Red. masses --      6.8417                 6.1032                 1.2704
 Frc consts  --      2.0584                 2.0781                 0.5115
 IR Inten    --      9.7907                31.8501                 1.9045

                     25                     26                     27
                      A                      A                      A
 Frequencies --    842.8948               846.3781               880.0029
 Red. masses --      2.6334                 2.8209                 7.4747
 Frc consts  --      1.1023                 1.1906                 3.4104
 IR Inten    --     23.7938                29.8732                19.4364

                     28                     29                     30
                      A                      A                      A
 Frequencies --    907.6272               963.2959               980.9518
 Red. masses --      6.5645                 1.3111                 1.3040
 Frc consts  --      3.1862                 0.7168                 0.7393
 IR Inten    --     41.9967                 0.1048                 0.4512

                     31                     32                     33
                      A                      A                      A
 Frequencies --   1029.4042              1077.9913              1096.3033
 Red. masses --      3.1513                 2.9892                 1.8101
 Frc consts  --      1.9675                 2.0466                 1.2818
 IR Inten    --     65.5546               498.2906               185.9018

                     34                     35                     36
                      A                      A                      A
 Frequencies --   1129.3752              1165.4310              1205.0290
 Red. masses --      1.9080                 1.1890                 1.2023
 Frc consts  --      1.4338                 0.9515                 1.0286
 IR Inten    --      4.2424                 4.0337               316.6686

                     37                     38                     39
                      A                      A                      A
 Frequencies --   1271.5388              1344.9991              1347.1226
 Red. masses --      3.3330                 2.9177                 1.5022
 Frc consts  --      3.1750                 3.1098                 1.6062
 IR Inten    --    761.7377                82.2515                 7.2824

                     40                     41                     42
                      A                      A                      A
 Frequencies --   1365.7460              1391.4287              1491.5954
 Red. masses --      3.7181                 5.0102                 3.1469
 Frc consts  --      4.0862                 5.7151                 4.1252
 IR Inten    --     17.7742                 0.7709                 9.5863

                     43                     44                     45
                      A                      A                      A
 Frequencies --   1569.1647              1628.2578              1639.3944
 Red. masses --      2.7272                 6.1776                 1.2313
 Frc consts  --      3.9564                 9.6498                 1.9498
 IR Inten    --     23.3818                14.2137               126.3350

                     46                     47                     48
                      A                      A                      A
 Frequencies --   1671.3918              1695.7721              1813.1335
 Red. masses --      3.3586                 1.3615                12.5674
 Frc consts  --      5.5280                 2.3068                24.3420
 IR Inten    --    141.0144               238.2994               263.7222

                     49                     50                     51
                      A                      A                      A
 Frequencies --   1902.0712              3183.7182              3184.7412
 Red. masses --     11.0936                 1.0896                 1.0895
 Frc consts  --     23.6470                 6.5073                 6.5104
 IR Inten    --    454.0124                16.0932                18.6258

                     52                     53                     54
                      A                      A                      A
 Frequencies --   3226.2681              3233.8396              3570.7007
 Red. masses --      1.0925                 1.0922                 1.0472
 Frc consts  --      6.6997                 6.7294                 7.8669
 IR Inten    --      3.0839                 3.1173                39.6738

                     55                     56                     57
                      A                      A                      A
 Frequencies --   3607.9128              3673.2324              3731.6748
 Red. masses --      1.0453                 1.0999                 1.1053
 Frc consts  --      8.0166                 8.7441                 9.0685
 IR Inten    --     56.1362                15.1269                45.6681

 - Thermochemistry -
 -------------------
 Temperature   298.150 Kelvin.  Pressure   1.00000 Atm.
 Atom     1 has atomic number  6 and mass  12.00000

 Molecular mass:   180.05349 amu.
 Principal axes and moments of inertia in atomic units:
                           1         2         3
     Eigenvalues --   734.365494894.592335348.56677
           X            0.99995  -0.00363  -0.00953
           Y            0.00365   0.99999   0.00205
           Z            0.00952  -0.00209   0.99995
 This molecule is an asymmetric top.
 Rotational symmetry number  1.
 Warning -- assumption of classical behavior for rotation
           may cause significant error
 Rotational temperatures (Kelvin)      0.11794     0.01770     0.01619
 Rotational constants (GHZ):           2.45755     0.36872     0.33743
 Zero-point vibrational energy     417060.2 (Joules/Mol)
                                   99.67978 (Kcal/Mol)
 Warning -- explicit consideration of  18 degrees of freedom as
           vibrations may cause significant error
 Vibrational temperatures:     29.56    62.27    94.02   164.41   176.54
          (Kelvin)            318.97   406.15   413.88   464.27   515.22
                              551.55   606.48   634.76   708.86   743.51
                              769.98   776.65   848.07   928.52   940.85
                             1006.36  1028.14  1093.76  1189.34  1212.74
                             1217.75  1266.13  1305.87  1385.97  1411.37
                             1481.08  1550.99  1577.34  1624.92  1676.80
                             1733.77  1829.46  1935.15  1938.21  1965.00
                             2001.96  2146.07  2257.68  2342.70  2358.72
                             2404.76  2439.84  2608.69  2736.66  4580.66
                             4582.13  4641.88  4652.77  5137.44  5190.98
                             5284.96  5369.05

 Zero-point correction=                           0.158850 (Hartree/Particle)
 Thermal correction to Energy=                    0.170861
 Thermal correction to Enthalpy=                  0.171805
 Thermal correction to Gibbs Free Energy=         0.118979
 Sum of electronic and zero-point Energies=           -644.755586
 Sum of electronic and thermal Energies=              -644.743575
 Sum of electronic and thermal Enthalpies=            -644.742630
 Sum of electronic and thermal Free Energies=         -644.795456

                     E (Thermal)             CV                S
                      KCal/Mol        Cal/Mol-Kelvin    Cal/Mol-Kelvin
 Total                  107.217             44.761            111.181
 Electronic               0.000              0.000              0.000
 Translational            0.889              2.981             41.471
 Rotational               0.889              2.981             31.331
 Vibrational            105.440             38.799             38.380
 Vibration     1          0.593              1.986              6.581
 Vibration     2          0.595              1.980              5.103
 Vibration     3          0.597              1.971              4.289
 Vibration     4          0.607              1.938              3.195
 Vibration     5          0.610              1.930              3.057
 Vibration     6          0.648              1.808              1.945
 Vibration     7          0.681              1.706              1.520
 Vibration     8          0.685              1.697              1.488
 Vibration     9          0.708              1.630              1.296
 Vibration    10          0.733              1.559              1.130
 Vibration    11          0.753              1.506              1.026
 Vibration    12          0.784              1.423              0.887
 Vibration    13          0.801              1.380              0.823
 Vibration    14          0.848              1.266              0.677
 Vibration    15          0.872              1.213              0.618
 Vibration    16          0.890              1.172              0.576
 Vibration    17          0.895              1.162              0.566
 Vibration    18          0.947              1.054              0.468

 Optimization completed.
    -- Stationary point found.
 Normal termination of Gaussian 16 at Wed Dec  9 22:29:42 2020.

 ----------------------------------------------------------------------
 # B3LYP/6-311++G(d,p) empiricaldispersion=gd3bj scf=xqc pop=npa geom=c
 heck
 ----------------------------------------------------------------------

 --------------------------------------
 CID_57055567_JID_3007_Energie_neutraal
 --------------------------------------
 Structure from the checkpoint file:  "JID_3007.chk"
 Charge =  0 Multiplicity = 1

 SCF Done:  E(RB3LYP) =  -645.114606706     A.U. after   15 cycles
 Normal termination of Gaussian 16 at Wed Dec  9 22:31:11 2020.

 ----------------------------------------------------------------------
 # B3LYP/6-311++G(d,p) empiricaldispersion=gd3bj scf=xqc pop=npa geom=c
 heck
 ----------------------------------------------------------------------

 ------------------------------------
 CID_57055567_JID_3007_Energie_kation
 ------------------------------------
 Structure from the checkpoint file:  "JID_3007.chk"
 Charge =  1 Multiplicity = 2

 SCF Done:  E(UB3LYP) =  -644.813494366     A.U. after   23 cycles
 Normal termination of Gaussian 16 at Wed Dec  9 22:34:10 2020.
 Gaussian 16:  ES64L-G16RevA.03 25-Dec-2016

 ----------------------------------------------------------------------
 # B3LYP/6-311++G(d,p) empiricaldispersion=gd3bj scf=xqc pop=npa geom=c
 heck
 ----------------------------------------------------------------------

 -----------------------------------
 CID_57055567_JID_3007_Energie_anion
 -----------------------------------
 Structure from the checkpoint file:  "JID_3007.chk"
 Charge = -1 Multiplicity = 2

                         Standard orientation:
 ---------------------------------------------------------------------
 Center     Atomic      Atomic             Coordinates (Angstroms)
 Number     Number       Type             X           Y           Z
 ---------------------------------------------------------------------
      1          6           0       -0.899049   -1.034467    0.042319
      2          6           0       -2.256878   -1.305286    0.099733
      3          6           0       -3.198483   -0.260098    0.030935
      4          6           0       -2.733884    1.064469   -0.096213
      5          6           0       -1.376560    1.327468   -0.151757
      6          6           0       -0.438103    0.285081   -0.083965
      7          6           0        0.988929    0.633576   -0.136591
      8          8           0        1.449174    1.750000   -0.183266
      9          8           0        1.794891   -0.498595   -0.184460
     10          6           0        3.133632   -0.349945    0.203549
     11          8           0        3.476020    0.105917    1.263193
     12          7           0        3.936481   -0.902266   -0.745447
     13          7           0       -4.555584   -0.532313    0.037773
     14          1           0       -0.182985   -1.845795    0.103366
     15          1           0       -2.604044   -2.330749    0.197897
     16          1           0       -3.451423    1.879147   -0.152398
     17          1           0       -1.013705    2.345682   -0.243258
     18          1           0        3.577099   -1.052904   -1.675670
     19          1           0        4.931788   -0.788237   -0.625375
     20          1           0       -5.166011    0.229800    0.300488
     21          1           0       -4.835306   -1.418259    0.436860
 ---------------------------------------------------------------------

 SCF Done:  E(UB3LYP) =  -645.114267928     A.U. after   33 cycles
 SCF Done:  E(UB3LYP) =  -645.114267928     a.u. after    1 cycles

 The electronic state is 2-A.
 Alpha  occ. eigenvalues --  -19.04924 -18.99911 -18.96906 -14.24390 -14.20574
 Alpha  occ. eigenvalues --  -10.22250 -10.15767 -10.09070 -10.05448 -10.05202
 Alpha  occ. eigenvalues --  -10.05132 -10.05120 -10.04587  -1.00581  -0.93621
 Alpha  occ. eigenvalues --   -0.88862  -0.81901  -0.80924  -0.72474  -0.63201
 Alpha  occ. eigenvalues --   -0.62861  -0.56564  -0.50169  -0.49529  -0.46850
 Alpha  occ. eigenvalues --   -0.43241  -0.41498  -0.40097  -0.38776  -0.38166
 Alpha  occ. eigenvalues --   -0.34262  -0.33045  -0.32173  -0.31400  -0.30698
 Alpha  occ. eigenvalues --   -0.30380  -0.27368  -0.27254  -0.25598  -0.22453
 Alpha  occ. eigenvalues --   -0.20765  -0.19540  -0.19052  -0.18097  -0.15059
 Alpha  occ. eigenvalues --   -0.14121  -0.09810   0.04175
 Alpha virt. eigenvalues --    0.05588   0.06497   0.08519   0.09281   0.10071
 Alpha virt. eigenvalues --    0.10337   0.11451   0.12343   0.12849   0.14398
 Alpha virt. eigenvalues --    0.15098   0.15457   0.15675   0.16778   0.17519

  Beta  occ. eigenvalues --  -19.04916 -18.99899 -18.96691 -14.24350 -14.20474
  Beta  occ. eigenvalues --  -10.22234 -10.15543 -10.08806 -10.05337 -10.05204
  Beta  occ. eigenvalues --  -10.05193 -10.05063 -10.04550  -1.00485  -0.93461
  Beta  occ. eigenvalues --   -0.88611  -0.81825  -0.80691  -0.72295  -0.63020
  Beta  occ. eigenvalues --   -0.62594  -0.56332  -0.49922  -0.49328  -0.46740
  Beta  occ. eigenvalues --   -0.43134  -0.41386  -0.39961  -0.38541  -0.38046
  Beta  occ. eigenvalues --   -0.34158  -0.32848  -0.31887  -0.31178  -0.30580
  Beta  occ. eigenvalues --   -0.30085  -0.27027  -0.26843  -0.25213  -0.22370
  Beta  occ. eigenvalues --   -0.20342  -0.19262  -0.18584  -0.17954  -0.14861
  Beta  occ. eigenvalues --   -0.13752  -0.09144
  Beta virt. eigenvalues --    0.06393   0.07288   0.08727   0.08992   0.09717
  Beta virt. eigenvalues --    0.10354   0.10552   0.11641   0.12548   0.13041
  Beta virt. eigenvalues --    0.14709   0.15115   0.15637   0.15717   0.16988

 Mulliken charges and spin densities:
               1          2
     1  C   -0.199820   0.055752
     2  C   -0.095596  -0.031601
     3  C   -0.040581  -0.128319
     4  C   -0.236904  -0.227651
     5  C   -0.126418   0.055081
     6  C    0.909380  -0.187348
     7  C   -0.386884   0.138040
     8  O   -0.335006   0.082083
     9  O   -0.073743   0.003355
    10  C    0.393104  -0.208204
    11  O   -0.337556   0.009193
    12  N   -0.328518  -0.020701
    13  N   -0.234547  -0.058539
    14  H    0.158955  -0.001524
    15  H    0.038686   0.093288
    16  H    0.024288   0.100914
    17  H    0.168179  -0.006447
    18  H    0.084773   0.184849
    19  H    0.005770   0.272968
    20  H   -0.179655   0.421128
    21  H   -0.207906   0.453684
 Sum of Mulliken charges =  -1.00000   1.00000

 Dipole moment (field-independent basis, Debye):
    X=              2.5201    Y=             -1.4282    Z=             -2.0363  Tot=              3.5408
 Quadrupole moment (field-independent basis, Debye-Ang):
   XX=           -152.3969   YY=            -93.3217   ZZ=            -92.3201
   XY=             -9.2907   XZ=             -2.2840   YZ=             -0.6038

 Summary of Natural Population Analysis:

                                       Natural Population
                Natural  -----------------------------------------------
    Atom  No    Charge         Core      Valence    Rydberg      Total
 -----------------------------------------------------------------------
      C    1   -0.04845      0.99955     2.04037    0.00853     3.04845
      C    2   -0.15146      0.99953     2.14216    0.00977     3.15146
      C    3    0.13494      0.99950     1.85441    0.01114     2.86506
      C    4   -0.15021      0.99953     2.14110    0.00958     3.15021
      C    5   -0.04227      0.99955     2.03391    0.00881     3.04227
      C    6   -0.10495      0.99945     2.09553    0.00997     3.10495
      C    7    0.42477      0.99960     1.55024    0.02539     2.57523
      O    8   -0.28463      0.99987     3.28005    0.00471     4.28463
      O    9   -0.30945      0.99985     3.30161    0.00799     4.30945
      C   10    0.46458      0.99974     1.50874    0.02694     2.53542
      O   11   -0.30468      0.99986     3.29972    0.00511     4.30468
      N   12   -0.40873      0.99970     2.90165    0.00738     3.90873
      N   13   -0.38797      0.99971     2.87810    0.01017     3.88797
      H   14    0.10321      0.00000     0.39598    0.00082     0.39679
      H   15    0.09569      0.00000     0.40346    0.00085     0.40431
      H   16    0.09586      0.00000     0.40328    0.00086     0.40414
      H   17    0.10590      0.00000     0.39326    0.00084     0.39410
      H   18    0.19874      0.00000     0.29928    0.00198     0.30126
      H   19    0.19507      0.00000     0.30275    0.00218     0.30493
      H   20    0.18700      0.00000     0.30903    0.00397     0.31300
      H   21    0.18705      0.00000     0.30891    0.00404     0.31295
 =======================================================================
   * Total *   -0.00000     12.99544    33.84354    0.16103    47.00000

 Normal termination of Gaussian 16 at Wed Dec  9 22:38:23 2020.
