 Gaussian 16, Revision A.03,

 -----------------------------------------------------------
 # opt freq B3LYP/6-31G(d) empiricaldispersion=gd3bj scf=xqc
 -----------------------------------------------------------

 -------------------------------
 CID_104394608_JID_7842_neutraal
 -------------------------------
 Symbolic Z-matrix:
 Charge =  0 Multiplicity = 1

 SCF Done:  E(RB3LYP) =  -732.715404635     A.U. after   13 cycles
 SCF Done:  E(RB3LYP) =  -732.721278912     A.U. after   12 cycles
 SCF Done:  E(RB3LYP) =  -732.722380323     A.U. after   11 cycles
 SCF Done:  E(RB3LYP) =  -732.723038419     A.U. after   12 cycles
 SCF Done:  E(RB3LYP) =  -732.723316055     A.U. after   11 cycles
 SCF Done:  E(RB3LYP) =  -732.723589019     A.U. after   12 cycles
 SCF Done:  E(RB3LYP) =  -732.723744626     A.U. after   11 cycles
 SCF Done:  E(RB3LYP) =  -732.723829364     A.U. after   11 cycles
 SCF Done:  E(RB3LYP) =  -732.723881419     A.U. after   10 cycles
 SCF Done:  E(RB3LYP) =  -732.723910283     A.U. after   11 cycles
 SCF Done:  E(RB3LYP) =  -732.726693574     A.U. after    9 cycles
 SCF Done:  E(RB3LYP) =  -732.726695046     A.U. after    9 cycles
 SCF Done:  E(RB3LYP) =  -732.726695618     A.U. after    9 cycles
 SCF Done:  E(RB3LYP) =  -732.726695751     A.U. after    7 cycles
 SCF Done:  E(RB3LYP) =  -732.726695776     A.U. after    7 cycles
 Optimization completed.
    -- Stationary point found.
 Normal termination of Gaussian 16 at Fri Dec 11 13:36:38 2020.

 --------------------------------------------------------------------
 #N Geom=AllCheck Guess=TCheck SCRF=Check GenChk RB3LYP/6-31G(d) Freq
 --------------------------------------------------------------------

 Structure from the checkpoint file:  "JID_7842.chk"
 -------------------------------
 CID_104394608_JID_7842_neutraal
 -------------------------------
 Charge =  0 Multiplicity = 1

 SCF Done:  E(RB3LYP) =  -732.726695776     A.U. after    1 cycles

  Exact polarizability: 230.532  -5.689 160.255  -9.771  -1.240 113.824
 Approx polarizability: 277.007  -4.474 252.401 -22.817  -6.841 170.073

                      1                      2                      3
                      A                      A                      A
 Frequencies --     15.0333                22.7100                29.8775
 Red. masses --      3.4322                 3.7152                 3.7876
 Frc consts  --      0.0005                 0.0011                 0.0020
 IR Inten    --      0.4135                 0.4527                 0.4258

                      4                      5                      6
                      A                      A                      A
 Frequencies --     45.4441                52.0569                80.3702
 Red. masses --      3.2398                 3.8565                 3.1439
 Frc consts  --      0.0039                 0.0062                 0.0120
 IR Inten    --      0.4854                 0.3752                 0.7645

                      7                      8                      9
                      A                      A                      A
 Frequencies --    100.1225               121.8440               156.8181
 Red. masses --      3.3497                 2.3997                 2.6844
 Frc consts  --      0.0198                 0.0210                 0.0389
 IR Inten    --      0.3048                 1.0236                 2.7414

                     10                     11                     12
                      A                      A                      A
 Frequencies --    172.8483               181.7048               209.6456
 Red. masses --      2.4795                 2.7071                 2.2678
 Frc consts  --      0.0436                 0.0527                 0.0587
 IR Inten    --      3.6003                 0.4969                 0.8753

                     13                     14                     15
                      A                      A                      A
 Frequencies --    218.8391               245.2018               263.0777
 Red. masses --      1.3087                 1.6499                 2.2898
 Frc consts  --      0.0369                 0.0584                 0.0934
 IR Inten    --      0.2212                 8.1630                 8.4168

                     16                     17                     18
                      A                      A                      A
 Frequencies --    287.0205               319.3735               339.0426
 Red. masses --      1.5086                 1.8889                 2.0032
 Frc consts  --      0.0732                 0.1135                 0.1357
 IR Inten    --      0.9050                33.8326                33.8175

                     19                     20                     21
                      A                      A                      A
 Frequencies --    349.8005               375.6496               403.1458
 Red. masses --      2.9017                 2.3987                 2.7124
 Frc consts  --      0.2092                 0.1994                 0.2597
 IR Inten    --      6.5502                 2.3181                 0.2703

                     22                     23                     24
                      A                      A                      A
 Frequencies --    425.8069               453.9667               483.5537
 Red. masses --      3.1799                 3.4027                 2.6365
 Frc consts  --      0.3397                 0.4132                 0.3632
 IR Inten    --      0.3931                 0.1216                 1.0067

                     25                     26                     27
                      A                      A                      A
 Frequencies --    492.7269               509.2713               545.9224
 Red. masses --      2.7794                 2.8850                 2.5202
 Frc consts  --      0.3976                 0.4409                 0.4425
 IR Inten    --      5.9909                 5.5797                11.5104

                     28                     29                     30
                      A                      A                      A
 Frequencies --    604.0066               655.0627               720.8081
 Red. masses --      4.0348                 6.8350                 3.4562
 Frc consts  --      0.8673                 1.7281                 1.0580
 IR Inten    --      3.4819                 1.5964                 2.6509

                     31                     32                     33
                      A                      A                      A
 Frequencies --    752.1821               783.4956               796.4772
 Red. masses --      1.3391                 2.4812                 1.7369
 Frc consts  --      0.4464                 0.8974                 0.6492
 IR Inten    --     18.0585                11.0528                60.0426

                     34                     35                     36
                      A                      A                      A
 Frequencies --    825.7609               835.7672               844.0696
 Red. masses --      1.4082                 2.1628                 1.7244
 Frc consts  --      0.5658                 0.8901                 0.7238
 IR Inten    --      3.7239                 5.4817                23.4964

                     37                     38                     39
                      A                      A                      A
 Frequencies --    855.1863               884.0650               900.2623
 Red. masses --      2.3964                 1.6533                 1.7370
 Frc consts  --      1.0326                 0.7613                 0.8294
 IR Inten    --     16.1451                26.7851                24.2441

                     40                     41                     42
                      A                      A                      A
 Frequencies --    902.1330               941.8016               952.5236
 Red. masses --      1.3506                 1.7497                 1.4061
 Frc consts  --      0.6476                 0.9144                 0.7516
 IR Inten    --     51.5211                 3.1017                 7.0689

                     43                     44                     45
                      A                      A                      A
 Frequencies --    954.6556               955.8137               981.2289
 Red. masses --      1.3533                 1.3102                 1.8577
 Frc consts  --      0.7267                 0.7052                 1.0538
 IR Inten    --     49.2420                 2.1831                 2.9547

                     46                     47                     48
                      A                      A                      A
 Frequencies --   1006.1064              1012.4784              1036.1433
 Red. masses --      1.5176                 1.6406                 2.6377
 Frc consts  --      0.9051                 0.9909                 1.6684
 IR Inten    --      7.2782                15.5525                 0.8298

                     49                     50                     51
                      A                      A                      A
 Frequencies --   1044.5941              1070.2994              1091.0259
 Red. masses --      2.0218                 2.5336                 2.2165
 Frc consts  --      1.2998                 1.7100                 1.5545
 IR Inten    --     45.8932                 6.7617                 8.0643

                     52                     53                     54
                      A                      A                      A
 Frequencies --   1107.5306              1126.2620              1144.6327
 Red. masses --      2.4961                 3.0070                 1.4008
 Frc consts  --      1.8039                 2.2473                 1.0813
 IR Inten    --     32.6506                44.8921                 6.5298

                     55                     56                     57
                      A                      A                      A
 Frequencies --   1154.1185              1165.0475              1171.2754
 Red. masses --      1.8021                 1.6656                 2.0831
 Frc consts  --      1.4143                 1.3320                 1.6837
 IR Inten    --      6.0471                25.0189                 4.1570

                     58                     59                     60
                      A                      A                      A
 Frequencies --   1186.8599              1207.2094              1224.3593
 Red. masses --      1.9421                 1.1584                 1.2672
 Frc consts  --      1.6118                 0.9947                 1.1192
 IR Inten    --     31.2331                34.5524                 9.8949

                     61                     62                     63
                      A                      A                      A
 Frequencies --   1243.9938              1265.0342              1271.6666
 Red. masses --      2.5110                 1.1709                 1.4982
 Frc consts  --      2.2894                 1.1040                 1.4275
 IR Inten    --      2.5720                 3.6398                 6.7131

                     64                     65                     66
                      A                      A                      A
 Frequencies --   1289.7908              1299.7549              1311.4728
 Red. masses --      1.3345                 4.1858                 1.3952
 Frc consts  --      1.3080                 4.1663                 1.4139
 IR Inten    --     21.1988               357.8070                 8.9038

                     67                     68                     69
                      A                      A                      A
 Frequencies --   1338.9732              1345.1334              1350.8265
 Red. masses --      1.1520                 1.3315                 2.6271
 Frc consts  --      1.2169                 1.4194                 2.8244
 IR Inten    --      3.4680                13.8537                43.5054

                     70                     71                     72
                      A                      A                      A
 Frequencies --   1355.5396              1382.4198              1393.5064
 Red. masses --      1.3270                 1.5377                 1.3619
 Frc consts  --      1.4366                 1.7315                 1.5581
 IR Inten    --     10.6620                 9.9226                 5.1853

                     73                     74                     75
                      A                      A                      A
 Frequencies --   1410.5613              1425.4361              1433.8992
 Red. masses --      1.4801                 1.4094                 1.2964
 Frc consts  --      1.7351                 1.6873                 1.5705
 IR Inten    --      4.5742                 7.5186                 9.5600

                     76                     77                     78
                      A                      A                      A
 Frequencies --   1441.6171              1447.0221              1454.3805
 Red. masses --      1.2783                 1.3872                 1.4568
 Frc consts  --      1.5652                 1.7114                 1.8156
 IR Inten    --     18.6950                11.5252                 9.2384

                     79                     80                     81
                      A                      A                      A
 Frequencies --   1472.7972              1502.1851              1505.7762
 Red. masses --      2.7176                 1.2104                 1.0880
 Frc consts  --      3.4732                 1.6093                 1.4535
 IR Inten    --      1.8018                54.3009                 2.4116

                     82                     83                     84
                      A                      A                      A
 Frequencies --   1520.6824              1524.1210              1529.8274
 Red. masses --      1.0668                 1.0663                 1.0616
 Frc consts  --      1.4536                 1.4593                 1.4638
 IR Inten    --      3.1877                 0.6640                 8.0361

                     85                     86                     87
                      A                      A                      A
 Frequencies --   1531.0507              1535.9686              1543.2379
 Red. masses --      1.0560                 1.0877                 1.0958
 Frc consts  --      1.4585                 1.5119                 1.5376
 IR Inten    --      0.4132                29.1916                 9.9280

                     88                     89                     90
                      A                      A                      A
 Frequencies --   1546.3441              1552.5139              1571.4634
 Red. masses --      1.0948                 1.1808                 2.0412
 Frc consts  --      1.5424                 1.6768                 2.9699
 IR Inten    --     13.6168                69.6461                76.4039

                     91                     92                     93
                      A                      A                      A
 Frequencies --   1638.5524              1676.8702              1678.1279
 Red. masses --      6.6405                 1.1530                 4.4694
 Frc consts  --     10.5043                 1.9103                 7.4157
 IR Inten    --     10.7556                50.2378                54.6919

                     94                     95                     96
                      A                      A                      A
 Frequencies --   2916.3711              2961.8160              3017.7782
 Red. masses --      1.0740                 1.0715                 1.0566
 Frc consts  --      5.3821                 5.5380                 5.6694
 IR Inten    --     87.2378                60.8963                20.8859

                     97                     98                     99
                      A                      A                      A
 Frequencies --   3037.1344              3038.5650              3040.3746
 Red. masses --      1.0877                 1.0614                 1.0411
 Frc consts  --      5.9111                 5.7737                 5.6704
 IR Inten    --     21.2704                18.9826                18.6839

                    100                    101                    102
                      A                      A                      A
 Frequencies --   3044.8660              3051.0277              3055.3831
 Red. masses --      1.0413                 1.0652                 1.0804
 Frc consts  --      5.6882                 5.8421                 5.9425
 IR Inten    --     27.2136                36.9008                31.0506

                    103                    104                    105
                      A                      A                      A
 Frequencies --   3056.2594              3064.4825              3083.1665
 Red. masses --      1.1045                 1.0877                 1.0997
 Frc consts  --      6.0787                 6.0182                 6.1593
 IR Inten    --     43.5640                45.2092                29.6050

                    106                    107                    108
                      A                      A                      A
 Frequencies --   3092.9705              3106.3580              3112.8648
 Red. masses --      1.0989                 1.0995                 1.1005
 Frc consts  --      6.1939                 6.2512                 6.2827
 IR Inten    --     24.7838                50.2553                52.3578

                    109                    110                    111
                      A                      A                      A
 Frequencies --   3119.2589              3122.1481              3178.4802
 Red. masses --      1.1024                 1.1011                 1.0886
 Frc consts  --      6.3196                 6.3239                 6.4799
 IR Inten    --     61.6564                36.4653                17.7837

                    112                    113                    114
                      A                      A                      A
 Frequencies --   3203.1010              3213.8609              3228.6027
 Red. masses --      1.0883                 1.0929                 1.0919
 Frc consts  --      6.5784                 6.6509                 6.7062
 IR Inten    --     11.4291                 9.0500                12.3982

                    115                    116                    117
                      A                      A                      A
 Frequencies --   3463.7567              3463.8379              3553.0709
 Red. masses --      1.0613                 1.0613                 1.0920
 Frc consts  --      7.5019                 7.5026                 8.1224
 IR Inten    --      6.2342                 7.6663                 1.3129

 - Thermochemistry -
 -------------------
 Temperature   298.150 Kelvin.  Pressure   1.00000 Atm.
 Atom     1 has atomic number  6 and mass  12.00000

 Molecular mass:   236.18886 amu.
 Principal axes and moments of inertia in atomic units:
                           1         2         3
     Eigenvalues --  1398.84303********************
           X            0.99997  -0.00532   0.00489
           Y            0.00528   0.99995   0.00792
           Z           -0.00493  -0.00789   0.99996
 This molecule is an asymmetric top.
 Rotational symmetry number  1.
 Warning -- assumption of classical behavior for rotation
           may cause significant error
 Rotational temperatures (Kelvin)      0.06192     0.00657     0.00622
 Rotational constants (GHZ):           1.29017     0.13691     0.12961
 Zero-point vibrational energy     967839.9 (Joules/Mol)
                                  231.31929 (Kcal/Mol)
 Warning -- explicit consideration of  28 degrees of freedom as
           vibrations may cause significant error
 Vibrational temperatures:     21.63    32.67    42.99    65.38    74.90
          (Kelvin)            115.63   144.05   175.31   225.63   248.69
                              261.43   301.63   314.86   352.79   378.51
                              412.96   459.51   487.81   503.28   540.48
                              580.04   612.64   653.16   695.73   708.92
                              732.73   785.46   869.03   942.49  1037.08
                             1082.22  1127.28  1145.95  1188.09  1202.48
                             1214.43  1230.42  1271.97  1295.28  1297.97
                             1355.04  1370.47  1373.54  1375.20  1411.77
                             1447.56  1456.73  1490.78  1502.94  1539.92
                             1569.74  1593.49  1620.44  1646.87  1660.52
                             1676.24  1685.20  1707.63  1736.91  1761.58
                             1789.83  1820.10  1829.64  1855.72  1870.06
                             1886.92  1926.48  1935.35  1943.54  1950.32
                             1988.99  2004.94  2029.48  2050.88  2063.06
                             2074.17  2081.94  2092.53  2119.03  2161.31
                             2166.48  2187.92  2192.87  2201.08  2202.84
                             2209.92  2220.38  2224.84  2233.72  2260.99
                             2357.51  2412.64  2414.45  4196.01  4261.39
                             4341.91  4369.76  4371.82  4374.42  4380.88
                             4389.75  4396.01  4397.28  4409.11  4435.99
                             4450.09  4469.36  4478.72  4487.92  4492.07
                             4573.12  4608.55  4624.03  4645.24  4983.57
                             4983.69  5112.08

 Zero-point correction=                           0.368631 (Hartree/Particle)
 Thermal correction to Energy=                    0.387406
 Thermal correction to Enthalpy=                  0.388350
 Thermal correction to Gibbs Free Energy=         0.318596
 Sum of electronic and zero-point Energies=           -732.358065
 Sum of electronic and thermal Energies=              -732.339290
 Sum of electronic and thermal Enthalpies=            -732.338346
 Sum of electronic and thermal Free Energies=         -732.408100

                     E (Thermal)             CV                S
                      KCal/Mol        Cal/Mol-Kelvin    Cal/Mol-Kelvin
 Total                  243.101             69.742            146.810
 Electronic               0.000              0.000              0.000
 Translational            0.889              2.981             42.280
 Rotational               0.889              2.981             33.906
 Vibrational            241.324             63.781             70.624
 Vibration     1          0.593              1.986              7.201
 Vibration     2          0.593              1.985              6.382
 Vibration     3          0.594              1.984              5.838
 Vibration     4          0.595              1.979              5.006
 Vibration     5          0.596              1.977              4.738
 Vibration     6          0.600              1.962              3.882
 Vibration     7          0.604              1.949              3.452
 Vibration     8          0.609              1.931              3.071
 Vibration     9          0.620              1.895              2.588
 Vibration    10          0.626              1.876              2.404
 Vibration    11          0.630              1.865              2.311
 Vibration    12          0.642              1.826              2.047
 Vibration    13          0.647              1.812              1.969
 Vibration    14          0.660              1.771              1.765
 Vibration    15          0.670              1.741              1.641
 Vibration    16          0.684              1.698              1.491
 Vibration    17          0.705              1.637              1.313
 Vibration    18          0.719              1.597              1.217
 Vibration    19          0.727              1.576              1.167
 Vibration    20          0.746              1.522              1.057
 Vibration    21          0.769              1.463              0.951
 Vibration    22          0.788              1.414              0.872
 Vibration    23          0.812              1.352              0.784
 Vibration    24          0.840              1.287              0.701
 Vibration    25          0.848              1.266              0.677
 Vibration    26          0.864              1.229              0.635
 Vibration    27          0.901              1.149              0.553
 Vibration    28          0.962              1.023              0.443

                           ! Non-Optimized Parameters !
 Normal termination of Gaussian 16 at Fri Dec 11 13:51:53 2020.

 ----------------------------------------------------------------------
 # B3LYP/6-311++G(d,p) empiricaldispersion=gd3bj scf=xqc pop=npa geom=c
 heck
 ----------------------------------------------------------------------

 ---------------------------------------
 CID_104394608_JID_7842_Energie_neutraal
 ---------------------------------------
 Structure from the checkpoint file:  "JID_7842.chk"
 Charge =  0 Multiplicity = 1

 SCF Done:  E(RB3LYP) =  -732.939110476     A.U. after   14 cycles
 Normal termination of Gaussian 16 at Fri Dec 11 13:59:22 2020.

 ----------------------------------------------------------------------
 # B3LYP/6-311++G(d,p) empiricaldispersion=gd3bj scf=xqc pop=npa geom=c
 heck
 ----------------------------------------------------------------------

 -------------------------------------
 CID_104394608_JID_7842_Energie_kation
 -------------------------------------
 Structure from the checkpoint file:  "JID_7842.chk"
 Charge =  1 Multiplicity = 2

 SCF Done:  E(UB3LYP) =  -732.661978543     A.U. after   24 cycles
 Normal termination of Gaussian 16 at Fri Dec 11 14:17:48 2020.
 Gaussian 16:  ES64L-G16RevA.03 25-Dec-2016

 ----------------------------------------------------------------------
 # B3LYP/6-311++G(d,p) empiricaldispersion=gd3bj scf=xqc pop=npa geom=c
 heck
 ----------------------------------------------------------------------

 ------------------------------------
 CID_104394608_JID_7842_Energie_anion
 ------------------------------------
 Structure from the checkpoint file:  "JID_7842.chk"
 Charge = -1 Multiplicity = 2

                         Standard orientation:
 ---------------------------------------------------------------------
 Center     Atomic      Atomic             Coordinates (Angstroms)
 Number     Number       Type             X           Y           Z
 ---------------------------------------------------------------------
      1          6           0        5.919619   -0.292494    1.495170
      2          6           0        5.928743    0.171690    0.035866
      3          6           0        5.203413   -0.779171   -0.927215
      4          6           0        3.730293   -0.986933   -0.605040
      5          8           0        3.095568    0.288740   -0.628964
      6          6           0        1.771789    0.364466   -0.306962
      7          6           0        0.964524   -0.737745    0.001323
      8          6           0       -0.380328   -0.540415    0.315719
      9          6           0       -0.947617    0.736371    0.330361
     10          6           0       -0.126947    1.824978    0.010700
     11          6           0        1.216161    1.649688   -0.301348
     12          6           0       -2.403648    0.932134    0.686693
     13          7           0       -3.258635    0.014749   -0.067515
     14          6           0       -4.697624    0.118465    0.215989
     15          6           0       -5.354886    1.390574   -0.335529
     16          6           0       -5.380572   -1.143925   -0.319610
     17          7           0       -4.844977   -2.319246    0.364029
     18          1           0        4.904915   -0.304426    1.908131
     19          1           0        6.518485    0.376728    2.122440
     20          1           0        6.334641   -1.303476    1.595268
     21          1           0        5.468616    1.163493   -0.035316
     22          1           0        6.965996    0.281626   -0.305366
     23          1           0        5.285349   -0.395308   -1.951490
     24          1           0        5.687173   -1.765745   -0.916366
     25          1           0        3.262757   -1.651898   -1.345142
     26          1           0        3.602862   -1.445788    0.384817
     27          1           0        1.369571   -1.742716   -0.002169
     28          1           0       -1.008073   -1.396069    0.545259
     29          1           0       -0.547346    2.828059    0.006795
     30          1           0        1.854415    2.491706   -0.549391
     31          1           0       -2.567351    0.715203    1.751572
     32          1           0       -2.663190    1.996366    0.546539
     33          1           0       -3.098784    0.158943   -1.065129
     34          1           0       -4.797402    0.101204    1.308843
     35          1           0       -5.298711    1.410863   -1.431837
     36          1           0       -6.412751    1.442982   -0.053434
     37          1           0       -4.864214    2.293118    0.043035
     38          1           0       -6.459053   -1.077595   -0.128448
     39          1           0       -5.255163   -1.158680   -1.421235
     40          1           0       -5.149699   -3.169113   -0.106326
     41          1           0       -3.829821   -2.274023    0.278377
 ---------------------------------------------------------------------

 SCF Done:  E(UB3LYP) =  -732.926097121     A.U. after   33 cycles
 SCF Done:  E(UB3LYP) =  -732.926097121     a.u. after    1 cycles

 The electronic state is 2-A.
 Alpha  occ. eigenvalues --  -19.06451 -14.21357 -14.20031 -10.14768 -10.13650
 Alpha  occ. eigenvalues --  -10.11319 -10.11230 -10.10235 -10.09001 -10.08845
 Alpha  occ. eigenvalues --  -10.08643 -10.08588 -10.08442 -10.08295 -10.07886
 Alpha  occ. eigenvalues --  -10.07545 -10.07188  -0.98172  -0.83276  -0.78773
 Alpha  occ. eigenvalues --   -0.76827  -0.71762  -0.68669  -0.66512  -0.65830
 Alpha  occ. eigenvalues --   -0.63280  -0.58722  -0.57269  -0.55971  -0.52752
 Alpha  occ. eigenvalues --   -0.50375  -0.50116  -0.47879  -0.45249  -0.41262
 Alpha  occ. eigenvalues --   -0.40576  -0.40035  -0.39313  -0.38568  -0.36865
 Alpha  occ. eigenvalues --   -0.36553  -0.35726  -0.34447  -0.34077  -0.33644
 Alpha  occ. eigenvalues --   -0.33241  -0.31927  -0.31860  -0.30444  -0.29691
 Alpha  occ. eigenvalues --   -0.29540  -0.28897  -0.27985  -0.27648  -0.26044
 Alpha  occ. eigenvalues --   -0.25768  -0.25219  -0.24683  -0.24599  -0.23458
 Alpha  occ. eigenvalues --   -0.22712  -0.17199  -0.15987  -0.14538  -0.13379
 Alpha  occ. eigenvalues --    0.03854
 Alpha virt. eigenvalues --    0.04992   0.05976   0.06645   0.06805   0.07031
 Alpha virt. eigenvalues --    0.07142   0.07497   0.08334   0.08387   0.08649
 Alpha virt. eigenvalues --    0.09461   0.09717   0.10097   0.10331   0.10638

  Beta  occ. eigenvalues --  -19.06447 -14.21346 -14.20016 -10.14768 -10.13633
  Beta  occ. eigenvalues --  -10.11314 -10.11221 -10.10214 -10.08994 -10.08847
  Beta  occ. eigenvalues --  -10.08630 -10.08573 -10.08433 -10.08275 -10.07874
  Beta  occ. eigenvalues --  -10.07515 -10.07161  -0.98163  -0.83258  -0.78748
  Beta  occ. eigenvalues --   -0.76811  -0.71733  -0.68645  -0.66486  -0.65802
  Beta  occ. eigenvalues --   -0.63245  -0.58677  -0.57219  -0.55926  -0.52715
  Beta  occ. eigenvalues --   -0.50341  -0.50072  -0.47834  -0.45217  -0.41241
  Beta  occ. eigenvalues --   -0.40552  -0.40005  -0.39283  -0.38533  -0.36840
  Beta  occ. eigenvalues --   -0.36527  -0.35697  -0.34425  -0.34049  -0.33623
  Beta  occ. eigenvalues --   -0.33206  -0.31896  -0.31826  -0.30407  -0.29661
  Beta  occ. eigenvalues --   -0.29505  -0.28870  -0.27952  -0.27615  -0.26014
  Beta  occ. eigenvalues --   -0.25738  -0.25189  -0.24657  -0.24569  -0.23425
  Beta  occ. eigenvalues --   -0.22688  -0.17156  -0.15964  -0.14521  -0.13354
  Beta virt. eigenvalues --    0.05638   0.05953   0.06424   0.06864   0.07205
  Beta virt. eigenvalues --    0.07289   0.07393   0.07691   0.08490   0.08756
  Beta virt. eigenvalues --    0.08953   0.09651   0.09955   0.10342   0.10448

 Mulliken charges and spin densities:
               1          2
     1  C    0.597544  -1.140728
     2  C   -0.728906   0.573860
     3  C    0.293454  -0.774114
     4  C    0.125765  -0.297734
     5  O   -0.062634   0.023225
     6  C   -0.353379  -0.212073
     7  C    0.216088  -0.076616
     8  C   -0.220544   0.030574
     9  C    1.887249  -0.397860
    10  C   -0.828532   0.388579
    11  C   -0.611308   0.328394
    12  C   -0.271223  -0.930473
    13  N    0.042485  -0.005575
    14  C   -0.941427   0.880294
    15  C    0.781602  -1.295347
    16  C    0.511209  -1.044343
    17  N   -0.415861   0.072482
    18  H    0.058637   0.082944
    19  H   -0.168641   0.301669
    20  H   -0.163411   0.299634
    21  H    0.132320   0.001050
    22  H   -0.223048   0.379296
    23  H    0.007837   0.151474
    24  H   -0.364054   0.523302
    25  H   -0.149248   0.316847
    26  H    0.199436  -0.044364
    27  H   -0.349638   0.555056
    28  H    0.091775   0.065690
    29  H   -0.247641   0.385044
    30  H    0.077391   0.089465
    31  H    0.065303   0.074191
    32  H    0.242744  -0.073531
    33  H    0.230310  -0.040628
    34  H    0.144686   0.028262
    35  H   -0.146408   0.288602
    36  H   -0.118232   0.251391
    37  H   -0.226811   0.365773
    38  H   -0.112695   0.275509
    39  H   -0.218166   0.334457
    40  H    0.057317   0.167785
    41  H    0.158654   0.098535
 Sum of Mulliken charges =  -1.00000   1.00000

 Dipole moment (field-independent basis, Debye):
    X=             -1.1742    Y=              2.4465    Z=              0.5433  Tot=              2.7676
 Quadrupole moment (field-independent basis, Debye-Ang):
   XX=           -268.4086   YY=           -147.7877   ZZ=           -139.7830
   XY=              8.8161   XZ=             -5.5212   YZ=              1.0604

 Summary of Natural Population Analysis:

                                       Natural Population
                Natural  -----------------------------------------------
    Atom  No    Charge         Core      Valence    Rydberg      Total
 -----------------------------------------------------------------------
      C    1   -0.28892      0.99967     2.28415    0.00510     3.28892
      C    2   -0.19314      0.99964     2.18468    0.00882     3.19314
      C    3   -0.19601      0.99962     2.18698    0.00942     3.19601
      C    4   -0.01288      0.99956     2.00076    0.01256     3.01288
      O    5   -0.27957      0.99985     3.27023    0.00949     4.27957
      C    6    0.16298      0.99939     1.82574    0.01189     2.83702
      C    7   -0.14132      0.99952     2.13345    0.00835     3.14132
      C    8   -0.08230      0.99952     2.07416    0.00862     3.08230
      C    9   -0.03982      0.99950     2.03078    0.00953     3.03982
      C   10   -0.09228      0.99952     2.08411    0.00865     3.09228
      C   11   -0.11968      0.99953     2.11084    0.00931     3.11968
      C   12   -0.08780      0.99959     2.07880    0.00940     3.08780
      N   13   -0.34445      0.99974     2.83398    0.01073     3.84445
      C   14   -0.01521      0.99961     2.00379    0.01182     3.01521
      C   15   -0.29510      0.99965     2.29005    0.00541     3.29510
      C   16   -0.08777      0.99961     2.07664    0.01152     3.08777
      N   17   -0.42587      0.99977     2.91575    0.01035     3.92587
      H   18    0.09688      0.00000     0.40211    0.00101     0.40312
      H   19    0.09908      0.00000     0.40007    0.00085     0.40092
      H   20    0.09674      0.00000     0.40211    0.00115     0.40326
      H   21    0.09895      0.00000     0.39964    0.00140     0.40105
      H   22    0.09571      0.00000     0.40318    0.00110     0.40429
      H   23    0.09953      0.00000     0.39929    0.00118     0.40047
      H   24    0.10064      0.00000     0.39788    0.00148     0.39936
      H   25    0.08809      0.00000     0.41037    0.00155     0.41191
      H   26    0.08441      0.00000     0.41390    0.00169     0.41559
      H   27    0.10660      0.00000     0.39211    0.00129     0.39340
      H   28    0.10577      0.00000     0.39286    0.00138     0.39423
      H   29    0.09987      0.00000     0.39906    0.00107     0.40013
      H   30    0.10461      0.00000     0.39400    0.00139     0.39539
      H   31    0.09492      0.00000     0.40371    0.00137     0.40508
      H   32    0.08130      0.00000     0.41614    0.00256     0.41870
      H   33    0.17275      0.00000     0.32483    0.00242     0.32725
      H   34    0.09263      0.00000     0.40543    0.00194     0.40737
      H   35    0.09806      0.00000     0.40059    0.00135     0.40194
      H   36    0.10109      0.00000     0.39787    0.00104     0.39891
      H   37    0.10035      0.00000     0.39867    0.00099     0.39965
      H   38    0.09048      0.00000     0.40835    0.00117     0.40952
      H   39    0.07712      0.00000     0.42103    0.00185     0.42288
      H   40    0.17236      0.00000     0.32618    0.00147     0.32764
      H   41    0.18119      0.00000     0.31624    0.00257     0.31881
 =======================================================================
   * Total *   -0.00000     16.99329    47.81050    0.19622    65.00000

 Normal termination of Gaussian 16 at Fri Dec 11 14:43:09 2020.
