 Gaussian 16, Revision A.03,

 -----------------------------------------------------------
 # opt freq B3LYP/6-31G(d) empiricaldispersion=gd3bj scf=xqc
 -----------------------------------------------------------

 ------------------------------
 CID_55032221_JID_7472_neutraal
 ------------------------------
 Symbolic Z-matrix:
 Charge =  0 Multiplicity = 1

 SCF Done:  E(RB3LYP) =  -856.503368731     A.U. after   15 cycles
 SCF Done:  E(RB3LYP) =  -856.508489138     A.U. after   13 cycles
 SCF Done:  E(RB3LYP) =  -856.507572299     A.U. after   14 cycles
 SCF Done:  E(RB3LYP) =  -856.510387339     A.U. after   12 cycles
 SCF Done:  E(RB3LYP) =  -856.511314541     A.U. after   13 cycles
 SCF Done:  E(RB3LYP) =  -856.512156789     A.U. after   12 cycles
 SCF Done:  E(RB3LYP) =  -856.512625882     A.U. after   12 cycles
 SCF Done:  E(RB3LYP) =  -856.512975399     A.U. after   12 cycles
 SCF Done:  E(RB3LYP) =  -856.513163150     A.U. after   11 cycles
 SCF Done:  E(RB3LYP) =  -856.513243154     A.U. after   11 cycles
 SCF Done:  E(RB3LYP) =  -856.513373086     A.U. after   11 cycles
 SCF Done:  E(RB3LYP) =  -856.513403917     A.U. after   11 cycles
 SCF Done:  E(RB3LYP) =  -856.513409765     A.U. after   10 cycles
 SCF Done:  E(RB3LYP) =  -856.513411589     A.U. after    9 cycles
 SCF Done:  E(RB3LYP) =  -856.513412093     A.U. after    8 cycles
 SCF Done:  E(RB3LYP) =  -856.513412140     A.U. after    7 cycles
 Optimization completed.
    -- Stationary point found.
 Normal termination of Gaussian 16 at Fri Dec 11 12:10:58 2020.

 --------------------------------------------------------------------
 #N Geom=AllCheck Guess=TCheck SCRF=Check GenChk RB3LYP/6-31G(d) Freq
 --------------------------------------------------------------------

 Structure from the checkpoint file:  "JID_7472.chk"
 ------------------------------
 CID_55032221_JID_7472_neutraal
 ------------------------------
 Charge =  0 Multiplicity = 1

 SCF Done:  E(RB3LYP) =  -856.513412140     A.U. after    1 cycles

  Exact polarizability: 154.618  -0.570 132.283  -3.221  -2.036 105.187
 Approx polarizability: 195.304  -4.596 200.608  -9.916   1.227 166.187

                      1                      2                      3
                      A                      A                      A
 Frequencies --     33.0823                48.2677                58.3570
 Red. masses --      5.2090                 6.8042                 6.7945
 Frc consts  --      0.0034                 0.0093                 0.0136
 IR Inten    --      0.4748                 0.4438                 1.7610

                      4                      5                      6
                      A                      A                      A
 Frequencies --     66.3434                71.4330                87.9635
 Red. masses --      9.2459                 4.6651                 3.2109
 Frc consts  --      0.0240                 0.0140                 0.0146
 IR Inten    --      4.4951                 1.4473                 1.4409

                      7                      8                      9
                      A                      A                      A
 Frequencies --    159.6640               173.9388               203.5004
 Red. masses --      3.4908                 4.5161                 4.1754
 Frc consts  --      0.0524                 0.0805                 0.1019
 IR Inten    --      1.5027                 0.1606                 0.0431

                     10                     11                     12
                      A                      A                      A
 Frequencies --    251.3629               264.9877               286.3204
 Red. masses --      3.1540                 2.6023                 2.1680
 Frc consts  --      0.1174                 0.1077                 0.1047
 IR Inten    --      6.0066                 1.5525                 1.7899

                     13                     14                     15
                      A                      A                      A
 Frequencies --    302.9505               324.4686               355.6352
 Red. masses --      2.9201                 1.7240                 2.7864
 Frc consts  --      0.1579                 0.1069                 0.2076
 IR Inten    --     16.5846                53.3137                36.9820

                     16                     17                     18
                      A                      A                      A
 Frequencies --    386.7435               408.2996               427.0587
 Red. masses --      4.8797                 5.4854                 1.9244
 Frc consts  --      0.4300                 0.5388                 0.2068
 IR Inten    --     29.8930                 2.7191                18.8027

                     19                     20                     21
                      A                      A                      A
 Frequencies --    458.7559               478.1482               488.3317
 Red. masses --      3.0716                 2.3437                 2.6844
 Frc consts  --      0.3809                 0.3157                 0.3772
 IR Inten    --      1.9781                 4.8662                 1.2385

                     22                     23                     24
                      A                      A                      A
 Frequencies --    529.8508               578.3144               617.1102
 Red. masses --      3.7288                 2.0125                 3.1470
 Frc consts  --      0.6168                 0.3966                 0.7061
 IR Inten    --      0.1061                 0.6449                68.8197

                     25                     26                     27
                      A                      A                      A
 Frequencies --    630.7804               645.1043               685.5388
 Red. masses --      2.0984                 2.2009                 3.1734
 Frc consts  --      0.4919                 0.5397                 0.8787
 IR Inten    --     61.1634                41.5141                 9.6144

                     28                     29                     30
                      A                      A                      A
 Frequencies --    760.8265               777.2487               793.9578
 Red. masses --      3.2374                 7.3203                 4.2016
 Frc consts  --      1.1041                 2.6056                 1.5605
 IR Inten    --      7.1405                36.4073                36.8928

                     31                     32                     33
                      A                      A                      A
 Frequencies --    811.1230               851.7591               856.5146
 Red. masses --      2.2105                 1.6367                 2.9991
 Frc consts  --      0.8569                 0.6996                 1.2963
 IR Inten    --    135.6266                 2.1858                13.4135

                     34                     35                     36
                      A                      A                      A
 Frequencies --    889.3418               892.3793               920.9390
 Red. masses --      2.6550                 1.9987                 2.2105
 Frc consts  --      1.2372                 0.9378                 1.1046
 IR Inten    --      3.9398                20.8287                 3.7021

                     37                     38                     39
                      A                      A                      A
 Frequencies --    926.7928               955.1345               990.4915
 Red. masses --      2.0049                 2.7095                 2.3348
 Frc consts  --      1.0147                 1.4564                 1.3496
 IR Inten    --      9.3781                10.7850                10.2466

                     40                     41                     42
                      A                      A                      A
 Frequencies --   1023.1319              1042.6876              1044.7120
 Red. masses --      2.3617                 1.7112                 2.0859
 Frc consts  --      1.4566                 1.0961                 1.3413
 IR Inten    --      4.7990                 5.5578                12.8143

                     43                     44                     45
                      A                      A                      A
 Frequencies --   1056.2574              1098.8791              1111.2974
 Red. masses --      2.3473                 3.4426                 2.2525
 Frc consts  --      1.5430                 2.4492                 1.6390
 IR Inten    --     62.8303                40.9414                25.7901

                     46                     47                     48
                      A                      A                      A
 Frequencies --   1134.0750              1150.6244              1164.0464
 Red. masses --      2.4288                 3.8679                 2.3040
 Frc consts  --      1.8405                 3.0171                 1.8394
 IR Inten    --    117.3274                38.2256                53.5895

                     49                     50                     51
                      A                      A                      A
 Frequencies --   1180.0558              1192.3355              1216.5583
 Red. masses --      2.3048                 2.2777                 1.2808
 Frc consts  --      1.8910                 1.9078                 1.1168
 IR Inten    --     54.4904                51.3985                 7.8491

                     52                     53                     54
                      A                      A                      A
 Frequencies --   1219.5364              1225.1790              1242.2901
 Red. masses --      2.0367                 1.9297                 1.5072
 Frc consts  --      1.7847                 1.7067                 1.3704
 IR Inten    --     49.1907                75.2196                77.5117

                     55                     56                     57
                      A                      A                      A
 Frequencies --   1291.1971              1298.6219              1306.6270
 Red. masses --      1.3969                 1.5131                 1.3874
 Frc consts  --      1.3722                 1.5034                 1.3956
 IR Inten    --     66.1981                33.5938                33.0729

                     58                     59                     60
                      A                      A                      A
 Frequencies --   1316.4407              1348.7082              1358.5656
 Red. masses --      1.5200                 1.4213                 1.3039
 Frc consts  --      1.5520                 1.5233                 1.4180
 IR Inten    --    117.5574                10.0411                 5.2954

                     61                     62                     63
                      A                      A                      A
 Frequencies --   1362.3050              1363.3190              1381.3258
 Red. masses --      1.3605                 1.2685                 1.6715
 Frc consts  --      1.4877                 1.3891                 1.8791
 IR Inten    --     11.5873                 3.8431                15.1152

                     64                     65                     66
                      A                      A                      A
 Frequencies --   1388.5820              1394.4159              1396.3047
 Red. masses --      1.8968                 1.3182                 1.4331
 Frc consts  --      2.1548                 1.5101                 1.6462
 IR Inten    --     13.6672                 9.6332                82.8936

                     67                     68                     69
                      A                      A                      A
 Frequencies --   1414.3643              1422.3560              1444.4809
 Red. masses --      1.4094                 1.4370                 2.8987
 Frc consts  --      1.6612                 1.7129                 3.5635
 IR Inten    --      9.7063                17.2734               317.9032

                     70                     71                     72
                      A                      A                      A
 Frequencies --   1452.5359              1499.1885              1508.0310
 Red. masses --      1.2811                 1.0798                 1.1637
 Frc consts  --      1.5925                 1.4299                 1.5592
 IR Inten    --     67.8352                 0.9576                12.3165

                     73                     74                     75
                      A                      A                      A
 Frequencies --   1510.1041              1511.0488              1523.3155
 Red. masses --      1.0929                 1.1018                 1.1096
 Frc consts  --      1.4684                 1.4822                 1.5171
 IR Inten    --     15.5270                 5.3893                 1.8168

                     76                     77                     78
                      A                      A                      A
 Frequencies --   1525.1810              1538.9499              1760.8165
 Red. masses --      1.1040                 1.1029                11.2000
 Frc consts  --      1.5131                 1.5389                20.4596
 IR Inten    --      7.1207                10.7822               298.0736

                     79                     80                     81
                      A                      A                      A
 Frequencies --   1842.4724              2970.2160              2991.0857
 Red. masses --      9.6044                 1.0756                 1.0735
 Frc consts  --     19.2099                 5.5906                 5.6589
 IR Inten    --    255.4986                49.1318                68.8437

                     82                     83                     84
                      A                      A                      A
 Frequencies --   3027.0530              3049.1198              3060.3240
 Red. masses --      1.0730                 1.0620                 1.0690
 Frc consts  --      5.7928                 5.8175                 5.8989
 IR Inten    --     45.3848                39.7481                20.3757

                     85                     86                     87
                      A                      A                      A
 Frequencies --   3063.8392              3099.4099              3101.7547
 Red. masses --      1.0601                 1.0857                 1.1038
 Frc consts  --      5.8634                 6.1452                 6.2566
 IR Inten    --     26.9367                20.9305                42.1168

                     88                     89                     90
                      A                      A                      A
 Frequencies --   3109.7559              3130.4043              3144.6679
 Red. masses --      1.1068                 1.0891                 1.0953
 Frc consts  --      6.3065                 6.2883                 6.3816
 IR Inten    --     33.3270                 1.4305                17.1055

                     91                     92                     93
                      A                      A                      A
 Frequencies --   3145.6930              3175.5866              3190.4877
 Red. masses --      1.0904                 1.0863                 1.0925
 Frc consts  --      6.3572                 6.4544                 6.5522
 IR Inten    --     10.4388                17.5446                 1.8032

                     94                     95                     96
                      A                      A                      A
 Frequencies --   3464.6637              3683.9003              3717.5195
 Red. masses --      1.0736                 1.0641                 1.0656
 Frc consts  --      7.5929                 8.5087                 8.6770
 IR Inten    --      2.6974                59.8181                 8.7365

 - Thermochemistry -
 -------------------
 Temperature   298.150 Kelvin.  Pressure   1.00000 Atm.
 Atom     1 has atomic number  6 and mass  12.00000

 Molecular mass:   243.12191 amu.
 Principal axes and moments of inertia in atomic units:
                           1         2         3
     Eigenvalues --  2411.542455260.597296778.30508
           X            0.99998   0.00548  -0.00064
           Y           -0.00549   0.99990  -0.01299
           Z            0.00057   0.01299   0.99992
 This molecule is an asymmetric top.
 Rotational symmetry number  1.
 Warning -- assumption of classical behavior for rotation
           may cause significant error
 Rotational temperatures (Kelvin)      0.03592     0.01646     0.01278
 Rotational constants (GHZ):           0.74838     0.34307     0.26625
 Zero-point vibrational energy     758643.1 (Joules/Mol)
                                  181.32006 (Kcal/Mol)
 Warning -- explicit consideration of  24 degrees of freedom as
           vibrations may cause significant error
 Vibrational temperatures:     47.60    69.45    83.96    95.45   102.78
          (Kelvin)            126.56   229.72   250.26   292.79   361.66
                              381.26   411.95   435.88   466.84   511.68
                              556.44   587.45   614.44   660.05   687.95
                              702.60   762.34   832.07   887.88   907.55
                              928.16   986.34  1094.66  1118.29  1142.33
                             1167.03  1225.49  1232.33  1279.56  1283.93
                             1325.03  1333.45  1374.23  1425.10  1472.06
                             1500.19  1503.11  1519.72  1581.04  1598.91
                             1631.68  1655.49  1674.80  1697.84  1715.50
                             1750.36  1754.64  1762.76  1787.38  1857.74
                             1868.43  1879.94  1894.06  1940.49  1954.67
                             1960.05  1961.51  1987.42  1997.86  2006.25
                             2008.97  2034.95  2046.45  2078.29  2089.88
                             2157.00  2169.72  2172.70  2174.06  2191.71
                             2194.40  2214.21  2533.42  2650.91  4273.48
                             4303.51  4355.25  4387.00  4403.12  4408.18
                             4459.36  4462.73  4474.25  4503.95  4524.48
                             4525.95  4568.96  4590.40  4984.88  5300.31
                             5348.68

 Zero-point correction=                           0.288952 (Hartree/Particle)
 Thermal correction to Energy=                    0.304814
 Thermal correction to Enthalpy=                  0.305758
 Thermal correction to Gibbs Free Energy=         0.244555
 Sum of electronic and zero-point Energies=           -856.224460
 Sum of electronic and thermal Energies=              -856.208598
 Sum of electronic and thermal Enthalpies=            -856.207654
 Sum of electronic and thermal Free Energies=         -856.268858

                     E (Thermal)             CV                S
                      KCal/Mol        Cal/Mol-Kelvin    Cal/Mol-Kelvin
 Total                  191.274             60.585            128.814
 Electronic               0.000              0.000              0.000
 Translational            0.889              2.981             42.366
 Rotational               0.889              2.981             32.819
 Vibrational            189.496             54.624             53.628
 Vibration     1          0.594              1.983              5.635
 Vibration     2          0.595              1.978              4.887
 Vibration     3          0.596              1.974              4.512
 Vibration     4          0.598              1.970              4.259
 Vibration     5          0.598              1.968              4.113
 Vibration     6          0.601              1.958              3.705
 Vibration     7          0.622              1.892              2.554
 Vibration     8          0.627              1.875              2.392
 Vibration     9          0.639              1.835              2.101
 Vibration    10          0.663              1.760              1.721
 Vibration    11          0.671              1.737              1.629
 Vibration    12          0.684              1.699              1.496
 Vibration    13          0.694              1.668              1.401
 Vibration    14          0.709              1.627              1.287
 Vibration    15          0.731              1.564              1.141
 Vibration    16          0.755              1.498              1.013
 Vibration    17          0.773              1.452              0.933
 Vibration    18          0.789              1.411              0.868
 Vibration    19          0.817              1.342              0.770
 Vibration    20          0.835              1.299              0.715
 Vibration    21          0.844              1.276              0.688
 Vibration    22          0.885              1.184              0.588
 Vibration    23          0.935              1.078              0.488
 Vibration    24          0.977              0.996              0.421

 Optimization completed.
    -- Stationary point found.
 Normal termination of Gaussian 16 at Fri Dec 11 12:24:49 2020.

 ----------------------------------------------------------------------
 # B3LYP/6-311++G(d,p) empiricaldispersion=gd3bj scf=xqc pop=npa geom=c
 heck
 ----------------------------------------------------------------------

 --------------------------------------
 CID_55032221_JID_7472_Energie_neutraal
 --------------------------------------
 Structure from the checkpoint file:  "JID_7472.chk"
 Charge =  0 Multiplicity = 1

 SCF Done:  E(RB3LYP) =  -856.779207818     A.U. after   15 cycles
 Normal termination of Gaussian 16 at Fri Dec 11 12:31:24 2020.

 ----------------------------------------------------------------------
 # B3LYP/6-311++G(d,p) empiricaldispersion=gd3bj scf=xqc pop=npa geom=c
 heck
 ----------------------------------------------------------------------

 ------------------------------------
 CID_55032221_JID_7472_Energie_kation
 ------------------------------------
 Structure from the checkpoint file:  "JID_7472.chk"
 Charge =  1 Multiplicity = 2

 SCF Done:  E(UB3LYP) =  -856.480198518     A.U. after   27 cycles
 Normal termination of Gaussian 16 at Fri Dec 11 12:49:13 2020.
 Gaussian 16:  ES64L-G16RevA.03 25-Dec-2016

 ----------------------------------------------------------------------
 # B3LYP/6-311++G(d,p) empiricaldispersion=gd3bj scf=xqc pop=npa geom=c
 heck
 ----------------------------------------------------------------------

 -----------------------------------
 CID_55032221_JID_7472_Energie_anion
 -----------------------------------
 Structure from the checkpoint file:  "JID_7472.chk"
 Charge = -1 Multiplicity = 2

                         Standard orientation:
 ---------------------------------------------------------------------
 Center     Atomic      Atomic             Coordinates (Angstroms)
 Number     Number       Type             X           Y           Z
 ---------------------------------------------------------------------
      1          6           0       -2.821818    1.234717   -0.061817
      2          6           0       -1.847284    0.445127   -0.940884
      3          7           0       -1.412701   -0.760286   -0.228352
      4          6           0       -2.529160   -1.632619    0.130751
      5          6           0       -3.510097   -0.833086    0.999630
      6          7           0       -3.955954    0.426382    0.396130
      7          6           0       -0.182223   -1.352648   -0.456339
      8          8           0       -0.030354   -2.565731   -0.545561
      9          7           0        0.886601   -0.444367   -0.531726
     10          6           0        2.210490   -1.006431   -0.796958
     11          6           0        2.928864   -0.912695    0.554982
     12          6           0        2.431794    0.440744    1.100452
     13          6           0        0.998198    0.595508    0.515529
     14          6           0        0.799157    2.016034    0.016498
     15          8           0        0.208592    2.882338    0.622577
     16          8           0        1.407229    2.237016   -1.174973
     17          8           0        4.334111   -1.044245    0.503000
     18          1           0       -2.284805    1.613095    0.815935
     19          1           0       -3.205759    2.101436   -0.610802
     20          1           0       -0.982556    1.036025   -1.237848
     21          1           0       -2.360174    0.141692   -1.870848
     22          1           0       -3.034809   -2.000181   -0.777968
     23          1           0       -2.134215   -2.501337    0.660090
     24          1           0       -3.017612   -0.591295    1.950358
     25          1           0       -4.390804   -1.443035    1.228793
     26          1           0       -4.550917    0.213492   -0.404932
     27          1           0        2.113388   -2.024596   -1.167616
     28          1           0        2.730705   -0.388730   -1.543343
     29          1           0        2.581520   -1.729157    1.195486
     30          1           0        3.090918    1.230819    0.720366
     31          1           0        2.435952    0.499744    2.190746
     32          1           0        0.232507    0.432010    1.274779
     33          1           0        1.256952    3.178217   -1.384314
     34          1           0        4.669946   -0.363242   -0.102652
 ---------------------------------------------------------------------

 SCF Done:  E(UB3LYP) =  -856.773316320     A.U. after   32 cycles

 The electronic state is 2-A.
 Alpha  occ. eigenvalues --  -19.07491 -19.04195 -19.02740 -18.99874 -14.24722
 Alpha  occ. eigenvalues --  -14.24589 -14.21185 -10.21559 -10.20365 -10.14076
 Alpha  occ. eigenvalues --  -10.14070 -10.11259 -10.11144 -10.10934 -10.10656
 Alpha  occ. eigenvalues --  -10.10192 -10.09478  -1.01844  -0.96428  -0.94638
 Alpha  occ. eigenvalues --   -0.93078  -0.86490  -0.85367  -0.80690  -0.70105
 Alpha  occ. eigenvalues --   -0.68097  -0.66757  -0.61979  -0.57422  -0.55938
 Alpha  occ. eigenvalues --   -0.53389  -0.51686  -0.50780  -0.47419  -0.46305
 Alpha  occ. eigenvalues --   -0.42227  -0.40403  -0.39578  -0.39430  -0.38438
 Alpha  occ. eigenvalues --   -0.38305  -0.37922  -0.36727  -0.36186  -0.34417
 Alpha  occ. eigenvalues --   -0.34149  -0.33393  -0.31959  -0.31412  -0.31098
 Alpha  occ. eigenvalues --   -0.30332  -0.29804  -0.28915  -0.27833  -0.27101
 Alpha  occ. eigenvalues --   -0.26445  -0.26067  -0.25121  -0.23549  -0.19981
 Alpha  occ. eigenvalues --   -0.19868  -0.19314  -0.16619  -0.15300  -0.13486
 Alpha  occ. eigenvalues --    0.03853
 Alpha virt. eigenvalues --    0.05649   0.06793   0.07248   0.07789   0.08210
 Alpha virt. eigenvalues --    0.08738   0.09354   0.10232   0.10460   0.10874
 Alpha virt. eigenvalues --    0.11268   0.11641   0.11736   0.12111   0.13284

  Beta  occ. eigenvalues --  -19.07422 -19.04163 -19.02720 -18.99859 -14.24720
  Beta  occ. eigenvalues --  -14.24594 -14.21167 -10.21547 -10.20350 -10.14074
  Beta  occ. eigenvalues --  -10.14060 -10.11236 -10.11133 -10.10924 -10.10640
  Beta  occ. eigenvalues --  -10.10182 -10.09456  -1.01758  -0.96401  -0.94579
  Beta  occ. eigenvalues --   -0.93002  -0.86470  -0.85349  -0.80661  -0.70068
  Beta  occ. eigenvalues --   -0.68069  -0.66719  -0.61942  -0.57365  -0.55893
  Beta  occ. eigenvalues --   -0.53321  -0.51606  -0.50720  -0.47372  -0.46271
  Beta  occ. eigenvalues --   -0.42169  -0.40374  -0.39534  -0.39391  -0.38397
  Beta  occ. eigenvalues --   -0.38264  -0.37880  -0.36700  -0.36156  -0.34388
  Beta  occ. eigenvalues --   -0.34118  -0.33348  -0.31907  -0.31379  -0.31058
  Beta  occ. eigenvalues --   -0.30299  -0.29774  -0.28865  -0.27796  -0.27071
  Beta  occ. eigenvalues --   -0.26415  -0.26040  -0.25081  -0.23490  -0.19934
  Beta  occ. eigenvalues --   -0.19823  -0.19290  -0.16599  -0.15275  -0.13461
  Beta virt. eigenvalues --    0.06119   0.06850   0.07276   0.07977   0.08152
  Beta virt. eigenvalues --    0.08606   0.08976   0.09609   0.10366   0.10666
  Beta virt. eigenvalues --    0.11025   0.11514   0.11815   0.12098   0.12296

 Mulliken charges and spin densities:
               1          2
     1  C    0.374166  -0.979536
     2  C   -0.315904   0.162628
     3  N    0.031286  -0.007040
     4  C    0.008991  -0.048744
     5  C    0.068818  -0.589337
     6  N   -0.200844   0.109094
     7  C   -0.036138   0.011832
     8  O   -0.307293  -0.002549
     9  N    0.299659  -0.056846
    10  C    0.112211  -0.318745
    11  C   -0.196044  -0.286578
    12  C    0.373263  -0.905884
    13  C   -0.996667   0.919468
    14  C    0.712846  -1.194121
    15  O   -0.197416   0.048427
    16  O   -0.120635   0.066367
    17  O   -0.213263   0.015698
    18  H    0.229861  -0.012183
    19  H   -0.098671   0.265553
    20  H    0.069867   0.210244
    21  H   -0.404764   0.604537
    22  H    0.000832   0.166468
    23  H    0.105701   0.063953
    24  H    0.142222   0.008235
    25  H   -0.066400   0.243933
    26  H    0.001186   0.234353
    27  H    0.199999   0.008139
    28  H   -0.137283   0.338700
    29  H    0.185341   0.033377
    30  H   -0.243730   0.469568
    31  H    0.000384   0.129190
    32  H    0.217295   0.127011
    33  H   -0.627615   0.930592
    34  H    0.028744   0.234198
 Sum of Mulliken charges =  -1.00000   1.00000

 Dipole moment (field-independent basis, Debye):
    X=             -1.5433    Y=             -4.1768    Z=              3.6183  Tot=              5.7375
 Quadrupole moment (field-independent basis, Debye-Ang):
   XX=           -178.1068   YY=           -159.6878   ZZ=           -131.9779
   XY=             -2.9448   XZ=              0.7032   YZ=              4.9362

 Summary of Natural Population Analysis:

                                       Natural Population
                Natural  -----------------------------------------------
    Atom  No    Charge         Core      Valence    Rydberg      Total
 -----------------------------------------------------------------------
      C    1   -0.09607      0.99962     2.08452    0.01193     3.09607
      C    2   -0.09352      0.99960     2.08239    0.01153     3.09352
      N    3   -0.27743      0.99964     2.76796    0.00983     3.77743
      C    4   -0.09324      0.99962     2.08275    0.01087     3.09324
      C    5   -0.09366      0.99962     2.08217    0.01187     3.09366
      N    6   -0.33529      0.99976     2.82273    0.01280     3.83529
      C    7    0.42552      0.99963     1.55183    0.02303     2.57448
      O    8   -0.33036      0.99988     3.32597    0.00452     4.33036
      N    9   -0.27072      0.99965     2.76017    0.01090     3.77072
      C   10   -0.09731      0.99960     2.08551    0.01220     3.09731
      C   11    0.06002      0.99954     1.92671    0.01374     2.93998
      C   12   -0.20032      0.99960     2.19172    0.00900     3.20032
      C   13   -0.05165      0.99953     2.03884    0.01328     3.05165
      C   14    0.40286      0.99967     1.57083    0.02664     2.59714
      O   15   -0.30313      0.99987     3.29714    0.00612     4.30313
      O   16   -0.34202      0.99987     3.33473    0.00742     4.34202
      O   17   -0.36519      0.99989     3.35878    0.00651     4.36519
      H   18    0.09809      0.00000     0.40041    0.00150     0.40191
      H   19    0.09949      0.00000     0.39959    0.00091     0.40051
      H   20    0.10892      0.00000     0.38878    0.00230     0.39108
      H   21    0.08850      0.00000     0.40952    0.00197     0.41150
      H   22    0.08860      0.00000     0.40988    0.00152     0.41140
      H   23    0.11025      0.00000     0.38885    0.00089     0.38975
      H   24    0.09040      0.00000     0.40832    0.00128     0.40960
      H   25    0.09603      0.00000     0.40313    0.00084     0.40397
      H   26    0.17058      0.00000     0.32674    0.00268     0.32942
      H   27    0.11648      0.00000     0.38247    0.00105     0.38352
      H   28    0.09743      0.00000     0.40107    0.00149     0.40257
      H   29    0.08957      0.00000     0.40916    0.00127     0.41043
      H   30    0.10715      0.00000     0.39060    0.00225     0.39285
      H   31    0.10702      0.00000     0.39220    0.00079     0.39298
      H   32    0.11405      0.00000     0.38410    0.00186     0.38595
      H   33    0.24922      0.00000     0.22009    0.03069     0.25078
      H   34    0.22971      0.00000     0.26663    0.00367     0.27029
 =======================================================================
   * Total *   -0.00000     16.99458    47.74626    0.25916    65.00000

 Normal termination of Gaussian 16 at Fri Dec 11 13:10:04 2020.
