 Gaussian 16, Revision A.03,

 -----------------------------------------------------------
 # opt freq B3LYP/6-31G(d) empiricaldispersion=gd3bj scf=xqc
 -----------------------------------------------------------

 ------------------------------
 CID_69162517_JID_1477_neutraal
 ------------------------------
 Symbolic Z-matrix:
 Charge =  0 Multiplicity = 1

 SCF Done:  E(RB3LYP) =  -520.285376599     A.U. after   13 cycles
 SCF Done:  E(RB3LYP) =  -520.289928577     A.U. after   11 cycles
 SCF Done:  E(RB3LYP) =  -520.290549595     A.U. after   11 cycles
 SCF Done:  E(RB3LYP) =  -520.291241734     A.U. after   11 cycles
 SCF Done:  E(RB3LYP) =  -520.291762844     A.U. after   11 cycles
 SCF Done:  E(RB3LYP) =  -520.291904381     A.U. after   10 cycles
 SCF Done:  E(RB3LYP) =  -520.291930563     A.U. after   10 cycles
 SCF Done:  E(RB3LYP) =  -520.291940332     A.U. after    8 cycles
 SCF Done:  E(RB3LYP) =  -520.291941616     A.U. after    8 cycles
 SCF Done:  E(RB3LYP) =  -520.291942165     A.U. after    7 cycles
 SCF Done:  E(RB3LYP) =  -520.291942259     A.U. after    6 cycles
 SCF Done:  E(RB3LYP) =  -520.291942283     A.U. after    6 cycles
 Optimization completed.
    -- Stationary point found.
 Normal termination of Gaussian 16 at Tue Dec  8 20:08:03 2020.

 --------------------------------------------------------------------
 #N Geom=AllCheck Guess=TCheck SCRF=Check GenChk RB3LYP/6-31G(d) Freq
 --------------------------------------------------------------------

 Structure from the checkpoint file:  "JID_1477.chk"
 ------------------------------
 CID_69162517_JID_1477_neutraal
 ------------------------------
 Charge =  0 Multiplicity = 1

 SCF Done:  E(RB3LYP) =  -520.291942283     A.U. after    1 cycles

  Exact polarizability: 104.405  -3.140  98.277  -1.932   1.832  87.159
 Approx polarizability: 129.451  -3.068 135.051  -4.743   1.236 128.936

                      1                      2                      3
                      A                      A                      A
 Frequencies --     59.3011                71.3054               132.6951
 Red. masses --      2.8012                 2.9190                 2.6651
 Frc consts  --      0.0058                 0.0087                 0.0276
 IR Inten    --      0.0660                 0.4198                 0.3784

                      4                      5                      6
                      A                      A                      A
 Frequencies --    149.1483               163.6834               230.1743
 Red. masses --      2.7185                 2.4651                 2.4072
 Frc consts  --      0.0356                 0.0389                 0.0751
 IR Inten    --      0.8091                 0.8352                 6.1506

                      7                      8                      9
                      A                      A                      A
 Frequencies --    271.7940               283.9109               295.6457
 Red. masses --      1.4295                 1.3661                 2.7520
 Frc consts  --      0.0622                 0.0649                 0.1417
 IR Inten    --      2.1981                 3.1392                 0.3467

                     10                     11                     12
                      A                      A                      A
 Frequencies --    326.6264               344.9228               408.8961
 Red. masses --      2.1090                 2.2100                 3.0971
 Frc consts  --      0.1326                 0.1549                 0.3051
 IR Inten    --      2.4256                 2.2583                 6.7322

                     13                     14                     15
                      A                      A                      A
 Frequencies --    428.8322               450.2367               470.9481
 Red. masses --      2.1424                 2.3370                 2.8499
 Frc consts  --      0.2321                 0.2791                 0.3724
 IR Inten    --      0.4775                 0.6969                 0.2746

                     16                     17                     18
                      A                      A                      A
 Frequencies --    555.2756               565.4984               701.7778
 Red. masses --      2.7545                 2.8888                 2.4619
 Frc consts  --      0.5004                 0.5443                 0.7144
 IR Inten    --      8.6513                 9.1232                19.2961

                     19                     20                     21
                      A                      A                      A
 Frequencies --    784.6939               834.7938               859.9755
 Red. masses --      1.5541                 2.3193                 3.6041
 Frc consts  --      0.5638                 0.9523                 1.5704
 IR Inten    --      3.8924                 5.2459                 1.8837

                     22                     23                     24
                      A                      A                      A
 Frequencies --    890.2465               900.2706               909.9725
 Red. masses --      2.8112                 2.7354                 1.9713
 Frc consts  --      1.3127                 1.3062                 0.9617
 IR Inten    --     46.5134                14.0965                14.9668

                     25                     26                     27
                      A                      A                      A
 Frequencies --    936.9068               988.0221              1036.4383
 Red. masses --      1.6670                 2.1997                 2.4871
 Frc consts  --      0.8621                 1.2652                 1.5741
 IR Inten    --     27.5499                32.7336                10.0878

                     28                     29                     30
                      A                      A                      A
 Frequencies --   1055.5172              1084.9450              1108.4506
 Red. masses --      2.2242                 2.6136                 2.4014
 Frc consts  --      1.4600                 1.8126                 1.7384
 IR Inten    --     35.4930                22.4336                85.7846

                     31                     32                     33
                      A                      A                      A
 Frequencies --   1114.7939              1127.4801              1142.2744
 Red. masses --      3.6087                 1.4755                 1.6829
 Frc consts  --      2.6423                 1.1051                 1.2937
 IR Inten    --     20.5485                 0.0083                 7.9259

                     34                     35                     36
                      A                      A                      A
 Frequencies --   1146.7204              1164.6749              1179.6864
 Red. masses --      2.0497                 4.5479                 1.5482
 Frc consts  --      1.5880                 3.6347                 1.2694
 IR Inten    --      2.8132               106.5195                15.6834

                     37                     38                     39
                      A                      A                      A
 Frequencies --   1224.1213              1273.8756              1278.4037
 Red. masses --      2.7480                 1.4528                 1.3850
 Frc consts  --      2.4261                 1.3890                 1.3336
 IR Inten    --     37.5146                14.1809                13.2445

                     40                     41                     42
                      A                      A                      A
 Frequencies --   1298.2804              1302.4601              1341.4566
 Red. masses --      1.2230                 1.2326                 1.1900
 Frc consts  --      1.2145                 1.2320                 1.2617
 IR Inten    --      2.3109                18.3648                 4.4085

                     43                     44                     45
                      A                      A                      A
 Frequencies --   1363.4003              1380.7088              1396.7617
 Red. masses --      1.2451                 1.2550                 1.3528
 Frc consts  --      1.3637                 1.4096                 1.5549
 IR Inten    --     37.5533                 1.1067                 4.8751

                     46                     47                     48
                      A                      A                      A
 Frequencies --   1398.9810              1416.2798              1426.6229
 Red. masses --      1.3385                 1.3909                 1.3236
 Frc consts  --      1.5434                 1.6437                 1.5871
 IR Inten    --     15.2547                11.7764                 4.1083

                     49                     50                     51
                      A                      A                      A
 Frequencies --   1434.7812              1438.9193              1445.2976
 Red. masses --      1.3464                 1.3569                 1.2833
 Frc consts  --      1.6330                 1.6552                 1.5794
 IR Inten    --      8.4881                 2.1190                27.3138

                     52                     53                     54
                      A                      A                      A
 Frequencies --   1491.5392              1508.3583              1511.0809
 Red. masses --      1.1704                 1.0812                 1.0865
 Frc consts  --      1.5341                 1.4494                 1.4617
 IR Inten    --      3.3142                 4.2873                 0.4401

                     55                     56                     57
                      A                      A                      A
 Frequencies --   1513.6224              1521.9770              1525.8090
 Red. masses --      1.0951                 1.0863                 1.0730
 Frc consts  --      1.4782                 1.4826                 1.4718
 IR Inten    --      2.5215                 9.4017                 1.4594

                     58                     59                     60
                      A                      A                      A
 Frequencies --   1529.7242              1541.6271              1553.5276
 Red. masses --      1.0843                 1.0622                 1.0569
 Frc consts  --      1.4950                 1.4874                 1.5028
 IR Inten    --      7.2611                 8.9201                 3.8561

                     61                     62                     63
                      A                      A                      A
 Frequencies --   1556.1394              2914.9358              2945.7651
 Red. masses --      1.0486                 1.0735                 1.0631
 Frc consts  --      1.4961                 5.3742                 5.4352
 IR Inten    --      7.0985                65.4194               114.6574

                     64                     65                     66
                      A                      A                      A
 Frequencies --   2998.4777              3007.5108              3022.2427
 Red. masses --      1.0702                 1.0761                 1.0799
 Frc consts  --      5.6689                 5.7351                 5.8115
 IR Inten    --     50.9784                21.9289                92.0271

                     67                     68                     69
                      A                      A                      A
 Frequencies --   3035.1850              3045.3454              3054.6526
 Red. masses --      1.0671                 1.0433                 1.0612
 Frc consts  --      5.7921                 5.7006                 5.8343
 IR Inten    --     26.1974                40.7449                26.7132

                     70                     71                     72
                      A                      A                      A
 Frequencies --   3075.1994              3089.5803              3090.7740
 Red. masses --      1.0860                 1.0844                 1.0873
 Frc consts  --      6.0510                 6.0986                 6.1197
 IR Inten    --     25.6584                43.2960                37.1442

                     73                     74                     75
                      A                      A                      A
 Frequencies --   3104.2906              3111.5166              3118.1710
 Red. masses --      1.0994                 1.0937                 1.1054
 Frc consts  --      6.2419                 6.2386                 6.3325
 IR Inten    --     49.6411                48.1566                32.0239

                     76                     77                     78
                      A                      A                      A
 Frequencies --   3127.8565              3158.0902              3161.6857
 Red. masses --      1.0941                 1.0972                 1.0979
 Frc consts  --      6.3065                 6.4476                 6.4664
 IR Inten    --     28.3636                13.6541                 7.8695

 - Thermochemistry -
 -------------------
 Temperature   298.150 Kelvin.  Pressure   1.00000 Atm.
 Atom     1 has atomic number  6 and mass  12.00000

 Molecular mass:   159.12593 amu.
 Principal axes and moments of inertia in atomic units:
                           1         2         3
     Eigenvalues --  1038.525702176.132332701.45587
           X            0.99999   0.00147  -0.00466
           Y           -0.00147   1.00000   0.00167
           Z            0.00466  -0.00166   0.99999
 This molecule is an asymmetric top.
 Rotational symmetry number  1.
 Warning -- assumption of classical behavior for rotation
           may cause significant error
 Rotational temperatures (Kelvin)      0.08340     0.03980     0.03206
 Rotational constants (GHZ):           1.73779     0.82933     0.66806
 Zero-point vibrational energy     669379.8 (Joules/Mol)
                                  159.98562 (Kcal/Mol)
 Warning -- explicit consideration of  17 degrees of freedom as
           vibrations may cause significant error
 Vibrational temperatures:     85.32   102.59   190.92   214.59   235.50
          (Kelvin)            331.17   391.05   408.48   425.37   469.94
                              496.27   588.31   616.99   647.79   677.59
                              798.92   813.63  1009.70  1129.00  1201.08
                             1237.31  1280.87  1295.29  1309.25  1348.00
                             1421.54  1491.20  1518.65  1560.99  1594.81
                             1603.94  1622.19  1643.48  1649.87  1675.71
                             1697.31  1761.24  1832.82  1839.34  1867.94
                             1873.95  1930.06  1961.63  1986.53  2009.63
                             2012.82  2037.71  2052.59  2064.33  2070.28
                             2079.46  2145.99  2170.19  2174.11  2177.77
                             2189.79  2195.30  2200.93  2218.06  2235.18
                             2238.94  4193.94  4238.30  4314.14  4327.14
                             4348.33  4366.95  4381.57  4394.96  4424.53
                             4445.22  4446.93  4466.38  4476.78  4486.35
                             4500.29  4543.79  4548.96

 Zero-point correction=                           0.254953 (Hartree/Particle)
 Thermal correction to Energy=                    0.266375
 Thermal correction to Enthalpy=                  0.267319
 Thermal correction to Gibbs Free Energy=         0.218014
 Sum of electronic and zero-point Energies=           -520.036989
 Sum of electronic and thermal Energies=              -520.025567
 Sum of electronic and thermal Enthalpies=            -520.024623
 Sum of electronic and thermal Free Energies=         -520.073929

                     E (Thermal)             CV                S
                      KCal/Mol        Cal/Mol-Kelvin    Cal/Mol-Kelvin
 Total                  167.153             43.721            103.772
 Electronic               0.000              0.000              0.000
 Translational            0.889              2.981             41.103
 Rotational               0.889              2.981             30.191
 Vibrational            165.375             37.759             32.479
 Vibration     1          0.597              1.974              4.480
 Vibration     2          0.598              1.968              4.117
 Vibration     3          0.613              1.921              2.907
 Vibration     4          0.618              1.904              2.683
 Vibration     5          0.623              1.887              2.507
 Vibration     6          0.652              1.795              1.878
 Vibration     7          0.675              1.725              1.585
 Vibration     8          0.682              1.703              1.510
 Vibration     9          0.690              1.682              1.441
 Vibration    10          0.710              1.622              1.277
 Vibration    11          0.723              1.586              1.189
 Vibration    12          0.773              1.451              0.931
 Vibration    13          0.790              1.407              0.862
 Vibration    14          0.809              1.360              0.795
 Vibration    15          0.828              1.315              0.735
 Vibration    16          0.911              1.128              0.533
 Vibration    17          0.921              1.106              0.513

 Optimization completed.
    -- Stationary point found.
 Normal termination of Gaussian 16 at Tue Dec  8 20:15:19 2020.

 ----------------------------------------------------------------------
 # B3LYP/6-311++G(d,p) empiricaldispersion=gd3bj scf=xqc pop=npa geom=c
 heck
 ----------------------------------------------------------------------

 --------------------------------------
 CID_69162517_JID_1477_Energie_neutraal
 --------------------------------------
 Structure from the checkpoint file:  "JID_1477.chk"
 Charge =  0 Multiplicity = 1

 SCF Done:  E(RB3LYP) =  -520.441535035     A.U. after   13 cycles
 Normal termination of Gaussian 16 at Tue Dec  8 20:18:27 2020.

 ----------------------------------------------------------------------
 # B3LYP/6-311++G(d,p) empiricaldispersion=gd3bj scf=xqc pop=npa geom=c
 heck
 ----------------------------------------------------------------------

 ------------------------------------
 CID_69162517_JID_1477_Energie_kation
 ------------------------------------
 Structure from the checkpoint file:  "JID_1477.chk"
 Charge =  1 Multiplicity = 2

 SCF Done:  E(UB3LYP) =  -520.144886237     A.U. after   20 cycles
 Normal termination of Gaussian 16 at Tue Dec  8 20:24:43 2020.
 Gaussian 16:  ES64L-G16RevA.03 25-Dec-2016

 ----------------------------------------------------------------------
 # B3LYP/6-311++G(d,p) empiricaldispersion=gd3bj scf=xqc pop=npa geom=c
 heck
 ----------------------------------------------------------------------

 -----------------------------------
 CID_69162517_JID_1477_Energie_anion
 -----------------------------------
 Structure from the checkpoint file:  "JID_1477.chk"
 Charge = -1 Multiplicity = 2

                         Standard orientation:
 ---------------------------------------------------------------------
 Center     Atomic      Atomic             Coordinates (Angstroms)
 Number     Number       Type             X           Y           Z
 ---------------------------------------------------------------------
      1          6           0       -2.851214   -1.288995    0.608654
      2          6           0       -2.660673   -0.299334   -0.545384
      3          6           0       -1.920375    1.007279   -0.208814
      4          7           0       -0.457160    0.958454   -0.265778
      5          6           0        0.129620    2.286477   -0.400744
      6          6           0        0.148876    0.058254    0.695288
      7          6           0        1.556480    0.438688    1.166401
      8          8           0        2.511844    0.362359    0.117164
      9          6           0        2.533857   -0.945705   -0.451435
     10          6           0        1.143260   -1.345255   -0.924987
     11          8           0        0.222832   -1.276185    0.162546
     12          1           0       -1.905295   -1.742748    0.911020
     13          1           0       -3.525405   -2.099407    0.307931
     14          1           0       -3.300158   -0.793727    1.479170
     15          1           0       -2.144197   -0.785417   -1.380648
     16          1           0       -3.653784   -0.010023   -0.914766
     17          1           0       -2.223137    1.761251   -0.943556
     18          1           0       -2.269586    1.378644    0.776466
     19          1           0       -0.028780    2.941353    0.477237
     20          1           0        1.200589    2.201222   -0.588810
     21          1           0       -0.326062    2.781955   -1.264209
     22          1           0       -0.486595   -0.051951    1.586519
     23          1           0        1.825322   -0.262860    1.971315
     24          1           0        1.600543    1.455209    1.564115
     25          1           0        3.245946   -0.912022   -1.281693
     26          1           0        2.893109   -1.668889    0.298954
     27          1           0        1.128834   -2.380604   -1.278649
     28          1           0        0.812394   -0.679015   -1.731492
 ---------------------------------------------------------------------

 SCF Done:  E(UB3LYP) =  -520.422554031     A.U. after   29 cycles

 The electronic state is 2-A.
 Alpha  occ. eigenvalues --  -19.02967 -19.01991 -14.20257 -10.14408 -10.11799
 Alpha  occ. eigenvalues --  -10.11518 -10.10876 -10.08735 -10.08017 -10.05981
 Alpha  occ. eigenvalues --  -10.04820  -0.95961  -0.92048  -0.81558  -0.67997
 Alpha  occ. eigenvalues --   -0.66565  -0.59616  -0.59308  -0.57206  -0.52970
 Alpha  occ. eigenvalues --   -0.48957  -0.44625  -0.41602  -0.39542  -0.38781
 Alpha  occ. eigenvalues --   -0.38261  -0.36246  -0.34495  -0.33298  -0.32595
 Alpha  occ. eigenvalues --   -0.31192  -0.29734  -0.29045  -0.28964  -0.27276
 Alpha  occ. eigenvalues --   -0.27011  -0.26362  -0.23514  -0.23025  -0.22563
 Alpha  occ. eigenvalues --   -0.20476  -0.18825  -0.14462  -0.11833   0.04800
 Alpha virt. eigenvalues --    0.06829   0.07239   0.07593   0.09227   0.09413
 Alpha virt. eigenvalues --    0.09714   0.10138   0.10385   0.11961   0.12517
 Alpha virt. eigenvalues --    0.12650   0.13059   0.13391   0.13738   0.14166

  Beta  occ. eigenvalues --  -19.02962 -19.01984 -14.20246 -10.14398 -10.11777
  Beta  occ. eigenvalues --  -10.11493 -10.10859 -10.08713 -10.07987 -10.05967
  Beta  occ. eigenvalues --  -10.04802  -0.95944  -0.92031  -0.81535  -0.67963
  Beta  occ. eigenvalues --   -0.66531  -0.59581  -0.59262  -0.57159  -0.52913
  Beta  occ. eigenvalues --   -0.48907  -0.44566  -0.41555  -0.39512  -0.38751
  Beta  occ. eigenvalues --   -0.38224  -0.36204  -0.34462  -0.33266  -0.32553
  Beta  occ. eigenvalues --   -0.31156  -0.29689  -0.29007  -0.28935  -0.27249
  Beta  occ. eigenvalues --   -0.26976  -0.26346  -0.23480  -0.22991  -0.22531
  Beta  occ. eigenvalues --   -0.20447  -0.18787  -0.14424  -0.11770
  Beta virt. eigenvalues --    0.07045   0.07831   0.08165   0.08235   0.09800
  Beta virt. eigenvalues --    0.09948   0.10284   0.10698   0.10905   0.12430
  Beta virt. eigenvalues --    0.12923   0.13061   0.13515   0.13578   0.14061

 Mulliken charges and spin densities:
               1          2
     1  C    0.515199  -1.027690
     2  C   -1.268079   1.178275
     3  C    1.037375  -1.350457
     4  N    0.168682   0.145239
     5  C    1.185371  -1.498678
     6  C   -1.903989   1.261272
     7  C    1.245351  -1.912593
     8  O   -0.148498   0.069992
     9  C    0.918703  -1.212638
    10  C    0.085101  -0.091301
    11  O    0.004660   0.021788
    12  H    0.088516   0.107396
    13  H   -0.242445   0.374341
    14  H   -0.049379   0.163259
    15  H    0.033287   0.083130
    16  H   -0.350137   0.508146
    17  H   -0.171252   0.304626
    18  H   -0.128562   0.255921
    19  H   -0.437434   0.568732
    20  H    0.038427   0.134776
    21  H   -0.222256   0.363432
    22  H   -0.255997   0.429538
    23  H   -0.302461   0.454178
    24  H   -0.005415   0.206451
    25  H   -0.471324   0.649528
    26  H    0.001814   0.135873
    27  H   -0.617293   0.791330
    28  H    0.252035  -0.113868
 Sum of Mulliken charges =  -1.00000   1.00000

 Dipole moment (field-independent basis, Debye):
    X=              0.4160    Y=             -0.5529    Z=              0.1505  Tot=              0.7081
 Quadrupole moment (field-independent basis, Debye-Ang):
   XX=           -129.0260   YY=           -120.0037   ZZ=           -104.4360
   XY=              4.0442   XZ=              2.6998   YZ=             -2.5610

 Summary of Natural Population Analysis:

                                       Natural Population
                Natural  -----------------------------------------------
    Atom  No    Charge         Core      Valence    Rydberg      Total
 -----------------------------------------------------------------------
      C    1   -0.28837      0.99966     2.28425    0.00446     3.28837
      C    2   -0.19611      0.99964     2.18798    0.00849     3.19611
      C    3   -0.07771      0.99960     2.06614    0.01196     3.07771
      N    4   -0.28962      0.99969     2.77693    0.01301     3.78962
      C    5   -0.18022      0.99963     2.17164    0.00894     3.18022
      C    6    0.14373      0.99954     1.83860    0.01813     2.85627
      C    7   -0.02657      0.99955     2.01382    0.01320     3.02657
      O    8   -0.30050      0.99989     3.29083    0.00978     4.30050
      C    9   -0.02225      0.99958     2.01029    0.01238     3.02225
      C   10   -0.02952      0.99957     2.01678    0.01318     3.02952
      O   11   -0.30803      0.99989     3.29802    0.01012     4.30803
      H   12    0.10680      0.00000     0.39138    0.00182     0.39320
      H   13    0.09563      0.00000     0.40330    0.00107     0.40437
      H   14    0.09229      0.00000     0.40640    0.00131     0.40771
      H   15    0.09977      0.00000     0.39866    0.00157     0.40023
      H   16    0.09374      0.00000     0.40510    0.00116     0.40626
      H   17    0.09641      0.00000     0.40192    0.00167     0.40359
      H   18    0.07871      0.00000     0.41948    0.00181     0.42129
      H   19    0.08114      0.00000     0.41724    0.00161     0.41886
      H   20    0.10470      0.00000     0.39353    0.00177     0.39530
      H   21    0.09603      0.00000     0.40261    0.00135     0.40397
      H   22    0.08940      0.00000     0.40860    0.00200     0.41060
      H   23    0.08701      0.00000     0.41148    0.00151     0.41299
      H   24    0.09818      0.00000     0.40028    0.00154     0.40182
      H   25    0.09356      0.00000     0.40486    0.00157     0.40644
      H   26    0.07895      0.00000     0.41937    0.00168     0.42105
      H   27    0.09377      0.00000     0.40459    0.00165     0.40623
      H   28    0.08908      0.00000     0.40898    0.00194     0.41092
 =======================================================================
   * Total *   -0.00000     10.99624    32.85307    0.15069    44.00000

 Normal termination of Gaussian 16 at Tue Dec  8 20:33:42 2020.
