 Gaussian 16, Revision A.03,

 -----------------------------------------------------------
 # opt freq B3LYP/6-31G(d) empiricaldispersion=gd3bj scf=xqc
 -----------------------------------------------------------

 -------------------------------
 CID_135014810_JID_2579_neutraal
 -------------------------------
 Symbolic Z-matrix:
 Charge =  0 Multiplicity = 1

 SCF Done:  E(RB3LYP) =  -506.430505550     A.U. after   14 cycles
 SCF Done:  E(RB3LYP) =  -506.432534861     A.U. after   12 cycles
 SCF Done:  E(RB3LYP) =  -506.432505798     A.U. after   11 cycles
 SCF Done:  E(RB3LYP) =  -506.432965000     A.U. after   11 cycles
 SCF Done:  E(RB3LYP) =  -506.433153827     A.U. after   10 cycles
 SCF Done:  E(RB3LYP) =  -506.433168402     A.U. after   10 cycles
 SCF Done:  E(RB3LYP) =  -506.433171052     A.U. after    9 cycles
 SCF Done:  E(RB3LYP) =  -506.433172050     A.U. after    8 cycles
 SCF Done:  E(RB3LYP) =  -506.433172716     A.U. after    9 cycles
 SCF Done:  E(RB3LYP) =  -506.433173023     A.U. after    9 cycles
 SCF Done:  E(RB3LYP) =  -506.433381592     A.U. after    9 cycles
 SCF Done:  E(RB3LYP) =  -506.433384860     A.U. after    9 cycles
 SCF Done:  E(RB3LYP) =  -506.433386380     A.U. after    9 cycles
 SCF Done:  E(RB3LYP) =  -506.433386931     A.U. after    7 cycles
 SCF Done:  E(RB3LYP) =  -506.433386962     A.U. after    6 cycles
 Optimization completed.
    -- Stationary point found.
 Normal termination of Gaussian 16 at Wed Dec  9 18:21:44 2020.

 --------------------------------------------------------------------
 #N Geom=AllCheck Guess=TCheck SCRF=Check GenChk RB3LYP/6-31G(d) Freq
 --------------------------------------------------------------------

 Structure from the checkpoint file:  "JID_2579.chk"
 -------------------------------
 CID_135014810_JID_2579_neutraal
 -------------------------------
 Charge =  0 Multiplicity = 1

 SCF Done:  E(RB3LYP) =  -506.433386962     A.U. after    1 cycles

  Exact polarizability: 137.416   6.400 115.164   1.496  -7.893 104.277
 Approx polarizability: 180.129   2.404 163.275   5.136 -19.519 159.151

                      1                      2                      3
                      A                      A                      A
 Frequencies --     30.6576                53.7005                63.5579
 Red. masses --      3.4466                 2.6032                 3.2137
 Frc consts  --      0.0019                 0.0044                 0.0076
 IR Inten    --      0.2267                 1.0844                 0.1018

                      4                      5                      6
                      A                      A                      A
 Frequencies --     82.5530                93.4377               120.4118
 Red. masses --      2.5691                 2.4815                 2.1333
 Frc consts  --      0.0103                 0.0128                 0.0182
 IR Inten    --      0.1449                 0.9528                 0.8703

                      7                      8                      9
                      A                      A                      A
 Frequencies --    135.5180               222.2371               223.9264
 Red. masses --      1.9296                 2.0581                 1.8037
 Frc consts  --      0.0209                 0.0599                 0.0533
 IR Inten    --      0.2960                 2.9612                 2.6665

                     10                     11                     12
                      A                      A                      A
 Frequencies --    242.7749               251.8678               280.0198
 Red. masses --      1.2781                 1.6681                 1.2921
 Frc consts  --      0.0444                 0.0623                 0.0597
 IR Inten    --      0.5940                 1.4013                 0.3910

                     13                     14                     15
                      A                      A                      A
 Frequencies --    292.7785               309.0162               346.5411
 Red. masses --      2.1518                 2.4148                 2.4503
 Frc consts  --      0.1087                 0.1359                 0.1734
 IR Inten    --      0.3230                 0.3346                 0.7948

                     16                     17                     18
                      A                      A                      A
 Frequencies --    366.5924               392.7901               408.7784
 Red. masses --      2.2920                 2.1119                 2.5356
 Frc consts  --      0.1815                 0.1920                 0.2496
 IR Inten    --      0.2958                 2.0507                 1.1899

                     19                     20                     21
                      A                      A                      A
 Frequencies --    452.5350               469.3104               496.0869
 Red. masses --      2.2928                 2.0664                 2.5094
 Frc consts  --      0.2766                 0.2682                 0.3639
 IR Inten    --      2.8743                 1.3613                 7.1646

                     22                     23                     24
                      A                      A                      A
 Frequencies --    582.5738               622.9543               763.9934
 Red. masses --      2.3522                 1.7087                 2.6030
 Frc consts  --      0.4704                 0.3907                 0.8952
 IR Inten    --      3.8440                 6.5146                 1.1099

                     25                     26                     27
                      A                      A                      A
 Frequencies --    842.1702               889.5121               902.1761
 Red. masses --      1.9834                 1.7740                 2.1710
 Frc consts  --      0.8288                 0.8270                 1.0411
 IR Inten    --      3.6349                 2.6740                 7.6912

                     28                     29                     30
                      A                      A                      A
 Frequencies --    924.1836               932.3467               946.8824
 Red. masses --      1.7311                 1.4079                 3.6015
 Frc consts  --      0.8711                 0.7211                 1.9025
 IR Inten    --      2.6002                43.1891                19.4079

                     31                     32                     33
                      A                      A                      A
 Frequencies --    949.6872               961.0317               985.3825
 Red. masses --      1.7504                 1.4882                 1.8561
 Frc consts  --      0.9301                 0.8098                 1.0618
 IR Inten    --      9.9114                 0.8863                 5.6882

                     34                     35                     36
                      A                      A                      A
 Frequencies --   1007.7015              1020.0369              1039.3181
 Red. masses --      1.6602                 1.1196                 1.2753
 Frc consts  --      0.9933                 0.6864                 0.8117
 IR Inten    --      1.8771                31.4769                12.5550

                     37                     38                     39
                      A                      A                      A
 Frequencies --   1042.9847              1092.0710              1112.2196
 Red. masses --      1.1634                 3.4882                 1.9901
 Frc consts  --      0.7457                 2.4511                 1.4505
 IR Inten    --      8.7532                10.3005                17.9042

                     40                     41                     42
                      A                      A                      A
 Frequencies --   1119.2796              1146.4598              1189.4031
 Red. masses --      1.7975                 3.3892                 1.3776
 Frc consts  --      1.3268                 2.6246                 1.1483
 IR Inten    --      1.9370                78.8541                 4.2342

                     43                     44                     45
                      A                      A                      A
 Frequencies --   1192.9108              1205.3942              1226.0164
 Red. masses --      1.9170                 1.6027                 1.9331
 Frc consts  --      1.6073                 1.3720                 1.7120
 IR Inten    --      3.3563                19.8875                10.0656

                     46                     47                     48
                      A                      A                      A
 Frequencies --   1230.4538              1296.1217              1314.3395
 Red. masses --      1.6667                 1.6847                 1.4233
 Frc consts  --      1.4868                 1.6675                 1.4486
 IR Inten    --      6.3599                 0.2921                12.4452

                     49                     50                     51
                      A                      A                      A
 Frequencies --   1328.8602              1332.5601              1343.3065
 Red. masses --      1.3172                 1.2840                 1.2673
 Frc consts  --      1.3705                 1.3434                 1.3474
 IR Inten    --      3.5777                 1.5250                 0.7441

                     52                     53                     54
                      A                      A                      A
 Frequencies --   1353.2357              1371.4311              1389.5294
 Red. masses --      1.3666                 1.2869                 1.4160
 Frc consts  --      1.4745                 1.4261                 1.6109
 IR Inten    --      1.9900                 4.1617                 3.1604

                     55                     56                     57
                      A                      A                      A
 Frequencies --   1417.1071              1428.4116              1449.0448
 Red. masses --      1.2709                 1.2464                 1.2288
 Frc consts  --      1.5037                 1.4984                 1.5202
 IR Inten    --     22.0325                 5.3057                 5.5518

                     58                     59                     60
                      A                      A                      A
 Frequencies --   1476.4031              1499.5584              1500.2403
 Red. masses --      1.1859                 1.1423                 1.1089
 Frc consts  --      1.5231                 1.5134                 1.4705
 IR Inten    --      1.8686                 1.3195                 6.3283

                     61                     62                     63
                      A                      A                      A
 Frequencies --   1508.3791              1510.6933              1516.1890
 Red. masses --      1.0685                 1.0737                 1.0911
 Frc consts  --      1.4324                 1.4438                 1.4779
 IR Inten    --      1.0447                 1.7282                 4.3635

                     64                     65                     66
                      A                      A                      A
 Frequencies --   1519.7105              1525.5176              1533.4089
 Red. masses --      1.0497                 1.0648                 1.0545
 Frc consts  --      1.4283                 1.4601                 1.4609
 IR Inten    --      0.8355                 2.8307                 3.4361

                     67                     68                     69
                      A                      A                      A
 Frequencies --   1536.7483              1545.1826              1729.6895
 Red. masses --      1.0581                 1.0548                 4.4721
 Frc consts  --      1.4722                 1.4838                 7.8830
 IR Inten    --     10.0649                 6.5759                 7.1440

                     70                     71                     72
                      A                      A                      A
 Frequencies --   1749.7102              2986.9239              2995.5310
 Red. masses --      5.8717                 1.0625                 1.0513
 Frc consts  --     10.5911                 5.5852                 5.5580
 IR Inten    --      6.1239                42.2027                59.5864

                     73                     74                     75
                      A                      A                      A
 Frequencies --   3003.5826              3023.2352              3038.9934
 Red. masses --      1.0650                 1.0596                 1.0358
 Frc consts  --      5.6610                 5.7059                 5.6360
 IR Inten    --     28.0175                29.9999                37.2378

                     76                     77                     78
                      A                      A                      A
 Frequencies --   3047.6142              3054.5809              3058.2296
 Red. masses --      1.0395                 1.0925                 1.0945
 Frc consts  --      5.6883                 6.0060                 6.0310
 IR Inten    --     26.8476                52.8579                14.5672

                     79                     80                     81
                      A                      A                      A
 Frequencies --   3065.8473              3080.6508              3103.9137
 Red. masses --      1.1017                 1.0935                 1.1024
 Frc consts  --      6.1009                 6.1145                 6.2574
 IR Inten    --     23.0913                38.9388                 6.5488

                     82                     83                     84
                      A                      A                      A
 Frequencies --   3106.4388              3111.5967              3134.7352
 Red. masses --      1.1020                 1.1018                 1.0983
 Frc consts  --      6.2657                 6.2853                 6.3590
 IR Inten    --     35.7234                60.6831                48.3722

                     85                     86                     87
                      A                      A                      A
 Frequencies --   3135.1165              3149.0106              3151.0826
 Red. masses --      1.0984                 1.0897                 1.0594
 Frc consts  --      6.3607                 6.3668                 6.1979
 IR Inten    --     22.1238                14.6222                14.4342

                     88                     89                     90
                      A                      A                      A
 Frequencies --   3164.3540              3180.2136              3232.6949
 Red. masses --      1.0903                 1.0876                 1.1153
 Frc consts  --      6.4324                 6.4808                 6.8668
 IR Inten    --     10.4230                18.1388                20.4368

 - Thermochemistry -
 -------------------
 Temperature   298.150 Kelvin.  Pressure   1.00000 Atm.
 Atom     1 has atomic number  6 and mass  12.00000

 Molecular mass:   168.15142 amu.
 Principal axes and moments of inertia in atomic units:
                           1         2         3
     Eigenvalues --  1463.936123284.822023867.40515
           X            0.99969   0.02483  -0.00353
           Y           -0.02487   0.99961  -0.01247
           Z            0.00322   0.01255   0.99992
 This molecule is an asymmetric top.
 Rotational symmetry number  1.
 Warning -- assumption of classical behavior for rotation
           may cause significant error
 Rotational temperatures (Kelvin)      0.05917     0.02637     0.02240
 Rotational constants (GHZ):           1.23280     0.54942     0.46665
 Zero-point vibrational energy     761195.6 (Joules/Mol)
                                  181.93010 (Kcal/Mol)
 Warning -- explicit consideration of  22 degrees of freedom as
           vibrations may cause significant error
 Vibrational temperatures:     44.11    77.26    91.45   118.78   134.44
          (Kelvin)            173.25   194.98   319.75   322.18   349.30
                              362.38   402.89   421.24   444.61   498.60
                              527.44   565.14   588.14   651.10   675.23
                              713.76   838.19   896.29  1099.22  1211.70
                             1279.81  1298.03  1329.69  1341.44  1362.35
                             1366.39  1382.71  1417.75  1449.86  1467.61
                             1495.35  1500.62  1571.25  1600.24  1610.39
                             1649.50  1711.29  1716.33  1734.29  1763.96
                             1770.35  1864.83  1891.04  1911.93  1917.26
                             1932.72  1947.00  1973.18  1999.22  2038.90
                             2055.17  2084.85  2124.21  2157.53  2158.51
                             2170.22  2173.55  2181.46  2186.52  2194.88
                             2206.23  2211.04  2223.17  2488.64  2517.44
                             4297.52  4309.90  4321.49  4349.76  4372.43
                             4384.84  4394.86  4400.11  4411.07  4432.37
                             4465.84  4469.47  4476.89  4510.18  4510.73
                             4530.72  4533.71  4552.80  4575.62  4651.13

 Zero-point correction=                           0.289924 (Hartree/Particle)
 Thermal correction to Energy=                    0.304835
 Thermal correction to Enthalpy=                  0.305779
 Thermal correction to Gibbs Free Energy=         0.247682
 Sum of electronic and zero-point Energies=           -506.143463
 Sum of electronic and thermal Energies=              -506.128552
 Sum of electronic and thermal Enthalpies=            -506.127608
 Sum of electronic and thermal Free Energies=         -506.185705

                     E (Thermal)             CV                S
                      KCal/Mol        Cal/Mol-Kelvin    Cal/Mol-Kelvin
 Total                  191.287             54.449            122.276
 Electronic               0.000              0.000              0.000
 Translational            0.889              2.981             41.267
 Rotational               0.889              2.981             31.298
 Vibrational            189.509             48.488             49.711
 Vibration     1          0.594              1.984              5.786
 Vibration     2          0.596              1.976              4.676
 Vibration     3          0.597              1.972              4.344
 Vibration     4          0.600              1.961              3.829
 Vibration     5          0.602              1.954              3.587
 Vibration     6          0.609              1.932              3.094
 Vibration     7          0.613              1.918              2.866
 Vibration     8          0.648              1.807              1.941
 Vibration     9          0.649              1.805              1.927
 Vibration    10          0.659              1.775              1.782
 Vibration    11          0.664              1.760              1.717
 Vibration    12          0.680              1.711              1.534
 Vibration    13          0.688              1.687              1.458
 Vibration    14          0.698              1.657              1.368
 Vibration    15          0.725              1.582              1.182
 Vibration    16          0.740              1.541              1.094
 Vibration    17          0.760              1.486              0.990
 Vibration    18          0.773              1.451              0.931
 Vibration    19          0.811              1.355              0.788
 Vibration    20          0.826              1.318              0.739
 Vibration    21          0.852              1.259              0.668
 Vibration    22          0.939              1.069              0.481

 Optimization completed.
    -- Stationary point found.
 Normal termination of Gaussian 16 at Wed Dec  9 18:30:44 2020.

 ----------------------------------------------------------------------
 # B3LYP/6-311++G(d,p) empiricaldispersion=gd3bj scf=xqc pop=npa geom=c
 heck
 ----------------------------------------------------------------------

 ---------------------------------------
 CID_135014810_JID_2579_Energie_neutraal
 ---------------------------------------
 Structure from the checkpoint file:  "JID_2579.chk"
 Charge =  0 Multiplicity = 1

 SCF Done:  E(RB3LYP) =  -506.580517846     A.U. after   14 cycles
 Normal termination of Gaussian 16 at Wed Dec  9 18:34:57 2020.

 ----------------------------------------------------------------------
 # B3LYP/6-311++G(d,p) empiricaldispersion=gd3bj scf=xqc pop=npa geom=c
 heck
 ----------------------------------------------------------------------

 -------------------------------------
 CID_135014810_JID_2579_Energie_kation
 -------------------------------------
 Structure from the checkpoint file:  "JID_2579.chk"
 Charge =  1 Multiplicity = 2

 SCF Done:  E(UB3LYP) =  -506.267624960     A.U. after   22 cycles
 Normal termination of Gaussian 16 at Wed Dec  9 18:44:06 2020.
 Gaussian 16:  ES64L-G16RevA.03 25-Dec-2016

 ----------------------------------------------------------------------
 # B3LYP/6-311++G(d,p) empiricaldispersion=gd3bj scf=xqc pop=npa geom=c
 heck
 ----------------------------------------------------------------------

 ------------------------------------
 CID_135014810_JID_2579_Energie_anion
 ------------------------------------
 Structure from the checkpoint file:  "JID_2579.chk"
 Charge = -1 Multiplicity = 2

                         Standard orientation:
 ---------------------------------------------------------------------
 Center     Atomic      Atomic             Coordinates (Angstroms)
 Number     Number       Type             X           Y           Z
 ---------------------------------------------------------------------
      1          6           0       -1.334196   -0.696701    1.593938
      2          6           0       -1.926195   -0.451409    0.197971
      3          6           0       -3.343860   -1.049207    0.147877
      4          6           0       -2.051515    1.069425   -0.094910
      5          6           0       -0.836331    1.924749    0.135558
      6          6           0       -0.324362    2.781548   -0.748960
      7          6           0       -1.075761   -1.188644   -0.879098
      8          6           0        0.337820   -0.710894   -1.053606
      9          6           0        1.420304   -1.305032   -0.544549
     10          6           0        2.820131   -0.789879   -0.732115
     11          8           0        3.445608   -0.406055    0.489291
     12          6           0        2.874270    0.753639    1.058211
     13          1           0       -1.893282   -0.144943    2.359404
     14          1           0       -0.284954   -0.394613    1.650405
     15          1           0       -1.383444   -1.762124    1.847986
     16          1           0       -3.980422   -0.617038    0.928892
     17          1           0       -3.821425   -0.856347   -0.820517
     18          1           0       -3.316883   -2.134592    0.299180
     19          1           0       -2.404683    1.207690   -1.125673
     20          1           0       -2.853241    1.450244    0.557194
     21          1           0       -0.380024    1.856784    1.122307
     22          1           0        0.534694    3.403743   -0.513173
     23          1           0       -0.746485    2.892407   -1.746127
     24          1           0       -1.067994   -2.255000   -0.617955
     25          1           0       -1.604512   -1.104701   -1.839137
     26          1           0        0.475192    0.198342   -1.634791
     27          1           0        1.317634   -2.205292    0.062766
     28          1           0        3.469517   -1.570816   -1.144385
     29          1           0        2.814443    0.056985   -1.438885
     30          1           0        2.906473    1.605026    0.358324
     31          1           0        1.826733    0.600802    1.353145
     32          1           0        3.465971    0.996321    1.944803
 ---------------------------------------------------------------------

 SCF Done:  E(UB3LYP) =  -506.563393350     A.U. after   33 cycles
 SCF Done:  E(UB3LYP) =  -506.563393349     a.u. after    1 cycles

 The electronic state is 2-A.
 Alpha  occ. eigenvalues --  -19.03179 -10.12515 -10.11259 -10.08731 -10.07549
 Alpha  occ. eigenvalues --  -10.07536 -10.07032 -10.06938 -10.06826 -10.06208
 Alpha  occ. eigenvalues --  -10.05359 -10.05328  -0.94212  -0.73846  -0.69673
 Alpha  occ. eigenvalues --   -0.67366  -0.63234  -0.58779  -0.58278  -0.57852
 Alpha  occ. eigenvalues --   -0.52661  -0.46860  -0.46070  -0.43204  -0.39396
 Alpha  occ. eigenvalues --   -0.38566  -0.38127  -0.37340  -0.35046  -0.34612
 Alpha  occ. eigenvalues --   -0.33792  -0.32468  -0.31725  -0.29460  -0.28722
 Alpha  occ. eigenvalues --   -0.28054  -0.27481  -0.26675  -0.25504  -0.25121
 Alpha  occ. eigenvalues --   -0.23742  -0.22783  -0.22619  -0.21644  -0.17269
 Alpha  occ. eigenvalues --   -0.16848  -0.14902   0.04692
 Alpha virt. eigenvalues --    0.06638   0.07303   0.07576   0.08208   0.08854
 Alpha virt. eigenvalues --    0.09087   0.09202   0.09863   0.10666   0.10916
 Alpha virt. eigenvalues --    0.11218   0.11501   0.11992   0.12714   0.13007

  Beta  occ. eigenvalues --  -19.03173 -10.12508 -10.11235 -10.08729 -10.07544
  Beta  occ. eigenvalues --  -10.07527 -10.07027 -10.06917 -10.06802 -10.06183
  Beta  occ. eigenvalues --  -10.05326 -10.05289  -0.94199  -0.73824  -0.69656
  Beta  occ. eigenvalues --   -0.67338  -0.63207  -0.58729  -0.58226  -0.57793
  Beta  occ. eigenvalues --   -0.52620  -0.46803  -0.46027  -0.43143  -0.39370
  Beta  occ. eigenvalues --   -0.38548  -0.38107  -0.37300  -0.35015  -0.34560
  Beta  occ. eigenvalues --   -0.33758  -0.32434  -0.31687  -0.29429  -0.28692
  Beta  occ. eigenvalues --   -0.28020  -0.27447  -0.26637  -0.25475  -0.25081
  Beta  occ. eigenvalues --   -0.23710  -0.22755  -0.22586  -0.21602  -0.17252
  Beta  occ. eigenvalues --   -0.16831  -0.14885
  Beta virt. eigenvalues --    0.06820   0.07372   0.07912   0.08065   0.08444
  Beta virt. eigenvalues --    0.09292   0.09688   0.09851   0.10196   0.10927
  Beta virt. eigenvalues --    0.11182   0.11735   0.11967   0.12474   0.12983

 Mulliken charges and spin densities:
               1          2
     1  C    0.670049  -1.419828
     2  C   -2.444445   3.319529
     3  C    1.651659  -2.149843
     4  C    2.407146  -3.280904
     5  C   -1.519638   2.018779
     6  C    0.245653  -0.914877
     7  C    0.942742  -1.818607
     8  C    0.430840   0.025085
     9  C   -0.864336   0.806920
    10  C   -0.082788  -0.555221
    11  O   -0.139619   0.032467
    12  C    0.096335  -0.488607
    13  H   -0.269391   0.451572
    14  H    0.264521  -0.207702
    15  H   -0.157393   0.307683
    16  H   -0.270052   0.412620
    17  H   -0.473357   0.621116
    18  H   -0.133555   0.271327
    19  H   -0.001352   0.159604
    20  H   -0.168189   0.341251
    21  H   -0.344348   0.492259
    22  H   -0.131035   0.260306
    23  H   -0.357806   0.487101
    24  H    0.077901   0.096190
    25  H   -0.265645   0.442520
    26  H    0.044459   0.136520
    27  H   -0.078252   0.244229
    28  H    0.077314   0.081153
    29  H   -0.076028   0.210630
    30  H    0.026379   0.118914
    31  H   -0.051767   0.242014
    32  H   -0.106002   0.255798
 Sum of Mulliken charges =  -1.00000   1.00000

 Dipole moment (field-independent basis, Debye):
    X=              4.3397    Y=             -1.0520    Z=             -0.7886  Tot=              4.5345
 Quadrupole moment (field-independent basis, Debye-Ang):
   XX=           -148.2183   YY=           -122.0535   ZZ=           -118.7735
   XY=             -4.5678   XZ=             -3.1312   YZ=              0.9068

 Summary of Natural Population Analysis:

                                       Natural Population
                Natural  -----------------------------------------------
    Atom  No    Charge         Core      Valence    Rydberg      Total
 -----------------------------------------------------------------------
      C    1   -0.28941      0.99961     2.28191    0.00789     3.28941
      C    2   -0.03731      0.99957     2.02462    0.01312     3.03731
      C    3   -0.28154      0.99962     2.27408    0.00783     3.28154
      C    4   -0.20974      0.99956     2.19840    0.01177     3.20974
      C    5   -0.07862      0.99955     2.06824    0.01083     3.07862
      C    6   -0.19487      0.99955     2.18806    0.00726     3.19487
      C    7   -0.20663      0.99957     2.19526    0.01181     3.20663
      C    8   -0.07339      0.99951     2.06342    0.01046     3.07339
      C    9   -0.11555      0.99949     2.10776    0.00830     3.11555
      C   10   -0.02146      0.99956     2.00980    0.01209     3.02146
      O   11   -0.29742      0.99989     3.28799    0.00954     4.29742
      C   12   -0.10126      0.99961     2.09138    0.01027     3.10126
      H   13    0.10197      0.00000     0.39672    0.00132     0.39803
      H   14    0.10114      0.00000     0.39702    0.00184     0.39886
      H   15    0.10077      0.00000     0.39801    0.00122     0.39923
      H   16    0.10127      0.00000     0.39723    0.00150     0.39873
      H   17    0.10128      0.00000     0.39699    0.00173     0.39872
      H   18    0.09996      0.00000     0.39868    0.00136     0.40004
      H   19    0.10127      0.00000     0.39666    0.00208     0.39873
      H   20    0.10773      0.00000     0.39061    0.00166     0.39227
      H   21    0.09359      0.00000     0.40467    0.00173     0.40641
      H   22    0.09419      0.00000     0.40452    0.00129     0.40581
      H   23    0.09001      0.00000     0.40861    0.00138     0.40999
      H   24    0.10062      0.00000     0.39766    0.00171     0.39938
      H   25    0.10533      0.00000     0.39312    0.00155     0.39467
      H   26    0.09625      0.00000     0.40126    0.00250     0.40375
      H   27    0.09329      0.00000     0.40547    0.00125     0.40671
      H   28    0.08973      0.00000     0.40898    0.00129     0.41027
      H   29    0.07932      0.00000     0.41924    0.00144     0.42068
      H   30    0.07814      0.00000     0.42030    0.00156     0.42186
      H   31    0.08297      0.00000     0.41505    0.00199     0.41703
      H   32    0.08838      0.00000     0.41055    0.00107     0.41162
 =======================================================================
   * Total *    0.00000     11.99509    34.85227    0.15264    47.00000

 Normal termination of Gaussian 16 at Wed Dec  9 18:57:12 2020.
