 Gaussian 16, Revision A.03,

 -----------------------------------------------------------
 # opt freq B3LYP/6-31G(d) empiricaldispersion=gd3bj scf=xqc
 -----------------------------------------------------------

 ------------------------------
 CID_80014025_JID_3457_neutraal
 ------------------------------
 Symbolic Z-matrix:
 Charge =  0 Multiplicity = 1

 SCF Done:  E(RB3LYP) =  -904.639948700     A.U. after   13 cycles
 SCF Done:  E(RB3LYP) =  -904.646787408     A.U. after   11 cycles
 SCF Done:  E(RB3LYP) =  -904.647640939     A.U. after   11 cycles
 SCF Done:  E(RB3LYP) =  -904.648451207     A.U. after   11 cycles
 SCF Done:  E(RB3LYP) =  -904.648778961     A.U. after   14 cycles
 SCF Done:  E(RB3LYP) =  -904.649944983     A.U. after   11 cycles
 SCF Done:  E(RB3LYP) =  -904.650363283     A.U. after   10 cycles
 SCF Done:  E(RB3LYP) =  -904.650424582     A.U. after   10 cycles
 SCF Done:  E(RB3LYP) =  -904.650450054     A.U. after    9 cycles
 SCF Done:  E(RB3LYP) =  -904.650455555     A.U. after    9 cycles
 SCF Done:  E(RB3LYP) =  -904.650457070     A.U. after    8 cycles
 SCF Done:  E(RB3LYP) =  -904.650457376     A.U. after    7 cycles
 Optimization completed.
    -- Stationary point found.
 Normal termination of Gaussian 16 at Wed Dec  9 23:19:44 2020.

 --------------------------------------------------------------------
 #N Geom=AllCheck Guess=TCheck SCRF=Check GenChk RB3LYP/6-31G(d) Freq
 --------------------------------------------------------------------

 Structure from the checkpoint file:  "JID_3457.chk"
 ------------------------------
 CID_80014025_JID_3457_neutraal
 ------------------------------
 Charge =  0 Multiplicity = 1

 SCF Done:  E(RB3LYP) =  -904.650457376     A.U. after    1 cycles

  Exact polarizability: 150.727  -2.030 123.555  -2.188   0.973 115.973
 Approx polarizability: 187.263  -5.933 171.020  -5.019   2.153 179.679

                      1                      2                      3
                      A                      A                      A
 Frequencies --     32.7185                41.5027                65.1258
 Red. masses --      3.4815                 3.3101                 2.8991
 Frc consts  --      0.0022                 0.0034                 0.0072
 IR Inten    --      0.0922                 0.0689                 0.1795

                      4                      5                      6
                      A                      A                      A
 Frequencies --     77.9417               123.1326               133.9529
 Red. masses --      3.4645                 2.3843                 3.7131
 Frc consts  --      0.0124                 0.0213                 0.0393
 IR Inten    --      0.2585                 1.7755                 0.9013

                      7                      8                      9
                      A                      A                      A
 Frequencies --    162.8167               206.2435               222.2354
 Red. masses --      2.3545                 1.6645                 2.5449
 Frc consts  --      0.0368                 0.0417                 0.0741
 IR Inten    --      2.0457                10.8528                 1.3740

                     10                     11                     12
                      A                      A                      A
 Frequencies --    234.3931               250.4193               313.3624
 Red. masses --      3.3312                 1.7698                 2.0459
 Frc consts  --      0.1078                 0.0654                 0.1184
 IR Inten    --      1.8213                11.5417                 0.0499

                     13                     14                     15
                      A                      A                      A
 Frequencies --    348.6774               357.8757               437.5785
 Red. masses --      2.1984                 2.4824                 2.8329
 Frc consts  --      0.1575                 0.1873                 0.3196
 IR Inten    --      0.0655                 1.7843                 2.4553

                     16                     17                     18
                      A                      A                      A
 Frequencies --    492.3261               511.6319               561.4437
 Red. masses --      2.6154                 2.2334                 2.0608
 Frc consts  --      0.3735                 0.3445                 0.3827
 IR Inten    --      1.7820                 1.6473                 3.1702

                     19                     20                     21
                      A                      A                      A
 Frequencies --    569.3598               658.6185               708.5599
 Red. masses --      3.3685                 2.5242                 2.5167
 Frc consts  --      0.6434                 0.6451                 0.7444
 IR Inten    --      0.5502                 4.4214                 4.8468

                     22                     23                     24
                      A                      A                      A
 Frequencies --    753.9985               780.6687               796.1674
 Red. masses --      1.6254                 1.4803                 1.7005
 Frc consts  --      0.5444                 0.5315                 0.6351
 IR Inten    --      4.4288                 1.0302                 3.9664

                     25                     26                     27
                      A                      A                      A
 Frequencies --    800.4830               852.8895               879.6062
 Red. masses --      1.3970                 1.8945                 1.9987
 Frc consts  --      0.5274                 0.8119                 0.9111
 IR Inten    --      2.0146                 1.5837                 0.1250

                     28                     29                     30
                      A                      A                      A
 Frequencies --    898.7408               909.6494               923.1692
 Red. masses --      1.6184                 2.0458                 2.4639
 Frc consts  --      0.7702                 0.9974                 1.2372
 IR Inten    --      2.8528                 0.5169                 0.9816

                     31                     32                     33
                      A                      A                      A
 Frequencies --    929.2191               933.6822               959.1938
 Red. masses --      1.9747                 2.4498                 1.3387
 Frc consts  --      1.0046                 1.2583                 0.7257
 IR Inten    --      3.4009                 1.4839                 1.5493

                     34                     35                     36
                      A                      A                      A
 Frequencies --    976.8244               989.7672              1001.9297
 Red. masses --      2.0896                 2.1925                 1.6002
 Frc consts  --      1.1748                 1.2655                 0.9465
 IR Inten    --      1.4508                 6.5337                12.4000

                     37                     38                     39
                      A                      A                      A
 Frequencies --   1027.2556              1046.3083              1072.0031
 Red. masses --      1.8109                 1.7691                 2.4860
 Frc consts  --      1.1259                 1.1411                 1.6832
 IR Inten    --      3.8696                 1.2405                20.0559

                     40                     41                     42
                      A                      A                      A
 Frequencies --   1076.7744              1098.7677              1126.0186
 Red. masses --      1.8685                 1.7045                 2.0710
 Frc consts  --      1.2764                 1.2124                 1.5471
 IR Inten    --      7.5541                 4.6157                 3.1358

                     43                     44                     45
                      A                      A                      A
 Frequencies --   1154.2368              1163.9571              1191.2345
 Red. masses --      2.2975                 2.5710                 2.8834
 Frc consts  --      1.8034                 2.0522                 2.4107
 IR Inten    --     47.4435                67.5548               160.4268

                     46                     47                     48
                      A                      A                      A
 Frequencies --   1206.5429              1222.5637              1243.3769
 Red. masses --      1.3752                 1.8217                 1.5280
 Frc consts  --      1.1795                 1.6042                 1.3918
 IR Inten    --      1.8345                 2.6731                 3.3570

                     49                     50                     51
                      A                      A                      A
 Frequencies --   1257.0744              1260.0210              1262.7414
 Red. masses --      1.2586                 1.3037                 1.2596
 Frc consts  --      1.1719                 1.2195                 1.1833
 IR Inten    --      0.7988                 6.0649                 4.4093

                     52                     53                     54
                      A                      A                      A
 Frequencies --   1273.7419              1277.9346              1288.4393
 Red. masses --      1.2805                 1.3231                 1.5042
 Frc consts  --      1.2241                 1.2731                 1.4712
 IR Inten    --      1.4310                 0.2279                 6.8031

                     55                     56                     57
                      A                      A                      A
 Frequencies --   1296.2710              1313.1403              1323.6476
 Red. masses --      1.3372                 1.3449                 1.3868
 Frc consts  --      1.3238                 1.3664                 1.4315
 IR Inten    --      3.2862                 2.0783                 2.5917

                     58                     59                     60
                      A                      A                      A
 Frequencies --   1324.8592              1347.6777              1367.4767
 Red. masses --      1.3564                 1.5234                 1.2654
 Frc consts  --      1.4027                 1.6302                 1.3941
 IR Inten    --      6.0521                 3.6111                 3.2627

                     61                     62                     63
                      A                      A                      A
 Frequencies --   1377.2331              1384.4937              1393.7528
 Red. masses --      1.3645                 1.5318                 1.2976
 Frc consts  --      1.5249                 1.7299                 1.4851
 IR Inten    --      4.6960                 8.1548                95.5560

                     64                     65                     66
                      A                      A                      A
 Frequencies --   1449.8960              1500.7786              1501.8562
 Red. masses --      1.4052                 1.0847                 1.0940
 Frc consts  --      1.7404                 1.4395                 1.4538
 IR Inten    --      3.2748                 4.4031                 0.5961

                     67                     68                     69
                      A                      A                      A
 Frequencies --   1515.4711              1515.8430              1520.5871
 Red. masses --      1.0900                 1.0856                 1.0832
 Frc consts  --      1.4750                 1.4697                 1.4756
 IR Inten    --      2.3030                 2.7748                 2.1363

                     70                     71                     72
                      A                      A                      A
 Frequencies --   1524.8219              1538.9208              1541.8192
 Red. masses --      1.0887                 1.1153                 1.1230
 Frc consts  --      1.4914                 1.5562                 1.5729
 IR Inten    --      4.9163                 8.8146                 3.7006

                     73                     74                     75
                      A                      A                      A
 Frequencies --   1550.4139              2682.8321              2970.8024
 Red. masses --      1.0965                 1.0384                 1.0590
 Frc consts  --      1.5529                 4.4034                 5.5069
 IR Inten    --      3.8764                17.1343                29.1936

                     76                     77                     78
                      A                      A                      A
 Frequencies --   2993.1774              3010.3537              3037.9510
 Red. masses --      1.0841                 1.1024                 1.0690
 Frc consts  --      5.7226                 5.8858                 5.8130
 IR Inten    --     65.8171                32.2130                30.8760

                     79                     80                     81
                      A                      A                      A
 Frequencies --   3055.9646              3056.9365              3068.4403
 Red. masses --      1.0605                 1.0622                 1.0635
 Frc consts  --      5.8354                 5.8486                 5.8996
 IR Inten    --     41.8110                18.6035                22.5445

                     82                     83                     84
                      A                      A                      A
 Frequencies --   3070.4122              3073.6490              3078.7775
 Red. masses --      1.0576                 1.0649                 1.0576
 Frc consts  --      5.8743                 5.9275                 5.9063
 IR Inten    --     35.1657                24.6526                35.5477

                     85                     86                     87
                      A                      A                      A
 Frequencies --   3082.1190              3094.8567              3096.7675
 Red. masses --      1.0628                 1.0970                 1.1012
 Frc consts  --      5.9486                 6.1905                 6.2219
 IR Inten    --     19.7193                23.3635                24.9743

                     88                     89                     90
                      A                      A                      A
 Frequencies --   3105.3025              3112.4526              3120.7435
 Red. masses --      1.1024                 1.1053                 1.1074
 Frc consts  --      6.2631                 6.3086                 6.3545
 IR Inten    --     22.6503                78.2448                16.0210

                     91                     92                     93
                      A                      A                      A
 Frequencies --   3129.4874              3141.4762              3144.8876
 Red. masses --      1.1093                 1.1083                 1.1001
 Frc consts  --      6.4008                 6.4445                 6.4105
 IR Inten    --     22.1568                58.7169                 6.1739

 - Thermochemistry -
 -------------------
 Temperature   298.150 Kelvin.  Pressure   1.00000 Atm.
 Atom     1 has atomic number  6 and mass  12.00000

 Molecular mass:   200.12349 amu.
 Principal axes and moments of inertia in atomic units:
                           1         2         3
     Eigenvalues --  1532.480855163.264065962.11770
           X            0.99985   0.01712  -0.00085
           Y           -0.01712   0.99985   0.00231
           Z            0.00089  -0.00230   1.00000
 This molecule is an asymmetric top.
 Rotational symmetry number  1.
 Warning -- assumption of classical behavior for rotation
           may cause significant error
 Rotational temperatures (Kelvin)      0.05652     0.01678     0.01453
 Rotational constants (GHZ):           1.17766     0.34953     0.30270
 Zero-point vibrational energy     774948.4 (Joules/Mol)
                                  185.21710 (Kcal/Mol)
 Warning -- explicit consideration of  19 degrees of freedom as
           vibrations may cause significant error
 Vibrational temperatures:     47.07    59.71    93.70   112.14   177.16
          (Kelvin)            192.73   234.26   296.74   319.75   337.24
                              360.30   450.86   501.67   514.90   629.58
                              708.35   736.12   807.79   819.18   947.61
                             1019.46  1084.84  1123.21  1145.51  1151.72
                             1227.12  1265.56  1293.09  1308.78  1328.23
                             1336.94  1343.36  1380.07  1405.43  1424.05
                             1441.55  1477.99  1505.40  1542.37  1549.24
                             1580.88  1620.09  1660.69  1674.67  1713.92
                             1735.95  1759.00  1788.94  1808.65  1812.89
                             1816.80  1832.63  1838.66  1853.78  1865.04
                             1889.32  1904.43  1906.18  1939.01  1967.49
                             1981.53  1991.98  2005.30  2086.08  2159.29
                             2160.84  2180.42  2180.96  2187.79  2193.88
                             2214.16  2218.33  2230.70  3860.00  4274.32
                             4306.51  4331.23  4370.93  4396.85  4398.25
                             4414.80  4417.64  4422.30  4429.67  4434.48
                             4452.81  4455.56  4467.84  4478.13  4490.05
                             4502.63  4519.88  4524.79

 Zero-point correction=                           0.295162 (Hartree/Particle)
 Thermal correction to Energy=                    0.309139
 Thermal correction to Enthalpy=                  0.310083
 Thermal correction to Gibbs Free Energy=         0.253048
 Sum of electronic and zero-point Energies=           -904.355295
 Sum of electronic and thermal Energies=              -904.341319
 Sum of electronic and thermal Enthalpies=            -904.340375
 Sum of electronic and thermal Free Energies=         -904.397409

                     E (Thermal)             CV                S
                      KCal/Mol        Cal/Mol-Kelvin    Cal/Mol-Kelvin
 Total                  193.987             53.076            120.039
 Electronic               0.000              0.000              0.000
 Translational            0.889              2.981             41.786
 Rotational               0.889              2.981             32.223
 Vibrational            192.210             47.114             46.030
 Vibration     1          0.594              1.983              5.657
 Vibration     2          0.594              1.981              5.186
 Vibration     3          0.597              1.971              4.296
 Vibration     4          0.599              1.964              3.942
 Vibration     5          0.610              1.930              3.051
 Vibration     6          0.613              1.919              2.888
 Vibration     7          0.623              1.888              2.517
 Vibration     8          0.641              1.831              2.077
 Vibration     9          0.648              1.807              1.941
 Vibration    10          0.654              1.788              1.845
 Vibration    11          0.663              1.762              1.728
 Vibration    12          0.701              1.648              1.345
 Vibration    13          0.726              1.578              1.172
 Vibration    14          0.733              1.559              1.131
 Vibration    15          0.798              1.388              0.834
 Vibration    16          0.848              1.267              0.678
 Vibration    17          0.867              1.224              0.630
 Vibration    18          0.917              1.115              0.521
 Vibration    19          0.925              1.098              0.505

                           ! Non-Optimized Parameters !
 Normal termination of Gaussian 16 at Wed Dec  9 23:28:42 2020.

 ----------------------------------------------------------------------
 # B3LYP/6-311++G(d,p) empiricaldispersion=gd3bj scf=xqc pop=npa geom=c
 heck
 ----------------------------------------------------------------------

 --------------------------------------
 CID_80014025_JID_3457_Energie_neutraal
 --------------------------------------
 Structure from the checkpoint file:  "JID_3457.chk"
 Charge =  0 Multiplicity = 1

 SCF Done:  E(RB3LYP) =  -904.819644107     A.U. after   14 cycles
 Normal termination of Gaussian 16 at Wed Dec  9 23:33:10 2020.

 ----------------------------------------------------------------------
 # B3LYP/6-311++G(d,p) empiricaldispersion=gd3bj scf=xqc pop=npa geom=c
 heck
 ----------------------------------------------------------------------

 ------------------------------------
 CID_80014025_JID_3457_Energie_kation
 ------------------------------------
 Structure from the checkpoint file:  "JID_3457.chk"
 Charge =  1 Multiplicity = 2

 SCF Done:  E(UB3LYP) =  -904.511374093     A.U. after   23 cycles
 Normal termination of Gaussian 16 at Wed Dec  9 23:43:32 2020.
 Gaussian 16:  ES64L-G16RevA.03 25-Dec-2016

 ----------------------------------------------------------------------
 # B3LYP/6-311++G(d,p) empiricaldispersion=gd3bj scf=xqc pop=npa geom=c
 heck
 ----------------------------------------------------------------------

 -----------------------------------
 CID_80014025_JID_3457_Energie_anion
 -----------------------------------
 Structure from the checkpoint file:  "JID_3457.chk"
 Charge = -1 Multiplicity = 2

                         Standard orientation:
 ---------------------------------------------------------------------
 Center     Atomic      Atomic             Coordinates (Angstroms)
 Number     Number       Type             X           Y           Z
 ---------------------------------------------------------------------
      1          6           0        2.198070    1.690105   -1.164550
      2          6           0        2.143036    2.298558    0.243413
      3          6           0        1.919203    1.069370    1.138426
      4          6           0        0.992892    0.121133    0.324071
      5          6           0        1.065098    0.650319   -1.144286
      6          6           0       -0.440095    0.249034    0.855143
      7          8           0       -1.316729   -0.491861    0.024327
      8          6           0       -2.665950   -0.391834    0.408607
      9          6           0       -3.427208    0.936009    0.142836
     10          6           0       -4.629044    0.075965   -0.334296
     11          6           0       -3.650366   -1.114254   -0.526922
     12          6           0        1.397081   -1.359458    0.456396
     13         16           0        3.077648   -1.817097   -0.143267
     14          1           0        3.164388    1.191426   -1.306615
     15          1           0        2.082616    2.429461   -1.964533
     16          1           0        3.044167    2.860167    0.511163
     17          1           0        1.291403    2.988261    0.319674
     18          1           0        1.492006    1.320450    2.116787
     19          1           0        2.878563    0.573197    1.318453
     20          1           0        0.111668    1.121792   -1.405333
     21          1           0        1.211314   -0.154970   -1.871238
     22          1           0       -0.499781   -0.121237    1.893502
     23          1           0       -0.732337    1.311490    0.867467
     24          1           0       -2.788327   -0.711676    1.456234
     25          1           0       -3.581497    1.628104    0.976007
     26          1           0       -2.960099    1.469801   -0.691759
     27          1           0       -5.178542    0.423267   -1.213052
     28          1           0       -5.343854   -0.108915    0.473605
     29          1           0       -3.238964   -1.136161   -1.540906
     30          1           0       -3.981307   -2.119020   -0.249454
     31          1           0        1.412245   -1.642171    1.515155
     32          1           0        0.659922   -1.994494   -0.038542
     33          1           0        2.831594   -1.670016   -1.461987
 ---------------------------------------------------------------------

 SCF Done:  E(UB3LYP) =  -904.804080778     A.U. after   32 cycles

 The electronic state is 2-A.
 Alpha  occ. eigenvalues --  -88.74529 -19.02683 -10.12110 -10.11603 -10.10122
 Alpha  occ. eigenvalues --  -10.08806 -10.07231 -10.06918 -10.06576 -10.06474
 Alpha  occ. eigenvalues --  -10.06398 -10.06315 -10.06249  -7.83221  -5.79591
 Alpha  occ. eigenvalues --   -5.79247  -5.78609  -0.94389  -0.75785  -0.74123
 Alpha  occ. eigenvalues --   -0.68584  -0.64148  -0.61215  -0.57441  -0.56146
 Alpha  occ. eigenvalues --   -0.54095  -0.52794  -0.47837  -0.45804  -0.43617
 Alpha  occ. eigenvalues --   -0.41546  -0.39349  -0.38362  -0.37842  -0.35365
 Alpha  occ. eigenvalues --   -0.35209  -0.33353  -0.32550  -0.30807  -0.29957
 Alpha  occ. eigenvalues --   -0.29136  -0.27381  -0.25660  -0.24485  -0.24247
 Alpha  occ. eigenvalues --   -0.24137  -0.23658  -0.23568  -0.23018  -0.22382
 Alpha  occ. eigenvalues --   -0.21826  -0.20988  -0.20611  -0.16026  -0.14348
 Alpha  occ. eigenvalues --    0.04521
 Alpha virt. eigenvalues --    0.06385   0.07046   0.07140   0.08319   0.08484
 Alpha virt. eigenvalues --    0.08571   0.09531   0.10282   0.10451   0.10806
 Alpha virt. eigenvalues --    0.11251   0.11386   0.12093   0.12595   0.13116

  Beta  occ. eigenvalues --  -88.74518 -19.02673 -10.12098 -10.11585 -10.10111
  Beta  occ. eigenvalues --  -10.08806 -10.07208 -10.06906 -10.06551 -10.06455
  Beta  occ. eigenvalues --  -10.06382 -10.06301 -10.06230  -7.83209  -5.79566
  Beta  occ. eigenvalues --   -5.79240  -5.78601  -0.94369  -0.75765  -0.74098
  Beta  occ. eigenvalues --   -0.68554  -0.64114  -0.61177  -0.57397  -0.56096
  Beta  occ. eigenvalues --   -0.54042  -0.52740  -0.47780  -0.45741  -0.43574
  Beta  occ. eigenvalues --   -0.41517  -0.39283  -0.38321  -0.37808  -0.35341
  Beta  occ. eigenvalues --   -0.35179  -0.33321  -0.32516  -0.30778  -0.29911
  Beta  occ. eigenvalues --   -0.29110  -0.27343  -0.25624  -0.24453  -0.24213
  Beta  occ. eigenvalues --   -0.24102  -0.23625  -0.23537  -0.22983  -0.22351
  Beta  occ. eigenvalues --   -0.21796  -0.20950  -0.20573  -0.16001  -0.14322
  Beta virt. eigenvalues --    0.06574   0.07119   0.07671   0.07746   0.08670
  Beta virt. eigenvalues --    0.08883   0.09044   0.09908   0.10574   0.10694
  Beta virt. eigenvalues --    0.11178   0.11498   0.11726   0.12329   0.12736

 Mulliken charges and spin densities:
               1          2
     1  C    0.093044  -0.444384
     2  C    0.534478  -0.991088
     3  C   -0.150931  -0.348243
     4  C   -0.791712   2.444867
     5  C   -0.365753  -0.169295
     6  C    0.535418  -1.752280
     7  O    0.053721   0.003193
     8  C   -0.950444   0.981999
     9  C    0.852538  -1.134785
    10  C   -0.170047  -0.160458
    11  C    1.190091  -1.491475
    12  C   -0.279091  -0.363511
    13  S    0.140590  -0.269989
    14  H    0.151041  -0.048848
    15  H   -0.334866   0.506442
    16  H   -0.205537   0.383755
    17  H   -0.023886   0.148548
    18  H   -0.340207   0.518718
    19  H   -0.042756   0.154814
    20  H    0.176133  -0.024929
    21  H   -0.122165   0.295733
    22  H   -0.184698   0.322307
    23  H    0.129065   0.050684
    24  H   -0.177225   0.333327
    25  H   -0.301271   0.446852
    26  H   -0.087681   0.226439
    27  H   -0.082360   0.228625
    28  H   -0.188499   0.332094
    29  H    0.043206   0.090713
    30  H   -0.105325   0.249143
    31  H   -0.043856   0.267193
    32  H    0.174839   0.032144
    33  H   -0.125852   0.181693
 Sum of Mulliken charges =  -1.00000   1.00000

 Dipole moment (field-independent basis, Debye):
    X=              2.5633    Y=             -1.9256    Z=             -1.8641  Tot=              3.7085
 Quadrupole moment (field-independent basis, Debye-Ang):
   XX=           -167.6098   YY=           -134.9976   ZZ=           -128.4713
   XY=              0.3531   XZ=              3.9002   YZ=             -1.0883

 Summary of Natural Population Analysis:

                                       Natural Population
                Natural  -----------------------------------------------
    Atom  No    Charge         Core      Valence    Rydberg      Total
 -----------------------------------------------------------------------
      C    1   -0.19331      0.99963     2.18543    0.00824     3.19331
      C    2   -0.19017      0.99963     2.18257    0.00796     3.19017
      C    3   -0.19233      0.99959     2.18273    0.01000     3.19233
      C    4   -0.05682      0.99954     2.04127    0.01602     3.05682
      C    5   -0.18822      0.99959     2.17850    0.01013     3.18822
      C    6   -0.00414      0.99949     1.99127    0.01338     3.00414
      O    7   -0.30308      0.99986     3.29401    0.00920     4.30308
      C    8    0.06729      0.99953     1.91760    0.01559     2.93271
      C    9   -0.20261      0.99963     2.19456    0.00843     3.20261
      C   10   -0.19124      0.99965     2.18381    0.00777     3.19124
      C   11   -0.19188      0.99963     2.18461    0.00765     3.19188
      C   12   -0.23574      0.99950     2.22662    0.00962     3.23574
      S   13   -0.03028      4.99966     3.01581    0.01480     8.03028
      H   14    0.09530      0.00000     0.40314    0.00156     0.40470
      H   15    0.09822      0.00000     0.40080    0.00098     0.40178
      H   16    0.09831      0.00000     0.40076    0.00093     0.40169
      H   17    0.09441      0.00000     0.40399    0.00159     0.40559
      H   18    0.10214      0.00000     0.39659    0.00127     0.39786
      H   19    0.10358      0.00000     0.39490    0.00152     0.39642
      H   20    0.10317      0.00000     0.39515    0.00168     0.39683
      H   21    0.10005      0.00000     0.39880    0.00115     0.39995
      H   22    0.08266      0.00000     0.41539    0.00195     0.41734
      H   23    0.08662      0.00000     0.41115    0.00222     0.41338
      H   24    0.08089      0.00000     0.41717    0.00194     0.41911
      H   25    0.10034      0.00000     0.39795    0.00171     0.39966
      H   26    0.09985      0.00000     0.39856    0.00159     0.40015
      H   27    0.09595      0.00000     0.40308    0.00098     0.40405
      H   28    0.09721      0.00000     0.40116    0.00163     0.40279
      H   29    0.10047      0.00000     0.39777    0.00175     0.39953
      H   30    0.09669      0.00000     0.40207    0.00124     0.40331
      H   31    0.10497      0.00000     0.39380    0.00123     0.39503
      H   32    0.11247      0.00000     0.38589    0.00165     0.38753
      H   33    0.05922      0.00000     0.43781    0.00298     0.44078
 =======================================================================
   * Total *    0.00000     16.99495    37.83473    0.17033    55.00000

 Normal termination of Gaussian 16 at Wed Dec  9 23:57:38 2020.
