 Gaussian 16, Revision A.03,

 -----------------------------------------------------------
 # opt freq B3LYP/6-31G(d) empiricaldispersion=gd3bj scf=xqc
 -----------------------------------------------------------

 -------------------------------
 CID_136997495_JID_5805_neutraal
 -------------------------------
 Symbolic Z-matrix:
 Charge =  0 Multiplicity = 1

 SCF Done:  E(RB3LYP) =  -706.062287951     A.U. after   15 cycles
 SCF Done:  E(RB3LYP) =  -706.072357617     A.U. after   12 cycles
 SCF Done:  E(RB3LYP) =  -706.073323746     A.U. after   12 cycles
 SCF Done:  E(RB3LYP) =  -706.073941833     A.U. after   12 cycles
 SCF Done:  E(RB3LYP) =  -706.074515334     A.U. after   12 cycles
 SCF Done:  E(RB3LYP) =  -706.074617178     A.U. after   11 cycles
 SCF Done:  E(RB3LYP) =  -706.074726871     A.U. after   11 cycles
 SCF Done:  E(RB3LYP) =  -706.074757617     A.U. after   10 cycles
 SCF Done:  E(RB3LYP) =  -706.074769249     A.U. after   10 cycles
 SCF Done:  E(RB3LYP) =  -706.074770660     A.U. after    8 cycles
 SCF Done:  E(RB3LYP) =  -706.074770755     A.U. after    8 cycles
 SCF Done:  E(RB3LYP) =  -706.074770849     A.U. after    6 cycles
 Optimization completed.
    -- Stationary point found.
 Normal termination of Gaussian 16 at Thu Dec 10 17:03:18 2020.

 --------------------------------------------------------------------
 #N Geom=AllCheck Guess=TCheck SCRF=Check GenChk RB3LYP/6-31G(d) Freq
 --------------------------------------------------------------------

 Structure from the checkpoint file:  "JID_5805.chk"
 -------------------------------
 CID_136997495_JID_5805_neutraal
 -------------------------------
 Charge =  0 Multiplicity = 1

 SCF Done:  E(RB3LYP) =  -706.074770849     A.U. after    1 cycles

  Exact polarizability: 153.599  -1.488 113.019  -5.476  16.948 123.986
 Approx polarizability: 200.193  -1.595 167.612  -6.862  51.112 214.102

                      1                      2                      3
                      A                      A                      A
 Frequencies --     23.7433                60.1350                72.0850
 Red. masses --      4.4956                 4.0711                 3.3705
 Frc consts  --      0.0015                 0.0087                 0.0103
 IR Inten    --      1.0381                 1.4651                 0.8109

                      4                      5                      6
                      A                      A                      A
 Frequencies --     87.4721               114.1651               138.9894
 Red. masses --      2.6819                 2.3341                 3.8836
 Frc consts  --      0.0121                 0.0179                 0.0442
 IR Inten    --      0.5085                 0.4195                 0.6885

                      7                      8                      9
                      A                      A                      A
 Frequencies --    173.3654               201.7995               207.1590
 Red. masses --      5.2408                 5.9966                 1.8070
 Frc consts  --      0.0928                 0.1439                 0.0457
 IR Inten    --      0.8389                11.5326                 0.7626

                     10                     11                     12
                      A                      A                      A
 Frequencies --    217.3700               230.0541               235.7826
 Red. masses --      1.5740                 1.4010                 1.1066
 Frc consts  --      0.0438                 0.0437                 0.0362
 IR Inten    --      1.3530                 0.7005                 0.0675

                     13                     14                     15
                      A                      A                      A
 Frequencies --    272.2305               296.5826               347.2581
 Red. masses --      2.5374                 2.9383                 2.8787
 Frc consts  --      0.1108                 0.1523                 0.2045
 IR Inten    --      3.8616                 4.0114                 1.9317

                     16                     17                     18
                      A                      A                      A
 Frequencies --    367.6311               395.4209               400.9793
 Red. masses --      2.7407                 3.3732                 1.6853
 Frc consts  --      0.2182                 0.3107                 0.1597
 IR Inten    --     14.2252                19.4403               198.7501

                     19                     20                     21
                      A                      A                      A
 Frequencies --    408.9921               438.7925               463.1881
 Red. masses --      2.0321                 2.5138                 1.1227
 Frc consts  --      0.2003                 0.2852                 0.1419
 IR Inten    --     86.8461                 1.6564                39.3638

                     22                     23                     24
                      A                      A                      A
 Frequencies --    514.1253               526.1640               564.4569
 Red. masses --      4.8098                 4.2575                 3.9097
 Frc consts  --      0.7491                 0.6945                 0.7339
 IR Inten    --      4.4323                 4.6198                15.2117

                     25                     26                     27
                      A                      A                      A
 Frequencies --    578.0631               640.7640               679.3480
 Red. masses --      6.5623                 1.8184                 3.1320
 Frc consts  --      1.2920                 0.4399                 0.8516
 IR Inten    --      1.7015                49.1681                24.4202

                     28                     29                     30
                      A                      A                      A
 Frequencies --    734.1079               742.2200               796.0502
 Red. masses --      2.8369                 3.1189                 1.7638
 Frc consts  --      0.9008                 1.0123                 0.6585
 IR Inten    --     24.6012                 1.2298                 3.9670

                     31                     32                     33
                      A                      A                      A
 Frequencies --    816.3004               822.7330               838.6480
 Red. masses --      1.8183                 2.0290                 2.6067
 Frc consts  --      0.7139                 0.8092                 1.0802
 IR Inten    --     46.6946                 5.1449                 4.4958

                     34                     35                     36
                      A                      A                      A
 Frequencies --    873.1252               928.5523               948.0433
 Red. masses --      2.2963                 2.4924                 1.2714
 Frc consts  --      1.0314                 1.2662                 0.6733
 IR Inten    --      7.6924                 4.6051                 3.5556

                     37                     38                     39
                      A                      A                      A
 Frequencies --    965.9847               984.0074               993.3760
 Red. masses --      2.3556                 1.6401                 3.9978
 Frc consts  --      1.2951                 0.9356                 2.3243
 IR Inten    --     33.8436                 2.2053                20.3325

                     40                     41                     42
                      A                      A                      A
 Frequencies --   1012.5405              1048.5352              1100.1530
 Red. masses --      2.8693                 2.5820                 2.3640
 Frc consts  --      1.7332                 1.6725                 1.6858
 IR Inten    --     10.9794                 0.5635                27.3091

                     43                     44                     45
                      A                      A                      A
 Frequencies --   1110.7774              1136.9522              1151.9839
 Red. masses --      1.5012                 2.1946                 3.2979
 Frc consts  --      1.0913                 1.6714                 2.5786
 IR Inten    --     14.3115                18.7896               143.0217

                     46                     47                     48
                      A                      A                      A
 Frequencies --   1180.5140              1205.9406              1209.4520
 Red. masses --      2.4705                 1.7111                 1.7952
 Frc consts  --      2.0285                 1.4661                 1.5472
 IR Inten    --     18.6389                12.4591                 9.4612

                     49                     50                     51
                      A                      A                      A
 Frequencies --   1238.3267              1276.6784              1312.2415
 Red. masses --      2.5793                 1.9050                 2.8557
 Frc consts  --      2.3304                 1.8294                 2.8973
 IR Inten    --     26.3124                15.1989                40.9998

                     52                     53                     54
                      A                      A                      A
 Frequencies --   1318.0287              1348.5388              1357.6807
 Red. masses --      1.5136                 1.1206                 1.3374
 Frc consts  --      1.5492                 1.2007                 1.4525
 IR Inten    --     23.9028                 6.5895                 1.8561

                     55                     56                     57
                      A                      A                      A
 Frequencies --   1393.2373              1413.3282              1421.7262
 Red. masses --      1.3454                 1.2652                 1.2272
 Frc consts  --      1.5387                 1.4890                 1.4615
 IR Inten    --      1.4842                 0.8373                 4.1074

                     58                     59                     60
                      A                      A                      A
 Frequencies --   1429.0798              1442.2724              1451.1038
 Red. masses --      1.2463                 1.2812                 1.2266
 Frc consts  --      1.4997                 1.5702                 1.5218
 IR Inten    --      2.3306                27.9410                 7.4961

                     61                     62                     63
                      A                      A                      A
 Frequencies --   1468.9849              1500.1233              1518.5359
 Red. masses --      3.5595                 2.8120                 1.0690
 Frc consts  --      4.5256                 3.7283                 1.4524
 IR Inten    --    150.2891                20.7699                 1.1734

                     64                     65                     66
                      A                      A                      A
 Frequencies --   1519.6792              1520.2847              1522.8029
 Red. masses --      1.0541                 1.0463                 1.0641
 Frc consts  --      1.4343                 1.4248                 1.4538
 IR Inten    --      1.5832                 4.8969                 1.8762

                     67                     68                     69
                      A                      A                      A
 Frequencies --   1534.5417              1541.5255              1544.1105
 Red. masses --      1.0502                 1.0795                 1.0577
 Frc consts  --      1.4570                 1.5114                 1.4858
 IR Inten    --      3.9565                 1.6199                 8.8061

                     70                     71                     72
                      A                      A                      A
 Frequencies --   1608.8088              1658.1961              1682.8607
 Red. masses --      3.4037                 2.3392                 2.5222
 Frc consts  --      5.1905                 3.7895                 4.2085
 IR Inten    --    130.7586                39.3479               479.4564

                     73                     74                     75
                      A                      A                      A
 Frequencies --   1806.2144              3023.1254              3046.9973
 Red. masses --      8.7758                 1.0812                 1.0651
 Frc consts  --     16.8684                 5.8220                 5.8263
 IR Inten    --    646.4996                20.5698                39.8087

                     76                     77                     78
                      A                      A                      A
 Frequencies --   3048.4041              3052.7296              3058.7011
 Red. masses --      1.0383                 1.0394                 1.0366
 Frc consts  --      5.6851                 5.7069                 5.7139
 IR Inten    --     18.5072                28.9723                13.7733

                     79                     80                     81
                      A                      A                      A
 Frequencies --   3081.1038              3099.3103              3111.2762
 Red. masses --      1.0852                 1.0996                 1.1006
 Frc consts  --      6.0698                 6.2234                 6.2771
 IR Inten    --     22.7355                11.3746                 6.6899

                     82                     83                     84
                      A                      A                      A
 Frequencies --   3117.5125              3125.2263              3127.7318
 Red. masses --      1.0999                 1.0999                 1.1024
 Frc consts  --      6.2985                 6.3295                 6.3539
 IR Inten    --     46.8520                44.0020                33.5979

                     85                     86                     87
                      A                      A                      A
 Frequencies --   3138.2109              3154.8358              3230.7234
 Red. masses --      1.1036                 1.0992                 1.0917
 Frc consts  --      6.4035                 6.4456                 6.7138
 IR Inten    --     47.5993                18.9340                 4.9525

                     88                     89                     90
                      A                      A                      A
 Frequencies --   3592.6137              3606.3820              3710.1131
 Red. masses --      1.0462                 1.0771                 1.1026
 Frc consts  --      7.9556                 8.2539                 8.9418
 IR Inten    --     63.6174                32.4505                31.5492

 - Thermochemistry -
 -------------------
 Temperature   298.150 Kelvin.  Pressure   1.00000 Atm.
 Atom     1 has atomic number  6 and mass  12.00000

 Molecular mass:   211.13208 amu.
 Principal axes and moments of inertia in atomic units:
                           1         2         3
     Eigenvalues --  2213.712634504.410104590.29738
           X            0.99966  -0.01885  -0.01804
           Y            0.00667   0.85312  -0.52167
           Z            0.02523   0.52137   0.85296
 This molecule is an asymmetric top.
 Rotational symmetry number  1.
 Warning -- assumption of classical behavior for rotation
           may cause significant error
 Rotational temperatures (Kelvin)      0.03913     0.01923     0.01887
 Rotational constants (GHZ):           0.81526     0.40066     0.39316
 Zero-point vibrational energy     720211.9 (Joules/Mol)
                                  172.13477 (Kcal/Mol)
 Warning -- explicit consideration of  25 degrees of freedom as
           vibrations may cause significant error
 Vibrational temperatures:     34.16    86.52   103.71   125.85   164.26
          (Kelvin)            199.97   249.43   290.34   298.06   312.75
                              331.00   339.24   391.68   426.72   499.63
                              528.94   568.92   576.92   588.45   631.32
                              666.42   739.71   757.03   812.13   831.70
                              921.92   977.43  1056.22  1067.89  1145.34
                             1174.47  1183.73  1206.63  1256.23  1335.98
                             1364.02  1389.84  1415.77  1429.25  1456.82
                             1508.61  1582.87  1598.16  1635.82  1657.45
                             1698.50  1735.08  1740.13  1781.68  1836.86
                             1888.02  1896.35  1940.25  1953.40  2004.56
                             2033.46  2045.55  2056.13  2075.11  2087.81
                             2113.54  2158.34  2184.83  2186.48  2187.35
                             2190.97  2207.86  2217.91  2221.63  2314.72
                             2385.77  2421.26  2598.74  4349.60  4383.95
                             4385.97  4392.20  4400.79  4433.02  4459.22
                             4476.43  4485.41  4496.50  4500.11  4515.19
                             4539.11  4648.29  5168.97  5188.78  5338.03

 Zero-point correction=                           0.274314 (Hartree/Particle)
 Thermal correction to Energy=                    0.290232
 Thermal correction to Enthalpy=                  0.291176
 Thermal correction to Gibbs Free Energy=         0.231041
 Sum of electronic and zero-point Energies=           -705.800457
 Sum of electronic and thermal Energies=              -705.784539
 Sum of electronic and thermal Enthalpies=            -705.783595
 Sum of electronic and thermal Free Energies=         -705.843730

                     E (Thermal)             CV                S
                      KCal/Mol        Cal/Mol-Kelvin    Cal/Mol-Kelvin
 Total                  182.123             59.917            126.564
 Electronic               0.000              0.000              0.000
 Translational            0.889              2.981             41.946
 Rotational               0.889              2.981             32.193
 Vibrational            180.346             53.955             52.426
 Vibration     1          0.593              1.985              6.294
 Vibration     2          0.597              1.973              4.453
 Vibration     3          0.598              1.967              4.096
 Vibration     4          0.601              1.958              3.716
 Vibration     5          0.607              1.938              3.197
 Vibration     6          0.615              1.914              2.818
 Vibration     7          0.627              1.875              2.399
 Vibration     8          0.639              1.837              2.117
 Vibration     9          0.641              1.830              2.069
 Vibration    10          0.646              1.815              1.981
 Vibration    11          0.652              1.795              1.879
 Vibration    12          0.655              1.786              1.834
 Vibration    13          0.675              1.724              1.582
 Vibration    14          0.690              1.680              1.436
 Vibration    15          0.725              1.581              1.179
 Vibration    16          0.740              1.539              1.090
 Vibration    17          0.762              1.480              0.980
 Vibration    18          0.767              1.468              0.959
 Vibration    19          0.773              1.451              0.930
 Vibration    20          0.799              1.386              0.830
 Vibration    21          0.821              1.332              0.757
 Vibration    22          0.869              1.219              0.624
 Vibration    23          0.881              1.192              0.596
 Vibration    24          0.920              1.108              0.515
 Vibration    25          0.935              1.079              0.489

 Optimization completed.
    -- Stationary point found.
 Normal termination of Gaussian 16 at Thu Dec 10 17:14:00 2020.

 ----------------------------------------------------------------------
 # B3LYP/6-311++G(d,p) empiricaldispersion=gd3bj scf=xqc pop=npa geom=c
 heck
 ----------------------------------------------------------------------

 ---------------------------------------
 CID_136997495_JID_5805_Energie_neutraal
 ---------------------------------------
 Structure from the checkpoint file:  "JID_5805.chk"
 Charge =  0 Multiplicity = 1

 SCF Done:  E(RB3LYP) =  -706.285605463     A.U. after   16 cycles
 Normal termination of Gaussian 16 at Thu Dec 10 17:19:53 2020.

 ----------------------------------------------------------------------
 # B3LYP/6-311++G(d,p) empiricaldispersion=gd3bj scf=xqc pop=npa geom=c
 heck
 ----------------------------------------------------------------------

 -------------------------------------
 CID_136997495_JID_5805_Energie_kation
 -------------------------------------
 Structure from the checkpoint file:  "JID_5805.chk"
 Charge =  1 Multiplicity = 2

 SCF Done:  E(UB3LYP) =  -705.982615023     A.U. after   25 cycles
 Normal termination of Gaussian 16 at Thu Dec 10 17:33:02 2020.
 Gaussian 16:  ES64L-G16RevA.03 25-Dec-2016

 ----------------------------------------------------------------------
 # B3LYP/6-311++G(d,p) empiricaldispersion=gd3bj scf=xqc pop=npa geom=c
 heck
 ----------------------------------------------------------------------

 ------------------------------------
 CID_136997495_JID_5805_Energie_anion
 ------------------------------------
 Structure from the checkpoint file:  "JID_5805.chk"
 Charge = -1 Multiplicity = 2

                         Standard orientation:
 ---------------------------------------------------------------------
 Center     Atomic      Atomic             Coordinates (Angstroms)
 Number     Number       Type             X           Y           Z
 ---------------------------------------------------------------------
      1          6           0       -1.972061    2.501490   -0.277342
      2          6           0       -1.262593    1.717403   -1.378547
      3          8           0       -1.654196    0.350973   -1.488832
      4          6           0       -1.160019   -0.617036   -0.560787
      5          6           0        0.300862   -0.367550   -0.208792
      6          7           0        1.214109   -0.830485   -1.015497
      7          6           0        2.528422   -0.540782   -0.708051
      8          6           0        2.912643    0.190437    0.398387
      9          6           0        1.928193    0.702844    1.300599
     10          8           0        2.082231    1.359488    2.323606
     11          7           0        0.601150    0.363501    0.891847
     12          7           0        3.418525   -1.022735   -1.629474
     13          6           0       -2.089943   -0.829161    0.652702
     14          6           0       -3.532078   -1.034671    0.177116
     15          6           0       -1.613628   -2.026069    1.488213
     16          1           0       -3.056639    2.373560   -0.351797
     17          1           0       -1.741824    3.568527   -0.376852
     18          1           0       -1.658690    2.194332    0.725096
     19          1           0       -1.524948    2.142482   -2.352293
     20          1           0       -0.173253    1.803949   -1.273487
     21          1           0       -1.153986   -1.549153   -1.135469
     22          1           0        3.953546    0.398889    0.615278
     23          1           0       -0.128197    0.694415    1.511276
     24          1           0        4.389727   -1.105217   -1.368166
     25          1           0        3.058666   -1.726442   -2.258621
     26          1           0       -2.077767    0.068816    1.286696
     27          1           0       -3.608514   -1.940691   -0.437112
     28          1           0       -4.205027   -1.151347    1.033360
     29          1           0       -3.872830   -0.191809   -0.427664
     30          1           0       -0.603922   -1.883738    1.886598
     31          1           0       -2.287141   -2.194083    2.335001
     32          1           0       -1.608756   -2.939573    0.880839
 ---------------------------------------------------------------------

 SCF Done:  E(UB3LYP) =  -706.278959906     A.U. after   33 cycles
 SCF Done:  E(UB3LYP) =  -706.278959906     a.u. after    1 cycles

 The electronic state is 2-A.
 Alpha  occ. eigenvalues --  -19.01560 -18.95501 -14.22753 -14.20374 -14.17314
 Alpha  occ. eigenvalues --  -10.14353 -10.11776 -10.11728 -10.11718 -10.11151
 Alpha  occ. eigenvalues --  -10.08090 -10.07105 -10.06558 -10.05937 -10.02665
 Alpha  occ. eigenvalues --   -0.92881  -0.91088  -0.85887  -0.81119  -0.74530
 Alpha  occ. eigenvalues --   -0.71239  -0.66199  -0.64395  -0.59150  -0.58956
 Alpha  occ. eigenvalues --   -0.53742  -0.51847  -0.49602  -0.46955  -0.44054
 Alpha  occ. eigenvalues --   -0.42127  -0.40098  -0.39430  -0.36831  -0.35647
 Alpha  occ. eigenvalues --   -0.35355  -0.34343  -0.32988  -0.32084  -0.31019
 Alpha  occ. eigenvalues --   -0.30023  -0.29317  -0.28990  -0.28887  -0.28586
 Alpha  occ. eigenvalues --   -0.26772  -0.25668  -0.25249  -0.24476  -0.23469
 Alpha  occ. eigenvalues --   -0.21898  -0.20543  -0.16257  -0.15222  -0.13910
 Alpha  occ. eigenvalues --   -0.13428  -0.09893   0.04799
 Alpha virt. eigenvalues --    0.06218   0.07200   0.07678   0.08683   0.09077
 Alpha virt. eigenvalues --    0.10188   0.10385   0.10726   0.11255   0.12219
 Alpha virt. eigenvalues --    0.12463   0.12798   0.13339   0.14125   0.14280

  Beta  occ. eigenvalues --  -19.01484 -18.95512 -14.22594 -14.20303 -14.17335
  Beta  occ. eigenvalues --  -10.14369 -10.11795 -10.11723 -10.11540 -10.10714
  Beta  occ. eigenvalues --  -10.08081 -10.07098 -10.06555 -10.05912 -10.02563
  Beta  occ. eigenvalues --   -0.92704  -0.91010  -0.85593  -0.80860  -0.74333
  Beta  occ. eigenvalues --   -0.71186  -0.66149  -0.64108  -0.58998  -0.58909
  Beta  occ. eigenvalues --   -0.53375  -0.51686  -0.49493  -0.46864  -0.43916
  Beta  occ. eigenvalues --   -0.41982  -0.39873  -0.39232  -0.36767  -0.35585
  Beta  occ. eigenvalues --   -0.35259  -0.34224  -0.32829  -0.31602  -0.30958
  Beta  occ. eigenvalues --   -0.29911  -0.29232  -0.28945  -0.28855  -0.28500
  Beta  occ. eigenvalues --   -0.26748  -0.25253  -0.25102  -0.24422  -0.23400
  Beta  occ. eigenvalues --   -0.21005  -0.20398  -0.16207  -0.15131  -0.13387
  Beta  occ. eigenvalues --   -0.13347  -0.09244
  Beta virt. eigenvalues --    0.06674   0.07737   0.07950   0.08636   0.09208
  Beta virt. eigenvalues --    0.10097   0.10330   0.10534   0.10899   0.11276
  Beta virt. eigenvalues --    0.12433   0.12596   0.13072   0.13413   0.14088

 Mulliken charges and spin densities:
               1          2
     1  C   -0.115920  -0.359713
     2  C   -0.361491   0.201240
     3  O   -0.067849  -0.008262
     4  C   -0.042017  -0.305576
     5  C   -0.638789  -0.011021
     6  N    0.019700  -0.080195
     7  C    0.208911  -0.046026
     8  C    0.407529  -0.145001
     9  C   -0.109685  -0.047467
    10  O   -0.406545  -0.001871
    11  N   -0.014028   0.058584
    12  N   -0.358450   0.049641
    13  C   -0.381060   0.808616
    14  C    0.431038  -0.968478
    15  C   -0.598301  -0.019723
    16  H    0.040133   0.112976
    17  H    0.114171   0.010808
    18  H    0.107827   0.024421
    19  H    0.092790   0.077667
    20  H    0.204694  -0.007890
    21  H    0.220355   0.027851
    22  H    0.098132   0.062021
    23  H    0.264693   0.020680
    24  H   -0.311140   0.570943
    25  H    0.109595   0.136648
    26  H    0.100845  -0.013701
    27  H   -0.014693   0.145501
    28  H   -0.375787   0.506360
    29  H    0.000159   0.132325
    30  H    0.165969   0.002797
    31  H    0.089318   0.062071
    32  H    0.119897   0.003773
 Sum of Mulliken charges =  -1.00000   1.00000

 Dipole moment (field-independent basis, Debye):
    X=             -4.2800    Y=              0.7753    Z=             -0.8143  Tot=              4.4253
 Quadrupole moment (field-independent basis, Debye-Ang):
   XX=           -166.7704   YY=           -112.0581   ZZ=           -124.7127
   XY=             -1.5370   XZ=             -1.7190   YZ=             -8.2656

 Summary of Natural Population Analysis:

                                       Natural Population
                Natural  -----------------------------------------------
    Atom  No    Charge         Core      Valence    Rydberg      Total
 -----------------------------------------------------------------------
      C    1   -0.30029      0.99966     2.29532    0.00531     3.30029
      C    2   -0.01246      0.99958     2.00080    0.01208     3.01246
      O    3   -0.29586      0.99988     3.28654    0.00944     4.29586
      C    4    0.05112      0.99947     1.93297    0.01644     2.94888
      C    5    0.29852      0.99958     1.68594    0.01596     2.70148
      N    6   -0.29359      0.99964     2.78485    0.00909     3.79359
      C    7    0.23323      0.99954     1.75264    0.01460     2.76677
      C    8   -0.20678      0.99947     2.19801    0.00930     3.20678
      C    9    0.31226      0.99962     1.66521    0.02290     2.68774
      O   10   -0.34791      0.99988     3.34198    0.00605     4.34791
      N   11   -0.28871      0.99962     2.78114    0.00795     3.78871
      N   12   -0.38817      0.99970     2.87827    0.01020     3.88817
      C   13   -0.12439      0.99960     2.11608    0.00872     3.12439
      C   14   -0.28381      0.99965     2.27765    0.00651     3.28381
      C   15   -0.28653      0.99965     2.28136    0.00552     3.28653
      H   16    0.09886      0.00000     0.40001    0.00113     0.40114
      H   17    0.09826      0.00000     0.40100    0.00074     0.40174
      H   18    0.09403      0.00000     0.40472    0.00125     0.40597
      H   19    0.08565      0.00000     0.41340    0.00094     0.41435
      H   20    0.08691      0.00000     0.41177    0.00132     0.41309
      H   21    0.10076      0.00000     0.39782    0.00143     0.39924
      H   22    0.10353      0.00000     0.39541    0.00106     0.39647
      H   23    0.19565      0.00000     0.30231    0.00204     0.30435
      H   24    0.19067      0.00000     0.30398    0.00535     0.30933
      H   25    0.19156      0.00000     0.30643    0.00201     0.30844
      H   26    0.08753      0.00000     0.41008    0.00239     0.41247
      H   27    0.09557      0.00000     0.40355    0.00088     0.40443
      H   28    0.09685      0.00000     0.40202    0.00113     0.40315
      H   29    0.10681      0.00000     0.39192    0.00126     0.39319
      H   30    0.10599      0.00000     0.39332    0.00069     0.39401
      H   31    0.09766      0.00000     0.40164    0.00070     0.40234
      H   32    0.09705      0.00000     0.40219    0.00076     0.40295
 =======================================================================
   * Total *    0.00000     14.99454    41.82031    0.18515    57.00000

 Normal termination of Gaussian 16 at Thu Dec 10 17:48:52 2020.
