 Gaussian 16, Revision A.03,

 -----------------------------------------------------------
 # opt freq B3LYP/6-31G(d) empiricaldispersion=gd3bj scf=xqc
 -----------------------------------------------------------

 -------------------------------
 CID_141682977_JID_3915_neutraal
 -------------------------------
 Symbolic Z-matrix:
 Charge =  0 Multiplicity = 1

 SCF Done:  E(RB3LYP) =  -871.202151824     A.U. after   13 cycles
 SCF Done:  E(RB3LYP) =  -871.204482365     A.U. after   11 cycles
 SCF Done:  E(RB3LYP) =  -871.204191073     A.U. after   11 cycles
 SCF Done:  E(RB3LYP) =  -871.205185492     A.U. after   11 cycles
 SCF Done:  E(RB3LYP) =  -871.205816612     A.U. after   10 cycles
 SCF Done:  E(RB3LYP) =  -871.205900361     A.U. after   10 cycles
 SCF Done:  E(RB3LYP) =  -871.205925477     A.U. after   10 cycles
 SCF Done:  E(RB3LYP) =  -871.205994055     A.U. after    9 cycles
 SCF Done:  E(RB3LYP) =  -871.205997980     A.U. after    8 cycles
 SCF Done:  E(RB3LYP) =  -871.205999444     A.U. after    8 cycles
 SCF Done:  E(RB3LYP) =  -871.206000032     A.U. after    7 cycles
 SCF Done:  E(RB3LYP) =  -871.206000079     A.U. after    6 cycles
 Optimization completed.
    -- Stationary point found.
 Normal termination of Gaussian 16 at Mon Dec 14 16:34:31 2020.

 --------------------------------------------------------------------
 #N Geom=AllCheck Guess=TCheck SCRF=Check GenChk RB3LYP/6-31G(d) Freq
 --------------------------------------------------------------------

 Structure from the checkpoint file:  "JID_3915.chk"
 -------------------------------
 CID_141682977_JID_3915_neutraal
 -------------------------------
 Charge =  0 Multiplicity = 1

 SCF Done:  E(RB3LYP) =  -871.206000079     A.U. after    1 cycles

  Exact polarizability: 154.794   1.844 146.618  -0.897  -2.478 127.442
 Approx polarizability: 202.995   6.046 199.898  -3.753  -4.411 197.774

                      1                      2                      3
                      A                      A                      A
 Frequencies --     38.1676                48.7157                63.3298
 Red. masses --      2.6774                 3.8778                 2.7330
 Frc consts  --      0.0023                 0.0054                 0.0065
 IR Inten    --      0.0228                 0.4028                 0.4205

                      4                      5                      6
                      A                      A                      A
 Frequencies --     84.7750               123.8893               131.2785
 Red. masses --      2.4758                 2.8619                 2.4568
 Frc consts  --      0.0105                 0.0259                 0.0249
 IR Inten    --      0.0093                 0.0313                 0.4667

                      7                      8                      9
                      A                      A                      A
 Frequencies --    177.2188               208.9556               215.5152
 Red. masses --      2.5953                 1.5056                 2.0941
 Frc consts  --      0.0480                 0.0387                 0.0573
 IR Inten    --      0.5082                 1.4574                 5.1310

                     10                     11                     12
                      A                      A                      A
 Frequencies --    221.3549               240.0078               242.2337
 Red. masses --      1.5505                 1.5050                 1.2071
 Frc consts  --      0.0448                 0.0511                 0.0417
 IR Inten    --      3.9553                 0.0217                 0.7940

                     13                     14                     15
                      A                      A                      A
 Frequencies --    244.5566               259.7575               267.4296
 Red. masses --      1.4158                 1.2943                 2.0845
 Frc consts  --      0.0499                 0.0515                 0.0878
 IR Inten    --      0.0226                 3.3526                 0.2515

                     16                     17                     18
                      A                      A                      A
 Frequencies --    271.8927               277.9202               285.9662
 Red. masses --      1.1600                 1.4562                 1.7674
 Frc consts  --      0.0505                 0.0663                 0.0852
 IR Inten    --      1.6577                 0.1431                 0.9840

                     19                     20                     21
                      A                      A                      A
 Frequencies --    295.7344               312.1555               382.1897
 Red. masses --      1.6517                 2.4073                 2.1174
 Frc consts  --      0.0851                 0.1382                 0.1822
 IR Inten    --      0.1572                 0.2109                 0.3466

                     22                     23                     24
                      A                      A                      A
 Frequencies --    390.6498               430.3667               452.6331
 Red. masses --      2.1800                 2.4285                 2.2459
 Frc consts  --      0.1960                 0.2650                 0.2711
 IR Inten    --      0.0016                 0.2193                 0.3728

                     25                     26                     27
                      A                      A                      A
 Frequencies --    484.1680               501.7205               542.8218
 Red. masses --      2.7403                 2.5356                 2.9212
 Frc consts  --      0.3785                 0.3761                 0.5071
 IR Inten    --      1.0125                 1.9979                 0.1135

                     28                     29                     30
                      A                      A                      A
 Frequencies --    570.3975               689.3258               763.8020
 Red. masses --      2.7134                 2.8724                 2.4487
 Frc consts  --      0.5201                 0.8042                 0.8417
 IR Inten    --      3.5692                 9.9853                 2.7247

                     31                     32                     33
                      A                      A                      A
 Frequencies --    831.4849               841.1006               895.2624
 Red. masses --      2.6714                 2.7617                 1.4047
 Frc consts  --      1.0882                 1.1511                 0.6634
 IR Inten    --      0.0404                 7.2505                 6.3962

                     34                     35                     36
                      A                      A                      A
 Frequencies --    904.4303               933.8797               943.4573
 Red. masses --      1.7128                 1.2009                 1.1796
 Frc consts  --      0.8255                 0.6171                 0.6186
 IR Inten    --      0.0958                 1.0300                 2.3536

                     37                     38                     39
                      A                      A                      A
 Frequencies --    945.3495               959.4800               965.3504
 Red. masses --      1.2185                 1.9340                 2.0002
 Frc consts  --      0.6416                 1.0490                 1.0982
 IR Inten    --      4.2807                 4.2186                 0.4568

                     40                     41                     42
                      A                      A                      A
 Frequencies --    972.3661               981.7687               982.5507
 Red. masses --      1.4661                 1.4693                 1.4652
 Frc consts  --      0.8167                 0.8344                 0.8334
 IR Inten    --      0.7013                 0.2355                 0.1536

                     43                     44                     45
                      A                      A                      A
 Frequencies --    994.1202              1036.4679              1072.7032
 Red. masses --      1.7352                 2.4376                 2.8771
 Frc consts  --      1.0104                 1.5429                 1.9506
 IR Inten    --      1.7154                 1.4834                 1.2747

                     46                     47                     48
                      A                      A                      A
 Frequencies --   1095.8380              1113.1532              1128.6963
 Red. masses --      1.6194                 1.6530                 1.6397
 Frc consts  --      1.1458                 1.2068                 1.2307
 IR Inten    --      4.7198                 2.9918                 1.9482

                     49                     50                     51
                      A                      A                      A
 Frequencies --   1154.1935              1180.6617              1189.7743
 Red. masses --      2.0412                 2.2658                 2.0545
 Frc consts  --      1.6021                 1.8609                 1.7135
 IR Inten    --      2.2526                 2.2194                 0.5075

                     52                     53                     54
                      A                      A                      A
 Frequencies --   1206.1214              1223.4382              1229.3166
 Red. masses --      1.7691                 1.9569                 2.0225
 Frc consts  --      1.5163                 1.7258                 1.8008
 IR Inten    --      5.3798                 3.4619                 2.8023

                     55                     56                     57
                      A                      A                      A
 Frequencies --   1261.7112              1290.8484              1302.9993
 Red. masses --      1.3121                 1.3075                 1.2711
 Frc consts  --      1.2307                 1.2836                 1.2715
 IR Inten    --      4.2055                 2.2832                 7.5375

                     58                     59                     60
                      A                      A                      A
 Frequencies --   1341.7842              1359.2435              1373.3609
 Red. masses --      1.2923                 1.3482                 1.2629
 Frc consts  --      1.3708                 1.4676                 1.4034
 IR Inten    --      0.1881                 0.5485                 0.3488

                     61                     62                     63
                      A                      A                      A
 Frequencies --   1375.9944              1387.6583              1391.3155
 Red. masses --      1.3622                 1.3654                 1.2971
 Frc consts  --      1.5195                 1.5491                 1.4794
 IR Inten    --     14.5918                 2.4266                 5.5476

                     64                     65                     66
                      A                      A                      A
 Frequencies --   1402.1469              1413.0638              1426.6246
 Red. masses --      1.3401                 1.2715                 1.2651
 Frc consts  --      1.5523                 1.4959                 1.5170
 IR Inten    --      0.2612                 0.4420                 2.2582

                     67                     68                     69
                      A                      A                      A
 Frequencies --   1428.8365              1430.8927              1436.0297
 Red. masses --      1.2659                 1.2660                 1.2886
 Frc consts  --      1.5227                 1.5272                 1.5656
 IR Inten    --      5.4596                 9.8121                 9.4551

                     70                     71                     72
                      A                      A                      A
 Frequencies --   1448.3802              1448.7150              1450.4013
 Red. masses --      1.2299                 1.2359                 1.2441
 Frc consts  --      1.5202                 1.5283                 1.5420
 IR Inten    --      7.4110                 3.6883                13.3485

                     73                     74                     75
                      A                      A                      A
 Frequencies --   1510.8701              1517.3809              1517.9549
 Red. masses --      1.0728                 1.0428                 1.0423
 Frc consts  --      1.4428                 1.4147                 1.4150
 IR Inten    --      0.3588                 1.3841                 1.5503

                     76                     77                     78
                      A                      A                      A
 Frequencies --   1520.8254              1524.1906              1529.0016
 Red. masses --      1.0486                 1.0509                 1.0544
 Frc consts  --      1.4290                 1.4384                 1.4524
 IR Inten    --      1.5956                 2.0417                 0.5335

                     79                     80                     81
                      A                      A                      A
 Frequencies --   1533.1415              1534.9137              1535.2709
 Red. masses --      1.0481                 1.0447                 1.0522
 Frc consts  --      1.4515                 1.4501                 1.4612
 IR Inten    --      2.6771                 4.6320                 2.1237

                     82                     83                     84
                      A                      A                      A
 Frequencies --   1538.0538              1542.2937              1545.5269
 Red. masses --      1.0480                 1.0477                 1.0544
 Frc consts  --      1.4606                 1.4684                 1.4839
 IR Inten    --      6.9701                13.4986                 1.5610

                     85                     86                     87
                      A                      A                      A
 Frequencies --   1550.1846              2679.9013              3023.6713
 Red. masses --      1.0531                 1.0384                 1.0694
 Frc consts  --      1.4910                 4.3939                 5.7605
 IR Inten    --      5.9889                14.3939                12.7999

                     88                     89                     90
                      A                      A                      A
 Frequencies --   3034.1548              3035.1061              3037.9010
 Red. masses --      1.0733                 1.0582                 1.0539
 Frc consts  --      5.8215                 5.7435                 5.7304
 IR Inten    --     15.0390                 6.1330                 9.3799

                     91                     92                     93
                      A                      A                      A
 Frequencies --   3041.1868              3042.1821              3045.2142
 Red. masses --      1.0428                 1.0444                 1.0436
 Frc consts  --      5.6827                 5.6949                 5.7020
 IR Inten    --     40.3748                51.4547                24.7375

                     94                     95                     96
                      A                      A                      A
 Frequencies --   3047.4230              3051.4611              3052.8031
 Red. masses --      1.0394                 1.0678                 1.0453
 Frc consts  --      5.6870                 5.8581                 5.7397
 IR Inten    --      8.8701                34.4207                 8.9783

                     97                     98                     99
                      A                      A                      A
 Frequencies --   3072.1796              3077.9593              3092.4682
 Red. masses --      1.0810                 1.0839                 1.0936
 Frc consts  --      6.0114                 6.0502                 6.1618
 IR Inten    --     16.1431                20.7055                11.0219

                    100                    101                    102
                      A                      A                      A
 Frequencies --   3095.6804              3099.8819              3106.5199
 Red. masses --      1.1011                 1.1000                 1.1013
 Frc consts  --      6.2170                 6.2280                 6.2616
 IR Inten    --     44.3501                 8.9501                87.3163

                    103                    104                    105
                      A                      A                      A
 Frequencies --   3106.6763              3107.4149              3111.5747
 Red. masses --      1.1009                 1.1008                 1.1018
 Frc consts  --      6.2604                 6.2626                 6.2849
 IR Inten    --     15.7144                51.7640                58.8463

                    106                    107                    108
                      A                      A                      A
 Frequencies --   3116.3549              3119.2157              3120.0064
 Red. masses --      1.1017                 1.1010                 1.1016
 Frc consts  --      6.3037                 6.3114                 6.3181
 IR Inten    --     36.8259                40.5736                24.5523

                    109                    110                    111
                      A                      A                      A
 Frequencies --   3123.5399              3137.1885              3154.2396
 Red. masses --      1.1011                 1.0999                 1.0968
 Frc consts  --      6.3295                 6.3782                 6.4293
 IR Inten    --     33.3689                25.8841                22.6621

 - Thermochemistry -
 -------------------
 Temperature   298.150 Kelvin.  Pressure   1.00000 Atm.
 Atom     1 has atomic number  6 and mass  12.00000

 Molecular mass:   202.17552 amu.
 Principal axes and moments of inertia in atomic units:
                           1         2         3
     Eigenvalues --  2366.709483738.363464955.45900
           X            0.99973  -0.02252   0.00637
           Y            0.02250   0.99974   0.00345
           Z           -0.00645  -0.00330   0.99997
 This molecule is an asymmetric top.
 Rotational symmetry number  1.
 Warning -- assumption of classical behavior for rotation
           may cause significant error
 Rotational temperatures (Kelvin)      0.03660     0.02317     0.01748
 Rotational constants (GHZ):           0.76255     0.48276     0.36419
 Zero-point vibrational energy     948647.1 (Joules/Mol)
                                  226.73211 (Kcal/Mol)
 Warning -- explicit consideration of  28 degrees of freedom as
           vibrations may cause significant error
 Vibrational temperatures:     54.91    70.09    91.12   121.97   178.25
          (Kelvin)            188.88   254.98   300.64   310.08   318.48
                              345.32   348.52   351.86   373.73   384.77
                              391.19   399.87   411.44   425.50   449.12
                              549.89   562.06   619.20   651.24   696.61
                              721.86   781.00   820.67   991.79  1098.94
                             1196.32  1210.16  1288.08  1301.27  1343.64
                             1357.42  1360.15  1380.48  1388.92  1399.02
                             1412.55  1413.67  1430.32  1491.25  1543.38
                             1576.67  1601.58  1623.94  1660.63  1698.71
                             1711.82  1735.34  1760.25  1768.71  1815.32
                             1857.24  1874.73  1930.53  1955.65  1975.96
                             1979.75  1996.53  2001.79  2017.38  2033.08
                             2052.59  2055.78  2058.74  2066.13  2083.90
                             2084.38  2086.80  2173.81  2183.17  2184.00
                             2188.13  2192.97  2199.89  2205.85  2208.40
                             2208.91  2212.92  2219.02  2223.67  2230.37
                             3855.78  4350.39  4365.47  4366.84  4370.86
                             4375.59  4377.02  4381.38  4384.56  4390.37
                             4392.30  4420.18  4428.50  4449.37  4453.99
                             4460.04  4469.59  4469.81  4470.88  4476.86
                             4483.74  4487.86  4488.99  4494.08  4513.71
                             4538.25

 Zero-point correction=                           0.361321 (Hartree/Particle)
 Thermal correction to Energy=                    0.378885
 Thermal correction to Enthalpy=                  0.379829
 Thermal correction to Gibbs Free Energy=         0.317103
 Sum of electronic and zero-point Energies=           -870.844679
 Sum of electronic and thermal Energies=              -870.827115
 Sum of electronic and thermal Enthalpies=            -870.826171
 Sum of electronic and thermal Free Energies=         -870.888897

                     E (Thermal)             CV                S
                      KCal/Mol        Cal/Mol-Kelvin    Cal/Mol-Kelvin
 Total                  237.754             65.957            132.018
 Electronic               0.000              0.000              0.000
 Translational            0.889              2.981             41.816
 Rotational               0.889              2.981             32.150
 Vibrational            235.976             59.995             58.051
 Vibration     1          0.594              1.982              5.352
 Vibration     2          0.595              1.978              4.869
 Vibration     3          0.597              1.972              4.351
 Vibration     4          0.601              1.960              3.777
 Vibration     5          0.610              1.929              3.039
 Vibration     6          0.612              1.922              2.927
 Vibration     7          0.628              1.870              2.358
 Vibration     8          0.642              1.827              2.053
 Vibration     9          0.645              1.817              1.996
 Vibration    10          0.648              1.809              1.948
 Vibration    11          0.657              1.779              1.803
 Vibration    12          0.658              1.776              1.786
 Vibration    13          0.660              1.772              1.769
 Vibration    14          0.668              1.746              1.663
 Vibration    15          0.673              1.733              1.613
 Vibration    16          0.675              1.725              1.584
 Vibration    17          0.679              1.714              1.546
 Vibration    18          0.684              1.700              1.498
 Vibration    19          0.690              1.682              1.441
 Vibration    20          0.700              1.651              1.351
 Vibration    21          0.752              1.508              1.030
 Vibration    22          0.758              1.490              0.998
 Vibration    23          0.792              1.404              0.857
 Vibration    24          0.811              1.355              0.788
 Vibration    25          0.840              1.285              0.699
 Vibration    26          0.857              1.246              0.654
 Vibration    27          0.898              1.155              0.559
 Vibration    28          0.926              1.095              0.503

 Optimization completed.
    -- Stationary point found.
 Normal termination of Gaussian 16 at Mon Dec 14 16:47:23 2020.

 ----------------------------------------------------------------------
 # B3LYP/6-311++G(d,p) empiricaldispersion=gd3bj scf=xqc pop=npa geom=c
 heck
 ----------------------------------------------------------------------

 ---------------------------------------
 CID_141682977_JID_3915_Energie_neutraal
 ---------------------------------------
 Structure from the checkpoint file:  "JID_3915.chk"
 Charge =  0 Multiplicity = 1

 SCF Done:  E(RB3LYP) =  -871.368956790     A.U. after   16 cycles
 Normal termination of Gaussian 16 at Mon Dec 14 16:55:06 2020.

 ----------------------------------------------------------------------
 # B3LYP/6-311++G(d,p) empiricaldispersion=gd3bj scf=xqc pop=npa geom=c
 heck
 ----------------------------------------------------------------------

 -------------------------------------
 CID_141682977_JID_3915_Energie_kation
 -------------------------------------
 Structure from the checkpoint file:  "JID_3915.chk"
 Charge =  1 Multiplicity = 2

 SCF Done:  E(UB3LYP) =  -871.059126122     A.U. after   23 cycles
 Normal termination of Gaussian 16 at Mon Dec 14 17:10:31 2020.
 Gaussian 16:  ES64L-G16RevA.03 25-Dec-2016

 ----------------------------------------------------------------------
 # B3LYP/6-311++G(d,p) empiricaldispersion=gd3bj scf=xqc pop=npa geom=c
 heck
 ----------------------------------------------------------------------

 ------------------------------------
 CID_141682977_JID_3915_Energie_anion
 ------------------------------------
 Structure from the checkpoint file:  "JID_3915.chk"
 Charge = -1 Multiplicity = 2

                         Standard orientation:
 ---------------------------------------------------------------------
 Center     Atomic      Atomic             Coordinates (Angstroms)
 Number     Number       Type             X           Y           Z
 ---------------------------------------------------------------------
      1          6           0       -2.940995   -0.393071   -1.415567
      2          6           0       -2.767402   -0.440630    0.107231
      3          6           0       -3.625929   -1.558583    0.714342
      4          6           0       -1.295973   -0.647216    0.520144
      5          6           0       -0.241200    0.313518   -0.087828
      6          6           0       -0.622294    1.799604    0.215239
      7          6           0       -0.165666    2.284353    1.597603
      8          6           0       -0.227819    2.807013   -0.876953
      9          6           0        1.184279   -0.106448    0.370158
     10          6           0        1.502822   -1.621540    0.271261
     11          6           0        1.403134   -2.172325   -1.155165
     12          6           0        2.859912   -1.965489    0.897741
     13         16           0        2.516314    0.905768   -0.447871
     14          1           0       -2.529666   -1.298169   -1.881949
     15          1           0       -2.436172    0.470905   -1.860182
     16          1           0       -4.001310   -0.332905   -1.686069
     17          1           0       -3.133412    0.507598    0.521833
     18          1           0       -3.335457   -2.537313    0.311194
     19          1           0       -3.513521   -1.600415    1.804150
     20          1           0       -4.688091   -1.407528    0.490169
     21          1           0       -1.229612   -0.610138    1.617257
     22          1           0       -1.044404   -1.674500    0.237729
     23          1           0       -0.279218    0.186256   -1.177781
     24          1           0       -1.716638    1.816054    0.230502
     25          1           0        0.920916    2.413106    1.638368
     26          1           0       -0.619472    3.255478    1.825647
     27          1           0       -0.460511    1.589096    2.392718
     28          1           0       -0.511120    2.441856   -1.872242
     29          1           0       -0.751981    3.756513   -0.712978
     30          1           0        0.844413    3.011307   -0.881835
     31          1           0        1.300483    0.168911    1.424174
     32          1           0        0.747978   -2.128573    0.884119
     33          1           0        2.154062   -1.708224   -1.804016
     34          1           0        1.584025   -3.252777   -1.161068
     35          1           0        0.416619   -1.997780   -1.598594
     36          1           0        2.935732   -1.572667    1.919099
     37          1           0        2.988476   -3.052843    0.946087
     38          1           0        3.686354   -1.548832    0.315120
     39          1           0        2.033289    0.818184   -1.704758
 ---------------------------------------------------------------------

 SCF Done:  E(UB3LYP) =  -871.355278751     A.U. after   27 cycles

 The electronic state is 2-A.
 Alpha  occ. eigenvalues --  -88.73954 -10.11031 -10.08223 -10.08198 -10.07554
 Alpha  occ. eigenvalues --  -10.07550 -10.06559 -10.06118 -10.06068 -10.05969
 Alpha  occ. eigenvalues --  -10.05873 -10.05848 -10.05570  -7.82699  -5.79066
 Alpha  occ. eigenvalues --   -5.78721  -5.78075  -0.74929  -0.71202  -0.69350
 Alpha  occ. eigenvalues --   -0.65045  -0.62626  -0.59038  -0.58759  -0.58487
 Alpha  occ. eigenvalues --   -0.55627  -0.52698  -0.47789  -0.46162  -0.43593
 Alpha  occ. eigenvalues --   -0.38679  -0.37660  -0.36243  -0.35611  -0.34058
 Alpha  occ. eigenvalues --   -0.33444  -0.32898  -0.31890  -0.30939  -0.30015
 Alpha  occ. eigenvalues --   -0.28913  -0.28772  -0.28609  -0.28317  -0.27432
 Alpha  occ. eigenvalues --   -0.26093  -0.25893  -0.25053  -0.24356  -0.24010
 Alpha  occ. eigenvalues --   -0.23777  -0.23118  -0.22733  -0.21557  -0.20571
 Alpha  occ. eigenvalues --   -0.19842  -0.13911   0.04260
 Alpha virt. eigenvalues --    0.06508   0.06791   0.06919   0.08438   0.08614
 Alpha virt. eigenvalues --    0.08877   0.09089   0.09569   0.10209   0.10708
 Alpha virt. eigenvalues --    0.11114   0.11240   0.11813   0.11973   0.12370

  Beta  occ. eigenvalues --  -88.73946 -10.11024 -10.08214 -10.08193 -10.07546
  Beta  occ. eigenvalues --  -10.07544 -10.06545 -10.06098 -10.06041 -10.05945
  Beta  occ. eigenvalues --  -10.05844 -10.05819 -10.05552  -7.82689  -5.79054
  Beta  occ. eigenvalues --   -5.78714  -5.78068  -0.74908  -0.71177  -0.69325
  Beta  occ. eigenvalues --   -0.65017  -0.62592  -0.58991  -0.58707  -0.58436
  Beta  occ. eigenvalues --   -0.55582  -0.52653  -0.47744  -0.46119  -0.43549
  Beta  occ. eigenvalues --   -0.38651  -0.37619  -0.36213  -0.35573  -0.34023
  Beta  occ. eigenvalues --   -0.33421  -0.32866  -0.31854  -0.30909  -0.29978
  Beta  occ. eigenvalues --   -0.28886  -0.28746  -0.28581  -0.28291  -0.27403
  Beta  occ. eigenvalues --   -0.26063  -0.25863  -0.25022  -0.24328  -0.23980
  Beta  occ. eigenvalues --   -0.23741  -0.23092  -0.22702  -0.21526  -0.20547
  Beta  occ. eigenvalues --   -0.19813  -0.13891
  Beta virt. eigenvalues --    0.06254   0.07168   0.07359   0.07541   0.08828
  Beta virt. eigenvalues --    0.09027   0.09162   0.09396   0.09980   0.10348
  Beta virt. eigenvalues --    0.11011   0.11445   0.11490   0.12130   0.12238

 Mulliken charges and spin densities:
               1          2
     1  C    0.718230  -1.450973
     2  C   -1.698636   2.157452
     3  C    0.452760  -1.106533
     4  C   -0.153744  -1.144116
     5  C    0.707896  -0.379001
     6  C   -0.915125   1.175402
     7  C    0.132082  -0.921891
     8  C   -0.135521  -0.486847
     9  C    1.687135  -0.970078
    10  C   -1.144157   1.451521
    11  C    0.319174  -1.034385
    12  C   -0.152291  -0.607798
    13  S    0.252770  -0.713276
    14  H   -0.119308   0.264336
    15  H    0.041134   0.095728
    16  H   -0.318377   0.478471
    17  H   -0.112491   0.271948
    18  H   -0.160601   0.300048
    19  H   -0.259940   0.397852
    20  H   -0.261410   0.406463
    21  H    0.296845  -0.132774
    22  H    0.546157  -0.418616
    23  H    0.453197  -0.233148
    24  H    0.180024   0.019573
    25  H    0.044842   0.109499
    26  H   -0.138819   0.285609
    27  H   -0.316708   0.452483
    28  H   -0.116068   0.233458
    29  H   -0.142843   0.293416
    30  H    0.080021   0.044255
    31  H    0.389906  -0.125385
    32  H   -0.367426   0.533185
    33  H   -0.046015   0.200554
    34  H   -0.258627   0.419400
    35  H   -0.080925   0.231284
    36  H   -0.157686   0.289293
    37  H   -0.135228   0.283852
    38  H    0.110599   0.026724
    39  H   -0.220825   0.303016
 Sum of Mulliken charges =  -1.00000   1.00000

 Dipole moment (field-independent basis, Debye):
    X=              3.0534    Y=              1.7944    Z=             -0.1389  Tot=              3.5444
 Quadrupole moment (field-independent basis, Debye-Ang):
   XX=           -163.6078   YY=           -150.9456   ZZ=           -137.5220
   XY=              0.0104   XZ=             -0.5411   YZ=             -1.0378

 Summary of Natural Population Analysis:

                                       Natural Population
                Natural  -----------------------------------------------
    Atom  No    Charge         Core      Valence    Rydberg      Total
 -----------------------------------------------------------------------
      C    1   -0.28667      0.99964     2.28090    0.00613     3.28667
      C    2   -0.11367      0.99961     2.10463    0.00943     3.11367
      C    3   -0.27886      0.99965     2.27430    0.00491     3.27886
      C    4   -0.18946      0.99959     2.17954    0.01033     3.18946
      C    5   -0.11075      0.99955     2.09926    0.01194     3.11075
      C    6   -0.11617      0.99959     2.10523    0.01135     3.11617
      C    7   -0.28919      0.99964     2.28325    0.00630     3.28919
      C    8   -0.28449      0.99964     2.27883    0.00602     3.28449
      C    9   -0.14589      0.99951     2.13397    0.01240     3.14589
      C   10   -0.12165      0.99958     2.11048    0.01159     3.12165
      C   11   -0.29065      0.99964     2.28422    0.00679     3.29065
      C   12   -0.28424      0.99964     2.27937    0.00523     3.28424
      S   13   -0.03068      4.99964     3.01708    0.01396     8.03068
      H   14    0.09700      0.00000     0.40177    0.00123     0.40300
      H   15    0.09958      0.00000     0.39929    0.00113     0.40042
      H   16    0.10021      0.00000     0.39883    0.00096     0.39979
      H   17    0.09160      0.00000     0.40616    0.00224     0.40840
      H   18    0.09612      0.00000     0.40268    0.00121     0.40388
      H   19    0.09924      0.00000     0.39955    0.00122     0.40076
      H   20    0.09867      0.00000     0.40026    0.00107     0.40133
      H   21    0.09910      0.00000     0.39939    0.00150     0.40090
      H   22    0.09900      0.00000     0.39899    0.00201     0.40100
      H   23    0.10057      0.00000     0.39704    0.00239     0.39943
      H   24    0.09591      0.00000     0.40134    0.00275     0.40409
      H   25    0.09984      0.00000     0.39927    0.00089     0.40016
      H   26    0.10005      0.00000     0.39921    0.00074     0.39995
      H   27    0.09961      0.00000     0.39939    0.00100     0.40039
      H   28    0.09720      0.00000     0.40177    0.00103     0.40280
      H   29    0.09571      0.00000     0.40353    0.00076     0.40429
      H   30    0.10332      0.00000     0.39562    0.00106     0.39668
      H   31    0.10562      0.00000     0.39295    0.00143     0.39438
      H   32    0.10044      0.00000     0.39745    0.00211     0.39956
      H   33    0.09976      0.00000     0.39921    0.00103     0.40024
      H   34    0.10154      0.00000     0.39751    0.00095     0.39846
      H   35    0.10094      0.00000     0.39784    0.00121     0.39906
      H   36    0.09758      0.00000     0.40142    0.00100     0.40242
      H   37    0.09923      0.00000     0.39991    0.00087     0.40077
      H   38    0.10342      0.00000     0.39550    0.00108     0.39658
      H   39    0.06111      0.00000     0.43617    0.00272     0.43889
 =======================================================================
   * Total *    0.00000     16.99494    39.85311    0.15195    57.00000

 Normal termination of Gaussian 16 at Mon Dec 14 17:29:02 2020.
