 Gaussian 16, Revision A.03,

 -----------------------------------------------------------
 # opt freq B3LYP/6-31G(d) empiricaldispersion=gd3bj scf=xqc
 -----------------------------------------------------------

 -------------------------------
 CID_150661089_JID_5030_neutraal
 -------------------------------
 Symbolic Z-matrix:
 Charge =  0 Multiplicity = 1

 SCF Done:  E(RB3LYP) =  -1088.55605332     A.U. after   15 cycles
 SCF Done:  E(RB3LYP) =  -1088.56201444     A.U. after   12 cycles
 SCF Done:  E(RB3LYP) =  -1088.56266508     A.U. after   12 cycles
 SCF Done:  E(RB3LYP) =  -1088.56280822     A.U. after   10 cycles
 SCF Done:  E(RB3LYP) =  -1088.56287184     A.U. after   11 cycles
 SCF Done:  E(RB3LYP) =  -1088.56294466     A.U. after   11 cycles
 SCF Done:  E(RB3LYP) =  -1088.56298394     A.U. after   11 cycles
 SCF Done:  E(RB3LYP) =  -1088.56302157     A.U. after   11 cycles
 SCF Done:  E(RB3LYP) =  -1088.56305998     A.U. after   11 cycles
 SCF Done:  E(RB3LYP) =  -1088.56307690     A.U. after   10 cycles
 SCF Done:  E(RB3LYP) =  -1088.56311146     A.U. after    8 cycles
 SCF Done:  E(RB3LYP) =  -1088.56311200     A.U. after    8 cycles
 SCF Done:  E(RB3LYP) =  -1088.56311273     A.U. after    8 cycles
 SCF Done:  E(RB3LYP) =  -1088.56311431     A.U. after    8 cycles
 SCF Done:  E(RB3LYP) =  -1088.56311535     A.U. after    8 cycles
 SCF Done:  E(RB3LYP) =  -1088.56311524     A.U. after    7 cycles
 Optimization completed.
    -- Stationary point found.
 Normal termination of Gaussian 16 at Thu Dec 10 14:50:27 2020.

 --------------------------------------------------------------------
 #N Geom=AllCheck Guess=TCheck SCRF=Check GenChk RB3LYP/6-31G(d) Freq
 --------------------------------------------------------------------

 Structure from the checkpoint file:  "JID_5030.chk"
 -------------------------------
 CID_150661089_JID_5030_neutraal
 -------------------------------
 Charge =  0 Multiplicity = 1

 SCF Done:  E(RB3LYP) =  -1088.56311524     A.U. after    1 cycles

  Exact polarizability: 160.052  12.924 121.066 -21.322  16.228 110.747
 Approx polarizability: 211.000  23.618 201.839 -38.102  35.372 180.144

                      1                      2                      3
                      A                      A                      A
 Frequencies --     17.7443                20.7270                48.7216
 Red. masses --      2.9436                 4.7820                 5.4930
 Frc consts  --      0.0005                 0.0012                 0.0077
 IR Inten    --      1.8720                 0.4596                 0.6403

                      4                      5                      6
                      A                      A                      A
 Frequencies --     61.9184               120.1879               134.7698
 Red. masses --      4.5726                 2.8221                 2.6084
 Frc consts  --      0.0103                 0.0240                 0.0279
 IR Inten    --      0.2783                 6.8091                 0.5378

                      7                      8                      9
                      A                      A                      A
 Frequencies --    138.4489               191.3660               209.7403
 Red. masses --      1.5662                 5.0952                 2.9330
 Frc consts  --      0.0177                 0.1099                 0.0760
 IR Inten    --      0.5903                 1.2791                 0.6940

                     10                     11                     12
                      A                      A                      A
 Frequencies --    229.3875               253.7254               270.4844
 Red. masses --      3.3040                 1.3336                 3.1533
 Frc consts  --      0.1024                 0.0506                 0.1359
 IR Inten    --      3.9516                 0.9687                 2.5378

                     13                     14                     15
                      A                      A                      A
 Frequencies --    297.0135               311.2390               323.0715
 Red. masses --      5.1567                 5.2736                 1.1684
 Frc consts  --      0.2680                 0.3010                 0.0719
 IR Inten    --      3.3044                 5.9483               106.4787

                     16                     17                     18
                      A                      A                      A
 Frequencies --    402.1336               407.5463               416.1595
 Red. masses --      3.6297                 3.2621                 4.4150
 Frc consts  --      0.3458                 0.3192                 0.4505
 IR Inten    --      3.7237                 2.6517                38.3712

                     19                     20                     21
                      A                      A                      A
 Frequencies --    444.2686               476.3320               481.4610
 Red. masses --      3.7802                 2.6258                 4.1425
 Frc consts  --      0.4396                 0.3510                 0.5658
 IR Inten    --      1.0832                 2.2427                12.9435

                     22                     23                     24
                      A                      A                      A
 Frequencies --    510.0053               551.5529               556.8722
 Red. masses --      5.5582                 5.8471                 5.9375
 Frc consts  --      0.8518                 1.0480                 1.0848
 IR Inten    --     11.1292                16.1583                22.8295

                     25                     26                     27
                      A                      A                      A
 Frequencies --    617.5330               709.9278               716.0818
 Red. masses --      9.2863                 6.8334                 3.7210
 Frc consts  --      2.0865                 2.0291                 1.1242
 IR Inten    --     90.0624                15.8163                 7.1808

                     28                     29                     30
                      A                      A                      A
 Frequencies --    772.0986               783.7222               823.3982
 Red. masses --      1.6225                 3.5037                 5.0580
 Frc consts  --      0.5699                 1.2680                 2.0204
 IR Inten    --    158.1905               131.5011                29.2361

                     31                     32                     33
                      A                      A                      A
 Frequencies --    859.1568               889.6520               940.3638
 Red. masses --      2.6666                 1.2756                 1.2254
 Frc consts  --      1.1597                 0.5949                 0.6384
 IR Inten    --     11.9178                 0.0602                 2.2734

                     34                     35                     36
                      A                      A                      A
 Frequencies --    967.9832               977.6733              1000.7372
 Red. masses --      1.3376                 1.9398                 1.3066
 Frc consts  --      0.7384                 1.0924                 0.7710
 IR Inten    --      0.9580                 2.1019                 5.5690

                     37                     38                     39
                      A                      A                      A
 Frequencies --   1003.6820              1028.7800              1065.8516
 Red. masses --      7.6460                 1.5379                 6.0542
 Frc consts  --      4.5381                 0.9590                 4.0523
 IR Inten    --    293.0768                 1.0118                14.9081

                     40                     41                     42
                      A                      A                      A
 Frequencies --   1078.8609              1082.6680              1093.3849
 Red. masses --      1.5125                 2.1998                 1.6967
 Frc consts  --      1.0373                 1.5192                 1.1951
 IR Inten    --      5.5766                 7.3079               133.2726

                     43                     44                     45
                      A                      A                      A
 Frequencies --   1144.3453              1156.9223              1175.3470
 Red. masses --      3.9700                 2.9253                 1.7913
 Frc consts  --      3.0631                 2.3069                 1.4580
 IR Inten    --    107.1532                24.9765                26.7018

                     46                     47                     48
                      A                      A                      A
 Frequencies --   1182.0806              1200.9525              1237.2435
 Red. masses --      2.0669                 1.1004                 2.6407
 Frc consts  --      1.7016                 0.9351                 2.3816
 IR Inten    --     45.0742                 1.1753                 6.4761

                     49                     50                     51
                      A                      A                      A
 Frequencies --   1260.3579              1314.7851              1317.3315
 Red. masses --      1.1985                 1.4971                 1.5314
 Frc consts  --      1.1217                 1.5248                 1.5658
 IR Inten    --      5.2355                24.5503                11.3637

                     52                     53                     54
                      A                      A                      A
 Frequencies --   1328.1828              1353.5601              1378.8248
 Red. masses --      6.1771                 7.0492                 1.2712
 Frc consts  --      6.4202                 7.6093                 1.4239
 IR Inten    --    144.6052                 1.7228                13.6001

                     55                     56                     57
                      A                      A                      A
 Frequencies --   1427.1060              1427.7770              1444.2267
 Red. masses --      1.3765                 1.2198                 1.3019
 Frc consts  --      1.6518                 1.4651                 1.5999
 IR Inten    --     10.5014                22.8039                30.7793

                     58                     59                     60
                      A                      A                      A
 Frequencies --   1446.4537              1485.7379              1509.3569
 Red. masses --      1.2503                 1.9534                 1.0531
 Frc consts  --      1.5413                 2.5406                 1.4135
 IR Inten    --      5.7658                 3.8287                 5.3754

                     61                     62                     63
                      A                      A                      A
 Frequencies --   1518.8518              1521.6088              1525.9947
 Red. masses --      1.0538                 2.2057                 1.0565
 Frc consts  --      1.4323                 3.0088                 1.4495
 IR Inten    --      3.5762                23.1119                 5.9461

                     64                     65                     66
                      A                      A                      A
 Frequencies --   1533.7136              1541.6336              1632.5426
 Red. masses --      1.1971                 1.0863                 5.3716
 Frc consts  --      1.6591                 1.5211                 8.4349
 IR Inten    --     15.4794                 7.6018                 3.0447

                     67                     68                     69
                      A                      A                      A
 Frequencies --   1658.8764              3041.9107              3058.0261
 Red. masses --      5.8610                 1.0451                 1.0631
 Frc consts  --      9.5028                 5.6975                 5.8576
 IR Inten    --      6.5920                12.2872                20.4593

                     70                     71                     72
                      A                      A                      A
 Frequencies --   3070.9178              3082.3689              3119.6837
 Red. masses --      1.0354                 1.0821                 1.0928
 Frc consts  --      5.7533                 6.0576                 6.2665
 IR Inten    --     13.7781                21.3062                27.0290

                     73                     74                     75
                      A                      A                      A
 Frequencies --   3136.9293              3138.8068              3148.6459
 Red. masses --      1.1007                 1.1049                 1.1035
 Frc consts  --      6.3814                 6.4136                 6.4455
 IR Inten    --      6.3590                17.1975                11.0821

                     76                     77                     78
                      A                      A                      A
 Frequencies --   3149.2030              3189.5274              3203.0432
 Red. masses --      1.1033                 1.0868                 1.0907
 Frc consts  --      6.4468                 6.5142                 6.5932
 IR Inten    --     18.8239                 3.5540                15.5390

                     79                     80                     81
                      A                      A                      A
 Frequencies --   3215.8971              3238.3138              3723.0926
 Red. masses --      1.0949                 1.0932                 1.0659
 Frc consts  --      6.6717                 6.7542                 8.7055
 IR Inten    --     17.3869                 3.8352                13.1382

 - Thermochemistry -
 -------------------
 Temperature   298.150 Kelvin.  Pressure   1.00000 Atm.
 Atom     1 has atomic number  6 and mass  12.00000

 Molecular mass:   230.06128 amu.
 Principal axes and moments of inertia in atomic units:
                           1         2         3
     Eigenvalues --  1888.112505899.463836075.16452
           X            0.99996   0.00282   0.00889
           Y           -0.00441   0.98279   0.18465
           Z           -0.00822  -0.18468   0.98276
 This molecule is an asymmetric top.
 Rotational symmetry number  1.
 Warning -- assumption of classical behavior for rotation
           may cause significant error
 Rotational temperatures (Kelvin)      0.04587     0.01468     0.01426
 Rotational constants (GHZ):           0.95584     0.30592     0.29707
 Zero-point vibrational energy     613245.3 (Joules/Mol)
                                  146.56915 (Kcal/Mol)
 Warning -- explicit consideration of  25 degrees of freedom as
           vibrations may cause significant error
 Vibrational temperatures:     25.53    29.82    70.10    89.09   172.92
          (Kelvin)            193.90   199.20   275.33   301.77   330.04
                              365.05   389.17   427.34   447.80   464.83
                              578.58   586.37   598.76   639.20   685.34
                              692.71   733.78   793.56   801.21   888.49
                             1021.43  1030.28  1110.88  1127.60  1184.69
                             1236.13  1280.01  1352.97  1392.71  1406.65
                             1439.84  1444.07  1480.18  1533.52  1552.24
                             1557.72  1573.14  1646.46  1664.55  1691.06
                             1700.75  1727.90  1780.12  1813.37  1891.68
                             1895.35  1910.96  1947.47  1983.82  2053.29
                             2054.25  2077.92  2081.12  2137.65  2171.63
                             2185.29  2189.26  2195.57  2206.67  2218.07
                             2348.86  2386.75  4376.63  4399.82  4418.37
                             4434.84  4488.53  4513.34  4516.04  4530.20
                             4531.00  4589.02  4608.46  4626.96  4659.21
                             5356.70

 Zero-point correction=                           0.233573 (Hartree/Particle)
 Thermal correction to Energy=                    0.249228
 Thermal correction to Enthalpy=                  0.250172
 Thermal correction to Gibbs Free Energy=         0.188436
 Sum of electronic and zero-point Energies=          -1088.329542
 Sum of electronic and thermal Energies=             -1088.313887
 Sum of electronic and thermal Enthalpies=           -1088.312943
 Sum of electronic and thermal Free Energies=        -1088.374679

                     E (Thermal)             CV                S
                      KCal/Mol        Cal/Mol-Kelvin    Cal/Mol-Kelvin
 Total                  156.393             57.674            129.934
 Electronic               0.000              0.000              0.000
 Translational            0.889              2.981             42.202
 Rotational               0.889              2.981             32.581
 Vibrational            154.616             51.712             55.152
 Vibration     1          0.593              1.986              6.872
 Vibration     2          0.593              1.986              6.563
 Vibration     3          0.595              1.978              4.869
 Vibration     4          0.597              1.972              4.395
 Vibration     5          0.609              1.932              3.097
 Vibration     6          0.613              1.919              2.877
 Vibration     7          0.614              1.915              2.825
 Vibration     8          0.634              1.852              2.215
 Vibration     9          0.642              1.826              2.046
 Vibration    10          0.652              1.796              1.884
 Vibration    11          0.665              1.757              1.705
 Vibration    12          0.674              1.728              1.593
 Vibration    13          0.691              1.679              1.434
 Vibration    14          0.700              1.652              1.356
 Vibration    15          0.708              1.629              1.295
 Vibration    16          0.768              1.466              0.955
 Vibration    17          0.772              1.454              0.935
 Vibration    18          0.779              1.435              0.905
 Vibration    19          0.804              1.374              0.813
 Vibration    20          0.833              1.303              0.720
 Vibration    21          0.838              1.291              0.706
 Vibration    22          0.865              1.228              0.634
 Vibration    23          0.907              1.136              0.541
 Vibration    24          0.912              1.125              0.530
 Vibration    25          0.977              0.995              0.420

 Optimization completed.
    -- Stationary point found.
 Normal termination of Gaussian 16 at Thu Dec 10 14:58:28 2020.

 ----------------------------------------------------------------------
 # B3LYP/6-311++G(d,p) empiricaldispersion=gd3bj scf=xqc pop=npa geom=c
 heck
 ----------------------------------------------------------------------

 ---------------------------------------
 CID_150661089_JID_5030_Energie_neutraal
 ---------------------------------------
 Structure from the checkpoint file:  "JID_5030.chk"
 Charge =  0 Multiplicity = 1

 SCF Done:  E(RB3LYP) =  -1088.79287126     A.U. after   15 cycles
 Normal termination of Gaussian 16 at Thu Dec 10 15:01:49 2020.

 ----------------------------------------------------------------------
 # B3LYP/6-311++G(d,p) empiricaldispersion=gd3bj scf=xqc pop=npa geom=c
 heck
 ----------------------------------------------------------------------

 -------------------------------------
 CID_150661089_JID_5030_Energie_kation
 -------------------------------------
 Structure from the checkpoint file:  "JID_5030.chk"
 Charge =  1 Multiplicity = 2

 SCF Done:  E(UB3LYP) =  -1088.45421227     A.U. after   29 cycles
 Normal termination of Gaussian 16 at Thu Dec 10 15:13:27 2020.
 Gaussian 16:  ES64L-G16RevA.03 25-Dec-2016

 ----------------------------------------------------------------------
 # B3LYP/6-311++G(d,p) empiricaldispersion=gd3bj scf=xqc pop=npa geom=c
 heck
 ----------------------------------------------------------------------

 ------------------------------------
 CID_150661089_JID_5030_Energie_anion
 ------------------------------------
 Structure from the checkpoint file:  "JID_5030.chk"
 Charge = -1 Multiplicity = 2

                         Standard orientation:
 ---------------------------------------------------------------------
 Center     Atomic      Atomic             Coordinates (Angstroms)
 Number     Number       Type             X           Y           Z
 ---------------------------------------------------------------------
      1          6           0        1.189188    1.733274    1.573322
      2          6           0        1.957386    0.967386    0.526737
      3          6           0        3.162829    1.473599    0.028177
      4          6           0        3.903814    0.794241   -0.939110
      5          6           0        3.453347   -0.423934   -1.444182
      6          6           0        2.254841   -0.956173   -0.975179
      7          6           0        1.527432   -0.262161   -0.007577
      8         16           0        0.031485   -1.048879    0.561104
      9          8           0       -0.172033   -2.300613   -0.167146
     10          8           0       -0.043103   -1.050154    2.022508
     11          8           0       -1.032920    0.067096   -0.011833
     12          6           0       -2.416846   -0.168532    0.354396
     13          6           0       -3.270811    0.844421   -0.407842
     14          6           0       -3.141817    0.702250   -1.919901
     15          8           0       -4.618601    0.718618    0.036859
     16          1           0        1.698341    2.672116    1.806029
     17          1           0        0.176874    1.962220    1.226383
     18          1           0        1.085423    1.148691    2.491524
     19          1           0        3.524902    2.422774    0.413247
     20          1           0        4.836395    1.220903   -1.297061
     21          1           0        4.025973   -0.956992   -2.196538
     22          1           0        1.872381   -1.899435   -1.347236
     23          1           0       -2.693722   -1.192211    0.073948
     24          1           0       -2.536959   -0.039904    1.432869
     25          1           0       -2.963049    1.850828   -0.103993
     26          1           0       -3.452599   -0.302052   -2.239201
     27          1           0       -3.776145    1.438253   -2.422746
     28          1           0       -2.105477    0.845747   -2.238451
     29          1           0       -4.979014   -0.094673   -0.352591
 ---------------------------------------------------------------------

 SCF Done:  E(UB3LYP) =  -1088.79444083     A.U. after   31 cycles

 The electronic state is 2-A.
 Alpha  occ. eigenvalues --  -88.94315 -19.04818 -19.02843 -18.99679 -18.99528
 Alpha  occ. eigenvalues --  -10.13012 -10.11967 -10.06623 -10.06270 -10.06206
 Alpha  occ. eigenvalues --  -10.05039 -10.04967 -10.04861 -10.04726 -10.03720
 Alpha  occ. eigenvalues --   -8.00404  -5.96808  -5.96627  -5.96416  -1.01895
 Alpha  occ. eigenvalues --   -0.93391  -0.91816  -0.88849  -0.74064  -0.68034
 Alpha  occ. eigenvalues --   -0.65468  -0.64165  -0.60335  -0.57231  -0.53739
 Alpha  occ. eigenvalues --   -0.50355  -0.47747  -0.46855  -0.42319  -0.40009
 Alpha  occ. eigenvalues --   -0.39400  -0.37604  -0.36127  -0.35602  -0.34166
 Alpha  occ. eigenvalues --   -0.33946  -0.32615  -0.31941  -0.30703  -0.29691
 Alpha  occ. eigenvalues --   -0.29190  -0.27851  -0.27377  -0.27162  -0.24578
 Alpha  occ. eigenvalues --   -0.24376  -0.23776  -0.22736  -0.22585  -0.21729
 Alpha  occ. eigenvalues --   -0.20036  -0.19438  -0.18316  -0.17282  -0.14265
 Alpha  occ. eigenvalues --   -0.13080   0.04536
 Alpha virt. eigenvalues --    0.06371   0.08008   0.08749   0.09067   0.10049
 Alpha virt. eigenvalues --    0.10257   0.10595   0.11548   0.12166   0.12393
 Alpha virt. eigenvalues --    0.13094   0.13457   0.13815   0.14524   0.14932

  Beta  occ. eigenvalues --  -88.94292 -19.04762 -19.02795 -18.99649 -18.99466
  Beta  occ. eigenvalues --  -10.13006 -10.11913 -10.06605 -10.06090 -10.05959
  Beta  occ. eigenvalues --  -10.04983 -10.04924 -10.04915 -10.04746 -10.03348
  Beta  occ. eigenvalues --   -8.00380  -5.96732  -5.96605  -5.96407  -1.01743
  Beta  occ. eigenvalues --   -0.93280  -0.91677  -0.88746  -0.73661  -0.67918
  Beta  occ. eigenvalues --   -0.65140  -0.63734  -0.60163  -0.57085  -0.53482
  Beta  occ. eigenvalues --   -0.50156  -0.47612  -0.46515  -0.42110  -0.39896
  Beta  occ. eigenvalues --   -0.39312  -0.37506  -0.35973  -0.35472  -0.34057
  Beta  occ. eigenvalues --   -0.33777  -0.32545  -0.31779  -0.30445  -0.29586
  Beta  occ. eigenvalues --   -0.29101  -0.27791  -0.27306  -0.27085  -0.24432
  Beta  occ. eigenvalues --   -0.23918  -0.23353  -0.22611  -0.22314  -0.21599
  Beta  occ. eigenvalues --   -0.19973  -0.19234  -0.18205  -0.17135  -0.12789
  Beta  occ. eigenvalues --   -0.12011
  Beta virt. eigenvalues --    0.07193   0.08002   0.08848   0.09112   0.09733
  Beta virt. eigenvalues --    0.10002   0.10299   0.10891   0.11622   0.12105
  Beta virt. eigenvalues --    0.12450   0.13053   0.13512   0.13803   0.14472

 Mulliken charges and spin densities:
               1          2
     1  C   -0.631516  -0.044902
     2  C    0.791670   0.163290
     3  C   -0.504662  -0.046289
     4  C   -0.437539   0.283808
     5  C   -0.128322  -0.004759
     6  C   -0.098563   0.126344
     7  C   -0.736666   0.191764
     8  S    0.299415  -0.025240
     9  O   -0.130243   0.011799
    10  O   -0.184020  -0.010624
    11  O   -0.026505   0.006139
    12  C   -0.118254  -0.200664
    13  C   -0.230418   0.035287
    14  C    0.076186  -0.430972
    15  O   -0.207622  -0.011828
    16  H    0.131657   0.002795
    17  H    0.166785  -0.014644
    18  H    0.152640   0.035918
    19  H    0.083138   0.005673
    20  H    0.107919  -0.022987
    21  H    0.123739   0.002815
    22  H    0.193661   0.006208
    23  H    0.105257   0.091179
    24  H    0.103115   0.073986
    25  H    0.162214   0.019488
    26  H   -0.077134   0.219545
    27  H   -0.011918   0.159441
    28  H    0.150962  -0.002266
    29  H   -0.124971   0.379693
 Sum of Mulliken charges =  -1.00000   1.00000

 Dipole moment (field-independent basis, Debye):
    X=              2.2389    Y=              2.6428    Z=             -0.6752  Tot=              3.5289
 Quadrupole moment (field-independent basis, Debye-Ang):
   XX=           -161.0963   YY=           -116.6657   ZZ=           -117.4500
   XY=              0.6229   XZ=             -0.2942   YZ=              3.5572

 Summary of Natural Population Analysis:

                                       Natural Population
                Natural  -----------------------------------------------
    Atom  No    Charge         Core      Valence    Rydberg      Total
 -----------------------------------------------------------------------
      C    1   -0.29938      0.99964     2.29515    0.00459     3.29938
      C    2    0.02587      0.99947     1.96615    0.00850     2.97413
      C    3   -0.12057      0.99953     2.11237    0.00867     3.12057
      C    4   -0.02769      0.99958     2.01842    0.00970     3.02769
      C    5   -0.12080      0.99957     2.11185    0.00938     3.12080
      C    6   -0.06823      0.99952     2.05920    0.00951     3.06823
      C    7   -0.10218      0.99931     2.08961    0.01326     3.10218
      S    8    1.14718      4.99922     1.75503    0.09857     6.85282
      O    9   -0.46294      0.99990     3.45727    0.00576     4.46294
      O   10   -0.45934      0.99990     3.45398    0.00545     4.45934
      O   11   -0.37481      0.99990     3.36619    0.00871     4.37481
      C   12   -0.02525      0.99956     2.01217    0.01352     3.02525
      C   13    0.05299      0.99959     1.93312    0.01431     2.94701
      C   14   -0.30204      0.99965     2.29645    0.00594     3.30204
      O   15   -0.36877      0.99990     3.36169    0.00718     4.36877
      H   16    0.09308      0.00000     0.40599    0.00093     0.40692
      H   17    0.10802      0.00000     0.39069    0.00128     0.39198
      H   18    0.11449      0.00000     0.38457    0.00094     0.38551
      H   19    0.09125      0.00000     0.40769    0.00105     0.40875
      H   20    0.08691      0.00000     0.41205    0.00104     0.41309
      H   21    0.09301      0.00000     0.40597    0.00102     0.40699
      H   22    0.10953      0.00000     0.38945    0.00102     0.39047
      H   23    0.08939      0.00000     0.40890    0.00170     0.41061
      H   24    0.09610      0.00000     0.40268    0.00123     0.40390
      H   25    0.08630      0.00000     0.41217    0.00153     0.41370
      H   26    0.09745      0.00000     0.40146    0.00109     0.40255
      H   27    0.09992      0.00000     0.39928    0.00080     0.40008
      H   28    0.11179      0.00000     0.38729    0.00092     0.38821
      H   29    0.22870      0.00000     0.26490    0.00640     0.27130
 =======================================================================
   * Total *   -0.00000     18.99423    41.76175    0.24402    61.00000

 Normal termination of Gaussian 16 at Thu Dec 10 15:23:26 2020.
