 Gaussian 16, Revision A.03,

 -----------------------------------------------------------
 # opt freq B3LYP/6-31G(d) empiricaldispersion=gd3bj scf=xqc
 -----------------------------------------------------------

 -------------------------------
 CID_142694646_JID_1121_neutraal
 -------------------------------
 Symbolic Z-matrix:
 Charge =  0 Multiplicity = 1

 SCF Done:  E(RB3LYP) =  -572.478751773     A.U. after   14 cycles
 SCF Done:  E(RB3LYP) =  -572.483287288     A.U. after   12 cycles
 SCF Done:  E(RB3LYP) =  -572.483774863     A.U. after   12 cycles
 SCF Done:  E(RB3LYP) =  -572.483903578     A.U. after   13 cycles
 SCF Done:  E(RB3LYP) =  -572.484199255     A.U. after   13 cycles
 SCF Done:  E(RB3LYP) =  -572.484301790     A.U. after   13 cycles
 SCF Done:  E(RB3LYP) =  -572.484789658     A.U. after   12 cycles
 SCF Done:  E(RB3LYP) =  -572.485038909     A.U. after   13 cycles
 SCF Done:  E(RB3LYP) =  -572.485203976     A.U. after   12 cycles
 SCF Done:  E(RB3LYP) =  -572.485224657     A.U. after   11 cycles
 SCF Done:  E(RB3LYP) =  -572.485234684     A.U. after   10 cycles
 SCF Done:  E(RB3LYP) =  -572.485237339     A.U. after   10 cycles
 SCF Done:  E(RB3LYP) =  -572.485238896     A.U. after   10 cycles
 SCF Done:  E(RB3LYP) =  -572.485239159     A.U. after    8 cycles
 SCF Done:  E(RB3LYP) =  -572.485239196     A.U. after    7 cycles
 Optimization completed.
    -- Stationary point found.
 Normal termination of Gaussian 16 at Tue Dec  8 19:14:27 2020.

 --------------------------------------------------------------------
 #N Geom=AllCheck Guess=TCheck SCRF=Check GenChk RB3LYP/6-31G(d) Freq
 --------------------------------------------------------------------

 Structure from the checkpoint file:  "JID_1121.chk"
 -------------------------------
 CID_142694646_JID_1121_neutraal
 -------------------------------
 Charge =  0 Multiplicity = 1

 SCF Done:  E(RB3LYP) =  -572.485239196     A.U. after    1 cycles

  Exact polarizability: 105.195  -6.427  77.021  -9.369   5.686  60.554
 Approx polarizability: 148.738  -9.487 118.193 -22.539  18.036  96.117

                      1                      2                      3
                      A                      A                      A
 Frequencies --     22.7953                38.2115                91.4827
 Red. masses --      4.8534                 5.9570                 4.2965
 Frc consts  --      0.0015                 0.0051                 0.0212
 IR Inten    --      0.5285                 2.3629                 1.1077

                      4                      5                      6
                      A                      A                      A
 Frequencies --    132.4655               158.4568               203.8650
 Red. masses --      1.1306                 4.1088                 5.0742
 Frc consts  --      0.0117                 0.0608                 0.1243
 IR Inten    --      0.7882                 5.1198                 2.6639

                      7                      8                      9
                      A                      A                      A
 Frequencies --    230.7532               252.5330               300.3169
 Red. masses --      4.0326                 3.6442                 2.9196
 Frc consts  --      0.1265                 0.1369                 0.1551
 IR Inten    --      5.2349                 5.4868                 5.4509

                     10                     11                     12
                      A                      A                      A
 Frequencies --    405.0003               445.9932               515.4589
 Red. masses --      3.2719                 3.1672                 4.8481
 Frc consts  --      0.3162                 0.3712                 0.7589
 IR Inten    --     10.3197                 4.8588                 3.6570

                     13                     14                     15
                      A                      A                      A
 Frequencies --    566.4620               667.4877               707.5092
 Red. masses --      4.7749                 4.5362                 7.2037
 Frc consts  --      0.9027                 1.1908                 2.1246
 IR Inten    --      8.5343                 8.8350                 1.1751

                     16                     17                     18
                      A                      A                      A
 Frequencies --    721.5807               784.8182               857.6535
 Red. masses --      3.9410                 5.4169                 3.9264
 Frc consts  --      1.2090                 1.9658                 1.7016
 IR Inten    --      6.5287                 4.7277                11.0718

                     19                     20                     21
                      A                      A                      A
 Frequencies --    883.0015               895.2849               915.7739
 Red. masses --      1.6173                 5.1649                 2.9274
 Frc consts  --      0.7429                 2.4391                 1.4465
 IR Inten    --     17.2766                40.3551                13.7132

                     22                     23                     24
                      A                      A                      A
 Frequencies --    966.4308              1037.9215              1048.7619
 Red. masses --      2.1994                 1.8503                 5.2409
 Frc consts  --      1.2103                 1.1744                 3.3963
 IR Inten    --      7.7509                 3.7846                23.2311

                     25                     26                     27
                      A                      A                      A
 Frequencies --   1081.1560              1146.0034              1177.1005
 Red. masses --      8.7513                 2.8713                 1.8022
 Frc consts  --      6.0270                 2.2218                 1.4713
 IR Inten    --     83.1941                85.4926                81.7184

                     28                     29                     30
                      A                      A                      A
 Frequencies --   1186.2910              1192.1285              1209.6708
 Red. masses --      1.2758                 1.6751                 1.1116
 Frc consts  --      1.0578                 1.4026                 0.9584
 IR Inten    --      1.1720                14.0404                 3.3755

                     31                     32                     33
                      A                      A                      A
 Frequencies --   1219.8905              1298.3741              1331.2930
 Red. masses --      1.4404                 3.0897                 1.6468
 Frc consts  --      1.2630                 3.0688                 1.7196
 IR Inten    --      3.1717               317.3164                 6.8881

                     34                     35                     36
                      A                      A                      A
 Frequencies --   1350.4526              1391.4134              1492.8838
 Red. masses --      1.9676                 1.8599                 1.1942
 Frc consts  --      2.1142                 2.1216                 1.5681
 IR Inten    --     41.2829                 5.8695                 6.9303

                     37                     38                     39
                      A                      A                      A
 Frequencies --   1494.8021              1513.0778              1522.7221
 Red. masses --      1.0948                 1.0475                 1.0798
 Frc consts  --      1.4412                 1.4130                 1.4752
 IR Inten    --     11.3465                 7.1469                 9.1660

                     40                     41                     42
                      A                      A                      A
 Frequencies --   1524.6059              1713.0180              1843.3014
 Red. masses --      1.0544                 7.4983                11.0912
 Frc consts  --      1.4440                12.9639                22.2034
 IR Inten    --      3.6571                41.3343               267.0442

                     43                     44                     45
                      A                      A                      A
 Frequencies --   1879.4502              3050.8983              3055.2581
 Red. masses --     12.6104                 1.0676                 1.0660
 Frc consts  --     26.2447                 5.8546                 5.8629
 IR Inten    --    465.6570                 1.3343                29.4790

                     46                     47                     48
                      A                      A                      A
 Frequencies --   3082.7746              3111.2479              3153.2858
 Red. masses --      1.0292                 1.0982                 1.0956
 Frc consts  --      5.7629                 6.2632                 6.4183
 IR Inten    --     26.6465                10.7835                 3.0751

                     49                     50                     51
                      A                      A                      A
 Frequencies --   3161.0357              3191.7589              3266.3798
 Red. masses --      1.1080                 1.1078                 1.0978
 Frc consts  --      6.5232                 6.6490                 6.9006
 IR Inten    --     16.9852                12.3603                 0.2613

 - Thermochemistry -
 -------------------
 Temperature   298.150 Kelvin.  Pressure   1.00000 Atm.
 Atom     1 has atomic number  6 and mass  12.00000

 Molecular mass:   156.04226 amu.
 Principal axes and moments of inertia in atomic units:
                           1         2         3
     Eigenvalues --   712.651953150.008563467.82975
           X            0.99977  -0.01954   0.00865
           Y            0.01981   0.99924  -0.03351
           Z           -0.00799   0.03367   0.99940
 This molecule is an asymmetric top.
 Rotational symmetry number  1.
 Warning -- assumption of classical behavior for rotation
           may cause significant error
 Rotational temperatures (Kelvin)      0.12154     0.02750     0.02498
 Rotational constants (GHZ):           2.53243     0.57293     0.52042
 Zero-point vibrational energy     385737.6 (Joules/Mol)
                                   92.19350 (Kcal/Mol)
 Warning -- explicit consideration of  13 degrees of freedom as
           vibrations may cause significant error
 Vibrational temperatures:     32.80    54.98   131.62   190.59   227.98
          (Kelvin)            293.32   332.00   363.34   432.09   582.71
                              641.68   741.63   815.01   960.37  1017.95
                             1038.19  1129.18  1233.97  1270.44  1288.12
                             1317.59  1390.48  1493.34  1508.93  1555.54
                             1648.84  1693.59  1706.81  1715.21  1740.45
                             1755.15  1868.07  1915.43  1943.00  2001.93
                             2147.93  2150.69  2176.98  2190.86  2193.57
                             2464.65  2652.10  2704.11  4389.56  4395.84
                             4435.43  4476.39  4536.87  4548.03  4592.23
                             4699.59

 Zero-point correction=                           0.146920 (Hartree/Particle)
 Thermal correction to Energy=                    0.157448
 Thermal correction to Enthalpy=                  0.158392
 Thermal correction to Gibbs Free Energy=         0.108609
 Sum of electronic and zero-point Energies=           -572.338319
 Sum of electronic and thermal Energies=              -572.327792
 Sum of electronic and thermal Enthalpies=            -572.326848
 Sum of electronic and thermal Free Energies=         -572.376630

                     E (Thermal)             CV                S
                      KCal/Mol        Cal/Mol-Kelvin    Cal/Mol-Kelvin
 Total                   98.800             36.757            104.776
 Electronic               0.000              0.000              0.000
 Translational            0.889              2.981             41.044
 Rotational               0.889              2.981             30.433
 Vibrational             97.022             30.796             33.299
 Vibration     1          0.593              1.985              6.374
 Vibration     2          0.594              1.982              5.350
 Vibration     3          0.602              1.955              3.628
 Vibration     4          0.613              1.921              2.910
 Vibration     5          0.621              1.893              2.568
 Vibration     6          0.640              1.834              2.098
 Vibration     7          0.652              1.794              1.873
 Vibration     8          0.664              1.759              1.713
 Vibration     9          0.693              1.673              1.415
 Vibration    10          0.770              1.459              0.944
 Vibration    11          0.805              1.370              0.808
 Vibration    12          0.870              1.216              0.621
 Vibration    13          0.922              1.104              0.511

 Optimization completed.
    -- Stationary point found.
 Normal termination of Gaussian 16 at Tue Dec  8 19:17:48 2020.

 ----------------------------------------------------------------------
 # B3LYP/6-311++G(d,p) empiricaldispersion=gd3bj scf=xqc pop=npa geom=c
 heck
 ----------------------------------------------------------------------

 ---------------------------------------
 CID_142694646_JID_1121_Energie_neutraal
 ---------------------------------------
 Structure from the checkpoint file:  "JID_1121.chk"
 Charge =  0 Multiplicity = 1

 SCF Done:  E(RB3LYP) =  -572.656691546     A.U. after   15 cycles
 Normal termination of Gaussian 16 at Tue Dec  8 19:19:01 2020.

 ----------------------------------------------------------------------
 # B3LYP/6-311++G(d,p) empiricaldispersion=gd3bj scf=xqc pop=npa geom=c
 heck
 ----------------------------------------------------------------------

 -------------------------------------
 CID_142694646_JID_1121_Energie_kation
 -------------------------------------
 Structure from the checkpoint file:  "JID_1121.chk"
 Charge =  1 Multiplicity = 2

 SCF Done:  E(UB3LYP) =  -572.297049950     A.U. after   27 cycles
 Normal termination of Gaussian 16 at Tue Dec  8 19:22:40 2020.
 Gaussian 16:  ES64L-G16RevA.03 25-Dec-2016

 ----------------------------------------------------------------------
 # B3LYP/6-311++G(d,p) empiricaldispersion=gd3bj scf=xqc pop=npa geom=c
 heck
 ----------------------------------------------------------------------

 ------------------------------------
 CID_142694646_JID_1121_Energie_anion
 ------------------------------------
 Structure from the checkpoint file:  "JID_1121.chk"
 Charge = -1 Multiplicity = 2

                         Standard orientation:
 ---------------------------------------------------------------------
 Center     Atomic      Atomic             Coordinates (Angstroms)
 Number     Number       Type             X           Y           Z
 ---------------------------------------------------------------------
      1          6           0       -3.192413    1.246359   -0.635699
      2          8           0       -2.105772    0.728460    0.155743
      3          6           0       -1.921579   -0.607119    0.075937
      4          8           0       -2.609482   -1.347335   -0.585554
      5          6           0       -0.740540   -1.047121    0.935346
      6          6           0        0.557453   -0.436033    0.499538
      7          6           0        1.587681   -1.026011   -0.116799
      8          6           0        2.662459   -0.030778   -0.334861
      9          8           0        3.742505   -0.158347   -0.851271
     10          8           0        2.222725    1.172358    0.180552
     11          6           0        0.910341    1.012810    0.719189
     12          1           0       -3.192419    2.321893   -0.461234
     13          1           0       -4.137989    0.801745   -0.316823
     14          1           0       -3.030427    1.024558   -1.693103
     15          1           0       -0.956128   -0.757531    1.972655
     16          1           0       -0.691446   -2.135580    0.880895
     17          1           0        1.684358   -2.058402   -0.425685
     18          1           0        0.922506    1.277868    1.784561
     19          1           0        0.221326    1.691706    0.207059
 ---------------------------------------------------------------------

 SCF Done:  E(UB3LYP) =  -572.661371068     A.U. after   33 cycles
 SCF Done:  E(UB3LYP) =  -572.661371068     a.u. after    1 cycles

 The electronic state is 2-A.
 Alpha  occ. eigenvalues --  -19.06044 -19.01866 -18.99691 -18.95356 -10.18131
 Alpha  occ. eigenvalues --  -10.14147 -10.12720 -10.09937 -10.06829 -10.04953
 Alpha  occ. eigenvalues --  -10.02946  -0.99860  -0.95730  -0.91066  -0.87976
 Alpha  occ. eigenvalues --   -0.69832  -0.64179  -0.59521  -0.58305  -0.46952
 Alpha  occ. eigenvalues --   -0.44398  -0.42929  -0.39187  -0.38168  -0.37357
 Alpha  occ. eigenvalues --   -0.36152  -0.35421  -0.31883  -0.31669  -0.30127
 Alpha  occ. eigenvalues --   -0.29246  -0.26794  -0.26011  -0.25591  -0.25160
 Alpha  occ. eigenvalues --   -0.22013  -0.20458  -0.18078  -0.16154  -0.13716
 Alpha  occ. eigenvalues --   -0.13295   0.04568
 Alpha virt. eigenvalues --    0.06775   0.08957   0.09827   0.10340   0.11159
 Alpha virt. eigenvalues --    0.11559   0.12127   0.12630   0.13387   0.14547
 Alpha virt. eigenvalues --    0.16214   0.16592   0.17124   0.17540   0.18579

  Beta  occ. eigenvalues --  -19.06027 -19.01835 -18.99609 -18.95159 -10.17992
  Beta  occ. eigenvalues --  -10.14036 -10.12704 -10.09959 -10.06855 -10.04572
  Beta  occ. eigenvalues --  -10.02839  -0.99754  -0.95579  -0.90945  -0.87693
  Beta  occ. eigenvalues --   -0.69340  -0.63963  -0.59301  -0.58170  -0.46744
  Beta  occ. eigenvalues --   -0.44031  -0.42598  -0.38943  -0.37927  -0.37253
  Beta  occ. eigenvalues --   -0.36008  -0.35117  -0.31704  -0.31400  -0.29984
  Beta  occ. eigenvalues --   -0.28960  -0.26168  -0.25728  -0.25350  -0.25008
  Beta  occ. eigenvalues --   -0.21862  -0.20207  -0.17605  -0.15724  -0.13095
  Beta  occ. eigenvalues --   -0.12302
  Beta virt. eigenvalues --    0.06924   0.08839   0.09996   0.10308   0.10701
  Beta virt. eigenvalues --    0.11445   0.12070   0.12885   0.12986   0.13598
  Beta virt. eigenvalues --    0.14564   0.16138   0.16646   0.17238   0.17487

 Mulliken charges and spin densities:
               1          2
     1  C    0.210890  -0.465762
     2  O   -0.112123   0.044372
     3  C   -0.058511  -0.004968
     4  O   -0.319389   0.047726
     5  C    1.039363  -1.675014
     6  C   -0.440271   1.349926
     7  C   -0.140733   0.216345
     8  C   -0.047141   0.047523
     9  O   -0.414372   0.060153
    10  O   -0.148335   0.016882
    11  C   -0.191074  -0.464315
    12  H   -0.058957   0.191853
    13  H   -0.033214   0.193464
    14  H    0.068322   0.109820
    15  H   -0.664897   0.883557
    16  H    0.105831   0.081695
    17  H    0.090511   0.059697
    18  H   -0.178717   0.372595
    19  H    0.292816  -0.065548
 Sum of Mulliken charges =  -1.00000   1.00000

 Dipole moment (field-independent basis, Debye):
    X=             -4.0119    Y=              1.2516    Z=             -1.5565  Tot=              4.4815
 Quadrupole moment (field-independent basis, Debye-Ang):
   XX=           -120.7284   YY=            -80.5569   ZZ=            -87.0131
   XY=             -6.6120   XZ=              7.7673   YZ=             -1.9421

 Summary of Natural Population Analysis:

                                       Natural Population
                Natural  -----------------------------------------------
    Atom  No    Charge         Core      Valence    Rydberg      Total
 -----------------------------------------------------------------------
      C    1   -0.10374      0.99960     2.09601    0.00814     3.10374
      O    2   -0.28283      0.99986     3.27386    0.00911     4.28283
      C    3    0.43106      0.99970     1.54330    0.02594     2.56894
      O    4   -0.30529      0.99987     3.29992    0.00551     4.30529
      C    5   -0.25168      0.99954     2.24146    0.01067     3.25168
      C    6    0.07243      0.99949     1.91853    0.00954     2.92757
      C    7   -0.15368      0.99938     2.14461    0.00968     3.15368
      C    8    0.39959      0.99967     1.57459    0.02615     2.60041
      O    9   -0.29563      0.99986     3.28936    0.00641     4.29563
      O   10   -0.28581      0.99987     3.27864    0.00730     4.28581
      C   11   -0.02488      0.99953     2.01273    0.01262     3.02488
      H   12    0.08894      0.00000     0.40991    0.00115     0.41106
      H   13    0.08940      0.00000     0.40922    0.00138     0.41060
      H   14    0.09030      0.00000     0.40854    0.00116     0.40970
      H   15    0.12460      0.00000     0.36580    0.00960     0.37540
      H   16    0.11241      0.00000     0.38667    0.00093     0.38759
      H   17    0.10192      0.00000     0.39714    0.00094     0.39808
      H   18    0.09563      0.00000     0.40206    0.00231     0.40437
      H   19    0.09728      0.00000     0.40114    0.00158     0.40272
 =======================================================================
   * Total *    0.00000     10.99638    29.85349    0.15012    41.00000

 Normal termination of Gaussian 16 at Tue Dec  8 19:27:07 2020.
