 Gaussian 16, Revision A.03,

 -----------------------------------------------------------
 # opt freq B3LYP/6-31G(d) empiricaldispersion=gd3bj scf=xqc
 -----------------------------------------------------------

 -------------------------------
 CID_150080213_JID_8791_neutraal
 -------------------------------
 Symbolic Z-matrix:
 Charge =  0 Multiplicity = 1

 SCF Done:  E(RB3LYP) =  -1643.01484839     A.U. after   16 cycles
 SCF Done:  E(RB3LYP) =  -1643.03094862     A.U. after   15 cycles
 SCF Done:  E(RB3LYP) =  -1643.03052907     A.U. after   15 cycles
 SCF Done:  E(RB3LYP) =  -1643.03338068     A.U. after   14 cycles
 SCF Done:  E(RB3LYP) =  -1643.03513364     A.U. after   13 cycles
 SCF Done:  E(RB3LYP) =  -1643.03529181     A.U. after   14 cycles
 SCF Done:  E(RB3LYP) =  -1643.03565545     A.U. after   13 cycles
 SCF Done:  E(RB3LYP) =  -1643.03581380     A.U. after   12 cycles
 SCF Done:  E(RB3LYP) =  -1643.03587775     A.U. after   11 cycles
 SCF Done:  E(RB3LYP) =  -1643.03605823     A.U. after   15 cycles
 SCF Done:  E(RB3LYP) =  -1643.03972200     A.U. after    9 cycles
 SCF Done:  E(RB3LYP) =  -1643.03972232     A.U. after   10 cycles
 SCF Done:  E(RB3LYP) =  -1643.03972245     A.U. after    8 cycles
 SCF Done:  E(RB3LYP) =  -1643.03972249     A.U. after    7 cycles
 Optimization completed.
    -- Stationary point found.
 Normal termination of Gaussian 16 at Fri Dec 11 21:29:31 2020.

 --------------------------------------------------------------------
 #N Geom=AllCheck Guess=TCheck SCRF=Check GenChk RB3LYP/6-31G(d) Freq
 --------------------------------------------------------------------

 Structure from the checkpoint file:  "JID_8791.chk"
 -------------------------------
 CID_150080213_JID_8791_neutraal
 -------------------------------
 Charge =  0 Multiplicity = 1

 SCF Done:  E(RB3LYP) =  -1643.03972249     A.U. after    1 cycles

  Exact polarizability: 161.962 -23.721 170.365   7.075   1.761 102.332
 Approx polarizability: 304.252 -55.812 281.291  12.451   4.126 164.434

                      1                      2                      3
                      A                      A                      A
 Frequencies --     15.0524                38.9357                74.0913
 Red. masses --      5.3470                10.7833                 6.9759
 Frc consts  --      0.0007                 0.0096                 0.0226
 IR Inten    --      3.7094                 0.8297                 0.4015

                      4                      5                      6
                      A                      A                      A
 Frequencies --     78.9155               113.2960               133.4206
 Red. masses --      8.6244                 8.9128                 5.8662
 Frc consts  --      0.0316                 0.0674                 0.0615
 IR Inten    --      1.3822                 3.4523                 0.6767

                      7                      8                      9
                      A                      A                      A
 Frequencies --    149.1579               160.2358               194.4442
 Red. masses --      4.0476                12.9159                 4.2779
 Frc consts  --      0.0531                 0.1954                 0.0953
 IR Inten    --      0.8999                 0.1713                 6.0301

                     10                     11                     12
                      A                      A                      A
 Frequencies --    199.9471               213.6133               219.9903
 Red. masses --      1.7462                 1.4580                 1.7689
 Frc consts  --      0.0411                 0.0392                 0.0504
 IR Inten    --      0.6795                 0.1791                 0.5027

                     13                     14                     15
                      A                      A                      A
 Frequencies --    222.6541               249.9120               285.5691
 Red. masses --      3.6922                 5.7610                 4.3748
 Frc consts  --      0.1078                 0.2120                 0.2102
 IR Inten    --      5.8730                 2.3073                 3.0625

                     16                     17                     18
                      A                      A                      A
 Frequencies --    300.0660               332.6423               335.5860
 Red. masses --      5.1689                 5.9629                 3.8931
 Frc consts  --      0.2742                 0.3887                 0.2583
 IR Inten    --      2.8550                 3.6297                 1.0064

                     19                     20                     21
                      A                      A                      A
 Frequencies --    362.1438               383.5650               405.3374
 Red. masses --      5.5787                 5.8871                10.5951
 Frc consts  --      0.4311                 0.5103                 1.0256
 IR Inten    --      1.2512                15.2122                 0.5713

                     22                     23                     24
                      A                      A                      A
 Frequencies --    425.0476               477.5301               503.5137
 Red. masses --      9.1201                 7.2426                 5.7732
 Frc consts  --      0.9708                 0.9731                 0.8624
 IR Inten    --      2.6832                 2.1682                40.1132

                     25                     26                     27
                      A                      A                      A
 Frequencies --    535.6511               541.1353               557.9444
 Red. masses --      6.6922                 7.3866                13.6598
 Frc consts  --      1.1313                 1.2744                 2.5054
 IR Inten    --     74.1205                71.8110                 7.1298

                     28                     29                     30
                      A                      A                      A
 Frequencies --    565.1403               599.6472               606.2647
 Red. masses --      6.7639                 6.4878                13.2931
 Frc consts  --      1.2728                 1.3745                 2.8787
 IR Inten    --     14.3300                48.0233               153.4972

                     31                     32                     33
                      A                      A                      A
 Frequencies --    648.1091               711.8617               732.1406
 Red. masses --      6.3705                11.5015                 6.8194
 Frc consts  --      1.5766                 3.4340                 2.1537
 IR Inten    --     37.5710                32.1783                38.7051

                     34                     35                     36
                      A                      A                      A
 Frequencies --    768.3978               778.7289               828.8542
 Red. masses --      6.4906                 3.7636                 1.8355
 Frc consts  --      2.2579                 1.3447                 0.7430
 IR Inten    --     66.0972                 6.3652                 3.3429

                     37                     38                     39
                      A                      A                      A
 Frequencies --    858.6841               971.0307               996.0104
 Red. masses --      3.1633                 1.3885                 1.4344
 Frc consts  --      1.3742                 0.7714                 0.8384
 IR Inten    --     45.2715                 1.1553                30.3358

                     40                     41                     42
                      A                      A                      A
 Frequencies --   1004.6229              1008.9308              1051.2596
 Red. masses --      1.4066                 1.3950                 4.8562
 Frc consts  --      0.8364                 0.8366                 3.1620
 IR Inten    --      8.9713                22.3062                26.8466

                     43                     44                     45
                      A                      A                      A
 Frequencies --   1082.3100              1107.1110              1129.8307
 Red. masses --      4.8239                 2.8158                 5.3754
 Frc consts  --      3.3293                 2.0335                 4.0428
 IR Inten    --     41.3851                44.2599               103.1194

                     46                     47                     48
                      A                      A                      A
 Frequencies --   1139.1924              1164.6904              1173.1795
 Red. masses --      4.3099                 1.4607                 1.7446
 Frc consts  --      3.2954                 1.1674                 1.4148
 IR Inten    --    115.8030                 3.8050                32.5790

                     49                     50                     51
                      A                      A                      A
 Frequencies --   1191.5300              1263.3878              1267.9436
 Red. masses --      1.6669                 2.3887                13.1995
 Frc consts  --      1.3943                 2.2464                12.5028
 IR Inten    --      6.4510                20.9336               143.4195

                     52                     53                     54
                      A                      A                      A
 Frequencies --   1299.2488              1330.7504              1334.9583
 Red. masses --      2.8690                12.1774                 4.1101
 Frc consts  --      2.8534                12.7057                 4.3156
 IR Inten    --      9.9847               210.4213                15.2025

                     55                     56                     57
                      A                      A                      A
 Frequencies --   1363.0894              1387.5563              1451.7782
 Red. masses --     15.8660                 1.2016                 2.4743
 Frc consts  --     17.3687                 1.3631                 3.0725
 IR Inten    --    175.2034                11.3350                56.6093

                     58                     59                     60
                      A                      A                      A
 Frequencies --   1467.7343              1470.5102              1479.2949
 Red. masses --      1.1151                 1.1491                 1.0520
 Frc consts  --      1.4153                 1.4640                 1.3564
 IR Inten    --     10.2482                 1.4144                 4.8848

                     61                     62                     63
                      A                      A                      A
 Frequencies --   1495.3307              1525.8721              1534.6602
 Red. masses --      2.1898                 1.0505                 1.0554
 Frc consts  --      2.8849                 1.4411                 1.4646
 IR Inten    --     33.3776                11.2535                22.0328

                     64                     65                     66
                      A                      A                      A
 Frequencies --   1608.1586              1635.9424              2275.0283
 Red. masses --      4.8622                 6.7240                13.9803
 Frc consts  --      7.4087                10.6027                42.6326
 IR Inten    --      5.2545                 5.5784               378.6044

                     67                     68                     69
                      A                      A                      A
 Frequencies --   3055.3608              3101.5521              3144.9785
 Red. masses --      1.0439                 1.0310                 1.0938
 Frc consts  --      5.7416                 5.8435                 6.3740
 IR Inten    --     30.8675                 0.5320                 7.4523

                     70                     71                     72
                      A                      A                      A
 Frequencies --   3197.7090              3198.4651              3201.5400
 Red. masses --      1.1057                 1.1033                 1.0896
 Frc consts  --      6.6616                 6.6502                 6.5801
 IR Inten    --      0.2205                 0.3059                 9.6497

                     73                     74                     75
                      A                      A                      A
 Frequencies --   3223.1072              3230.1700              3249.6537
 Red. masses --      1.0942                 1.1070                 1.0940
 Frc consts  --      6.6974                 6.8051                 6.8068
 IR Inten    --     13.3898                 1.3895                 1.0433

 - Thermochemistry -
 -------------------
 Temperature   298.150 Kelvin.  Pressure   1.00000 Atm.
 Atom     1 has atomic number  6 and mass  12.00000

 Molecular mass:   291.00960 amu.
 Principal axes and moments of inertia in atomic units:
                           1         2         3
     Eigenvalues --  3781.050414606.473116750.56601
           X            0.99839  -0.05671  -0.00186
           Y            0.05672   0.99834   0.00958
           Z            0.00132  -0.00967   0.99995
 This molecule is an asymmetric top.
 Rotational symmetry number  1.
 Warning -- assumption of classical behavior for rotation
           may cause significant error
 Rotational temperatures (Kelvin)      0.02291     0.01880     0.01283
 Rotational constants (GHZ):           0.47731     0.39178     0.26735
 Zero-point vibrational energy     487004.0 (Joules/Mol)
                                  116.39674 (Kcal/Mol)
 Warning -- explicit consideration of  30 degrees of freedom as
           vibrations may cause significant error
 Vibrational temperatures:     21.66    56.02   106.60   113.54   163.01
          (Kelvin)            191.96   214.60   230.54   279.76   287.68
                              307.34   316.52   320.35   359.57   410.87
                              431.73   478.60   482.83   521.04   551.86
                              583.19   611.55   687.06   724.44   770.68
                              778.57   802.76   813.11   862.76   872.28
                              932.48  1024.21  1053.39  1105.55  1120.42
                             1192.54  1235.45  1397.10  1433.04  1445.43
                             1451.63  1512.53  1557.20  1592.89  1625.57
                             1639.04  1675.73  1687.94  1714.35  1817.73
                             1824.29  1869.33  1914.65  1920.71  1961.18
                             1996.38  2088.79  2111.74  2115.74  2128.38
                             2151.45  2195.39  2208.03  2313.78  2353.76
                             3273.26  4395.98  4462.44  4524.92  4600.79
                             4601.88  4606.30  4637.33  4647.49  4675.53

 Zero-point correction=                           0.185490 (Hartree/Particle)
 Thermal correction to Energy=                    0.203033
 Thermal correction to Enthalpy=                  0.203977
 Thermal correction to Gibbs Free Energy=         0.139149
 Sum of electronic and zero-point Energies=          -1642.854232
 Sum of electronic and thermal Energies=             -1642.836690
 Sum of electronic and thermal Enthalpies=           -1642.835745
 Sum of electronic and thermal Free Energies=        -1642.900574

                     E (Thermal)             CV                S
                      KCal/Mol        Cal/Mol-Kelvin    Cal/Mol-Kelvin
 Total                  127.405             64.348            136.443
 Electronic               0.000              0.000              0.000
 Translational            0.889              2.981             42.902
 Rotational               0.889              2.981             33.130
 Vibrational            125.628             58.387             60.411
 Vibration     1          0.593              1.986              7.199
 Vibration     2          0.594              1.981              5.313
 Vibration     3          0.599              1.966              4.042
 Vibration     4          0.600              1.963              3.918
 Vibration     5          0.607              1.938              3.212
 Vibration     6          0.613              1.920              2.896
 Vibration     7          0.618              1.904              2.683
 Vibration     8          0.622              1.891              2.547
 Vibration     9          0.635              1.848              2.185
 Vibration    10          0.638              1.840              2.134
 Vibration    11          0.644              1.820              2.013
 Vibration    12          0.647              1.811              1.959
 Vibration    13          0.648              1.807              1.937
 Vibration    14          0.663              1.763              1.731
 Vibration    15          0.683              1.700              1.500
 Vibration    16          0.693              1.674              1.417
 Vibration    17          0.715              1.610              1.247
 Vibration    18          0.717              1.604              1.233
 Vibration    19          0.736              1.550              1.113
 Vibration    20          0.753              1.505              1.025
 Vibration    21          0.770              1.459              0.943
 Vibration    22          0.787              1.416              0.875
 Vibration    23          0.834              1.300              0.717
 Vibration    24          0.859              1.242              0.649
 Vibration    25          0.891              1.171              0.575
 Vibration    26          0.896              1.159              0.563
 Vibration    27          0.913              1.122              0.528
 Vibration    28          0.921              1.107              0.514
 Vibration    29          0.958              1.033              0.450
 Vibration    30          0.965              1.019              0.439

 Optimization completed.
    -- Stationary point found.
 Normal termination of Gaussian 16 at Fri Dec 11 21:41:31 2020.

 ----------------------------------------------------------------------
 # B3LYP/6-311++G(d,p) empiricaldispersion=gd3bj scf=xqc pop=npa geom=c
 heck
 ----------------------------------------------------------------------

 ---------------------------------------
 CID_150080213_JID_8791_Energie_neutraal
 ---------------------------------------
 Structure from the checkpoint file:  "JID_8791.chk"
 Charge =  0 Multiplicity = 1

 SCF Done:  E(RB3LYP) =  -1643.32902421     A.U. after   18 cycles
 Normal termination of Gaussian 16 at Fri Dec 11 21:47:37 2020.

 ----------------------------------------------------------------------
 # B3LYP/6-311++G(d,p) empiricaldispersion=gd3bj scf=xqc pop=npa geom=c
 heck
 ----------------------------------------------------------------------

 -------------------------------------
 CID_150080213_JID_8791_Energie_kation
 -------------------------------------
 Structure from the checkpoint file:  "JID_8791.chk"
 Charge =  1 Multiplicity = 2

 SCF Done:  E(UB3LYP) =  -1642.97806617     A.U. after   33 cycles
 SCF Done:  E(UB3LYP) =  -1642.97806617     a.u. after    1 cycles
 Normal termination of Gaussian 16 at Fri Dec 11 22:03:52 2020.
 Gaussian 16:  ES64L-G16RevA.03 25-Dec-2016

 ----------------------------------------------------------------------
 # B3LYP/6-311++G(d,p) empiricaldispersion=gd3bj scf=xqc pop=npa geom=c
 heck
 ----------------------------------------------------------------------

 ------------------------------------
 CID_150080213_JID_8791_Energie_anion
 ------------------------------------
 Structure from the checkpoint file:  "JID_8791.chk"
 Charge = -1 Multiplicity = 2

                         Standard orientation:
 ---------------------------------------------------------------------
 Center     Atomic      Atomic             Coordinates (Angstroms)
 Number     Number       Type             X           Y           Z
 ---------------------------------------------------------------------
      1          6           0        1.237610   -0.120697    2.021838
      2          7           0        0.905128    0.076090    0.590021
      3          6           0       -0.094091    1.079990    0.375520
      4          6           0       -1.398444    0.720146    0.008176
      5          7           0       -2.396319    1.568243   -0.165696
      6          6           0       -2.150894    2.869339    0.018214
      7          6           0       -0.896172    3.352670    0.389328
      8          6           0        0.142788    2.445537    0.577570
      9         16           0       -1.866954   -1.004202   -0.381292
     10          8           0       -3.312663   -1.108794   -0.351916
     11          8           0       -1.078085   -1.454643   -1.531174
     12          7           0       -1.322137   -1.878643    1.046682
     13          7           0       -0.309317   -2.565758    0.816812
     14          7           0        0.609200   -3.218858    0.691816
     15         16           0        2.326296    0.202416   -0.401705
     16          8           0        2.750138    1.604676   -0.518578
     17          8           0        3.248061   -0.800029    0.130350
     18          6           0        1.703753   -0.328496   -1.994684
     19          1           0        0.305836   -0.360946    2.537105
     20          1           0        1.684004    0.772958    2.474493
     21          1           0        1.931663   -0.955896    2.103601
     22          1           0       -2.990995    3.540940   -0.137199
     23          1           0       -0.736943    4.416653    0.530545
     24          1           0        1.136963    2.774694    0.854015
     25          1           0        1.352482   -1.354789   -1.912685
     26          1           0        0.888712    0.327691   -2.300235
     27          1           0        2.546003   -0.240868   -2.684361
 ---------------------------------------------------------------------

 SCF Done:  E(UB3LYP) =  -1643.36692977     A.U. after   33 cycles
 SCF Done:  E(UB3LYP) =  -1643.36692977     a.u. after    1 cycles

 The electronic state is 2-A.
 Alpha  occ. eigenvalues --  -88.95977 -88.91982 -19.01753 -19.01729 -18.99504
 Alpha  occ. eigenvalues --  -18.98917 -14.33649 -14.24552 -14.24355 -14.23400
 Alpha  occ. eigenvalues --  -14.19928 -10.10670 -10.10530 -10.10299 -10.09988
 Alpha  occ. eigenvalues --  -10.09576 -10.08137 -10.06207  -8.02240  -7.98394
 Alpha  occ. eigenvalues --   -5.98508  -5.98474  -5.98320  -5.94699  -5.94626
 Alpha  occ. eigenvalues --   -5.94431  -1.01870  -1.01619  -0.98401  -0.90958
 Alpha  occ. eigenvalues --   -0.88665  -0.85069  -0.84347  -0.82635  -0.69307
 Alpha  occ. eigenvalues --   -0.67847  -0.66293  -0.59499  -0.58217  -0.54518
 Alpha  occ. eigenvalues --   -0.51799  -0.48543  -0.44725  -0.43218  -0.40338
 Alpha  occ. eigenvalues --   -0.39954  -0.39165  -0.38580  -0.37906  -0.37613
 Alpha  occ. eigenvalues --   -0.35712  -0.35317  -0.33904  -0.33053  -0.32868
 Alpha  occ. eigenvalues --   -0.32239  -0.32006  -0.30815  -0.30097  -0.29522
 Alpha  occ. eigenvalues --   -0.28958  -0.25973  -0.24928  -0.22785  -0.22200
 Alpha  occ. eigenvalues --   -0.21284  -0.21162  -0.20152  -0.19349  -0.18126
 Alpha  occ. eigenvalues --   -0.17491  -0.16835  -0.16365  -0.14914  -0.13667
 Alpha  occ. eigenvalues --    0.02135
 Alpha virt. eigenvalues --    0.06406   0.06994   0.07727   0.08775   0.09184
 Alpha virt. eigenvalues --    0.10333   0.11985   0.12169   0.12555   0.13051
 Alpha virt. eigenvalues --    0.13355   0.13616   0.14841   0.15069   0.15653

  Beta  occ. eigenvalues --  -88.95966 -88.91884 -19.01750 -19.01717 -18.99433
  Beta  occ. eigenvalues --  -18.98848 -14.33398 -14.24567 -14.23877 -14.23365
  Beta  occ. eigenvalues --  -14.19851 -10.10528 -10.10490 -10.09974 -10.09972
  Beta  occ. eigenvalues --  -10.09548 -10.08195 -10.05924  -8.02227  -7.98293
  Beta  occ. eigenvalues --   -5.98485  -5.98465  -5.98311  -5.94560  -5.94446
  Beta  occ. eigenvalues --   -5.94367  -1.01831  -1.01136  -0.98074  -0.90941
  Beta  occ. eigenvalues --   -0.88521  -0.84813  -0.83953  -0.82440  -0.69039
  Beta  occ. eigenvalues --   -0.67779  -0.65791  -0.59342  -0.57633  -0.54367
  Beta  occ. eigenvalues --   -0.51267  -0.48414  -0.44358  -0.43069  -0.40174
  Beta  occ. eigenvalues --   -0.39815  -0.39050  -0.37802  -0.37686  -0.37149
  Beta  occ. eigenvalues --   -0.35629  -0.35137  -0.33834  -0.32871  -0.32421
  Beta  occ. eigenvalues --   -0.32046  -0.31386  -0.30613  -0.29991  -0.28956
  Beta  occ. eigenvalues --   -0.28624  -0.25325  -0.24862  -0.22740  -0.22061
  Beta  occ. eigenvalues --   -0.21108  -0.20892  -0.19892  -0.18958  -0.17399
  Beta  occ. eigenvalues --   -0.17013  -0.16542  -0.15599  -0.14243  -0.13363
  Beta virt. eigenvalues --    0.07176   0.07666   0.07876   0.08545   0.09028
  Beta virt. eigenvalues --    0.09497   0.10313   0.12058   0.12333   0.12721
  Beta virt. eigenvalues --    0.13081   0.13357   0.13746   0.14897   0.15157

 Mulliken charges and spin densities:
               1          2
     1  C   -0.258609  -0.028950
     2  N    0.224825  -0.022753
     3  C    0.458410   0.146589
     4  C   -1.876043   0.187487
     5  N    0.112440   0.030556
     6  C   -0.079264   0.012499
     7  C   -0.244501   0.235920
     8  C   -0.651280  -0.062637
     9  S    0.928792   0.114098
    10  O   -0.066378   0.024145
    11  O   -0.258497  -0.003326
    12  N   -0.476778   0.014232
    13  N    0.356004   0.057707
    14  N   -0.255592   0.261149
    15  S    0.376158   0.016268
    16  O   -0.096461   0.001750
    17  O   -0.188264   0.004303
    18  C   -0.731686   0.001831
    19  H    0.165372   0.003929
    20  H    0.135705   0.005121
    21  H    0.204901   0.012879
    22  H    0.175121  -0.000524
    23  H    0.136817  -0.017590
    24  H    0.208367   0.002613
    25  H    0.240228   0.002081
    26  H    0.255309   0.000627
    27  H    0.204905  -0.000004
 Sum of Mulliken charges =  -1.00000   1.00000

 Dipole moment (field-independent basis, Debye):
    X=              3.0349    Y=              3.6747    Z=              0.2838  Tot=              4.7744
 Quadrupole moment (field-independent basis, Debye-Ang):
   XX=           -168.8980   YY=           -145.9283   ZZ=           -122.3660
   XY=             -4.2005   XZ=             -4.3026   YZ=              2.5698

 Summary of Natural Population Analysis:

                                       Natural Population
                Natural  -----------------------------------------------
    Atom  No    Charge         Core      Valence    Rydberg      Total
 -----------------------------------------------------------------------
      C    1   -0.18152      0.99963     2.17470    0.00719     3.18152
      N    2   -0.37215      0.99971     2.85513    0.01732     3.87215
      C    3    0.07016      0.99939     1.91492    0.01553     2.92984
      C    4    0.05829      0.99933     1.92236    0.02002     2.94171
      N    5   -0.20941      0.99965     2.69912    0.01063     3.70941
      C    6    0.02633      0.99959     1.95973    0.01434     2.97367
      C    7   -0.07287      0.99957     2.06484    0.00846     3.07287
      C    8   -0.09653      0.99952     2.08896    0.00804     3.09653
      S    9    1.09589      4.99927     1.80724    0.09760     6.90411
      O   10   -0.44072      0.99990     3.43513    0.00570     4.44072
      O   11   -0.46787      0.99990     3.45963    0.00833     4.46787
      N   12   -0.31182      0.99974     2.79494    0.01715     3.81182
      N   13    0.12775      0.99971     2.35506    0.01749     3.37225
      N   14    0.03607      0.99982     2.45157    0.01255     3.46393
      S   15    1.09329      4.99932     1.80977    0.09762     6.90671
      O   16   -0.46808      0.99991     3.46252    0.00566     4.46808
      O   17   -0.46020      0.99990     3.45438    0.00591     4.46020
      C   18   -0.38885      0.99960     2.38228    0.00698     3.38885
      H   19    0.10789      0.00000     0.39118    0.00093     0.39211
      H   20    0.08648      0.00000     0.41229    0.00123     0.41352
      H   21    0.11281      0.00000     0.38624    0.00095     0.38719
      H   22    0.08419      0.00000     0.41464    0.00117     0.41581
      H   23    0.09448      0.00000     0.40446    0.00106     0.40552
      H   24    0.11126      0.00000     0.38768    0.00106     0.38874
      H   25    0.13164      0.00000     0.36722    0.00114     0.36836
      H   26    0.12338      0.00000     0.37573    0.00089     0.37662
      H   27    0.11012      0.00000     0.38884    0.00104     0.38988
 =======================================================================
   * Total *   -0.00000     25.99346    48.62057    0.38597    75.00000

 Normal termination of Gaussian 16 at Fri Dec 11 22:19:50 2020.
