 Gaussian 16, Revision A.03,

 -----------------------------------------------------------
 # opt freq B3LYP/6-31G(d) empiricaldispersion=gd3bj scf=xqc
 -----------------------------------------------------------

 ------------------------------
 CID_62116842_JID_2877_neutraal
 ------------------------------
 Symbolic Z-matrix:
 Charge =  0 Multiplicity = 1

 SCF Done:  E(RB3LYP) =  -523.686726950     A.U. after   12 cycles
 SCF Done:  E(RB3LYP) =  -523.694010947     A.U. after   11 cycles
 SCF Done:  E(RB3LYP) =  -523.694678417     A.U. after   11 cycles
 SCF Done:  E(RB3LYP) =  -523.695014865     A.U. after   10 cycles
 SCF Done:  E(RB3LYP) =  -523.695117411     A.U. after   10 cycles
 SCF Done:  E(RB3LYP) =  -523.695182735     A.U. after   10 cycles
 SCF Done:  E(RB3LYP) =  -523.695205314     A.U. after    9 cycles
 SCF Done:  E(RB3LYP) =  -523.695210287     A.U. after    9 cycles
 SCF Done:  E(RB3LYP) =  -523.695212191     A.U. after    8 cycles
 SCF Done:  E(RB3LYP) =  -523.695213289     A.U. after    8 cycles
 SCF Done:  E(RB3LYP) =  -523.695213575     A.U. after    7 cycles
 SCF Done:  E(RB3LYP) =  -523.695213694     A.U. after    7 cycles
 SCF Done:  E(RB3LYP) =  -523.695213760     A.U. after    7 cycles
 SCF Done:  E(RB3LYP) =  -523.695213804     A.U. after    7 cycles
 SCF Done:  E(RB3LYP) =  -523.695213833     A.U. after    7 cycles
 SCF Done:  E(RB3LYP) =  -523.695213849     A.U. after    6 cycles
 Optimization completed.
    -- Stationary point found.
 Normal termination of Gaussian 16 at Wed Dec  9 18:13:33 2020.

 --------------------------------------------------------------------
 #N Geom=AllCheck Guess=TCheck SCRF=Check GenChk RB3LYP/6-31G(d) Freq
 --------------------------------------------------------------------

 Structure from the checkpoint file:  "JID_2877.chk"
 ------------------------------
 CID_62116842_JID_2877_neutraal
 ------------------------------
 Charge =  0 Multiplicity = 1

 SCF Done:  E(RB3LYP) =  -523.695213849     A.U. after    1 cycles

  Exact polarizability: 124.068   4.165 118.775  -0.194   2.104 103.222
 Approx polarizability: 151.466   1.361 157.205   3.651   1.251 152.259

                      1                      2                      3
                      A                      A                      A
 Frequencies --     20.0827                30.8988                39.8744
 Red. masses --      3.7673                 2.8533                 2.8120
 Frc consts  --      0.0009                 0.0016                 0.0026
 IR Inten    --      0.8707                 0.0577                 0.2542

                      4                      5                      6
                      A                      A                      A
 Frequencies --     67.5456                88.7469               131.1815
 Red. masses --      1.7485                 3.0436                 3.0625
 Frc consts  --      0.0047                 0.0141                 0.0311
 IR Inten    --      0.5653                 1.0864                 2.2055

                      7                      8                      9
                      A                      A                      A
 Frequencies --    142.2500               174.8261               223.9565
 Red. masses --      2.3969                 2.2880                 2.2745
 Frc consts  --      0.0286                 0.0412                 0.0672
 IR Inten    --      0.4004                 1.2009                 0.3968

                     10                     11                     12
                      A                      A                      A
 Frequencies --    237.1772               266.5792               280.6953
 Red. masses --      1.2377                 1.2040                 2.0545
 Frc consts  --      0.0410                 0.0504                 0.0954
 IR Inten    --      0.0529                 0.5712                 1.4474

                     13                     14                     15
                      A                      A                      A
 Frequencies --    301.1312               369.4818               423.2174
 Red. masses --      2.4525                 2.5865                 2.7586
 Frc consts  --      0.1310                 0.2080                 0.2911
 IR Inten    --      2.8342                 3.9024                 0.5544

                     16                     17                     18
                      A                      A                      A
 Frequencies --    447.7391               454.7968               475.6134
 Red. masses --      2.7548                 2.6584                 2.2570
 Frc consts  --      0.3254                 0.3240                 0.3008
 IR Inten    --      0.9738                 4.0315                 3.8382

                     19                     20                     21
                      A                      A                      A
 Frequencies --    553.5522               641.2005               753.0920
 Red. masses --      2.3072                 2.3167                 1.8397
 Frc consts  --      0.4165                 0.5612                 0.6148
 IR Inten    --      6.8693                 2.6595                48.5054

                     22                     23                     24
                      A                      A                      A
 Frequencies --    768.6642               800.7805               813.7470
 Red. masses --      1.4940                 1.2144                 1.2474
 Frc consts  --      0.5201                 0.4588                 0.4867
 IR Inten    --      4.6420                 0.2471                15.2295

                     25                     26                     27
                      A                      A                      A
 Frequencies --    838.0428               871.9823               910.4321
 Red. masses --      1.3414                 1.9753                 1.6757
 Frc consts  --      0.5551                 0.8849                 0.8183
 IR Inten    --     11.3442                 5.3808                 2.2207

                     28                     29                     30
                      A                      A                      A
 Frequencies --    911.1976               929.5940               953.4773
 Red. masses --      1.6593                 2.4812                 1.8866
 Frc consts  --      0.8117                 1.2633                 1.0105
 IR Inten    --      4.6456                 0.9451                 2.4576

                     31                     32                     33
                      A                      A                      A
 Frequencies --    959.2154               968.7236               997.6086
 Red. masses --      1.3412                 2.1101                 2.2053
 Frc consts  --      0.7271                 1.1667                 1.2931
 IR Inten    --      3.3920                 2.6891                 5.6211

                     34                     35                     36
                      A                      A                      A
 Frequencies --   1016.6821              1061.2585              1069.9568
 Red. masses --      1.9433                 2.4682                 2.5881
 Frc consts  --      1.1835                 1.6378                 1.7457
 IR Inten    --     10.0609                11.3036                11.1808

                     37                     38                     39
                      A                      A                      A
 Frequencies --   1086.7979              1109.9464              1138.1695
 Red. masses --      1.8103                 2.2179                 2.5547
 Frc consts  --      1.2598                 1.6099                 1.9499
 IR Inten    --      0.9468                15.7487                13.0599

                     40                     41                     42
                      A                      A                      A
 Frequencies --   1149.4975              1158.4016              1180.3560
 Red. masses --      2.1897                 2.5506                 2.2834
 Frc consts  --      1.7047                 2.0166                 1.8744
 IR Inten    --     44.2173                47.3194               112.0885

                     43                     44                     45
                      A                      A                      A
 Frequencies --   1187.8444              1201.5444              1224.3290
 Red. masses --      2.1713                 1.4060                 1.9704
 Frc consts  --      1.8050                 1.1960                 1.7402
 IR Inten    --     71.1119                 6.3865                17.3773

                     46                     47                     48
                      A                      A                      A
 Frequencies --   1257.3463              1259.6202              1274.4781
 Red. masses --      1.3286                 1.2653                 1.2872
 Frc consts  --      1.2375                 1.1828                 1.2318
 IR Inten    --      1.8187                 2.3188                 0.6221

                     49                     50                     51
                      A                      A                      A
 Frequencies --   1279.6546              1285.6267              1310.5137
 Red. masses --      1.4630                 1.4843                 1.3324
 Frc consts  --      1.4115                 1.4454                 1.3482
 IR Inten    --      1.0863                 9.4855                14.5503

                     52                     53                     54
                      A                      A                      A
 Frequencies --   1319.0184              1335.6768              1351.7546
 Red. masses --      1.2445                 1.4029                 1.2021
 Frc consts  --      1.2757                 1.4746                 1.2942
 IR Inten    --      4.8694                 3.3709                 4.4172

                     55                     56                     57
                      A                      A                      A
 Frequencies --   1379.1237              1403.4561              1413.8137
 Red. masses --      1.2391                 1.2305                 1.5442
 Frc consts  --      1.3885                 1.4280                 1.8185
 IR Inten    --     15.2801                55.7638                 5.6198

                     58                     59                     60
                      A                      A                      A
 Frequencies --   1423.9184              1434.3390              1442.5969
 Red. masses --      1.2587                 1.2406                 1.3097
 Frc consts  --      1.5037                 1.5038                 1.6059
 IR Inten    --      4.3859                 7.0388                 5.5329

                     61                     62                     63
                      A                      A                      A
 Frequencies --   1447.1983              1495.3494              1502.7535
 Red. masses --      1.3343                 1.1385                 1.0945
 Frc consts  --      1.6466                 1.5000                 1.4563
 IR Inten    --      6.4314                16.5494                 1.0491

                     64                     65                     66
                      A                      A                      A
 Frequencies --   1510.0017              1515.9108              1522.3662
 Red. masses --      1.1018                 1.0846                 1.0498
 Frc consts  --      1.4801                 1.4685                 1.4335
 IR Inten    --      7.6714                 3.2686                 4.0720

                     67                     68                     69
                      A                      A                      A
 Frequencies --   1526.0984              1529.7281              1532.2114
 Red. masses --      1.0583                 1.0477                 1.0896
 Frc consts  --      1.4522                 1.4445                 1.5072
 IR Inten    --      5.5356                 1.4869                 4.5502

                     70                     71                     72
                      A                      A                      A
 Frequencies --   1535.4517              1542.0232              1552.2846
 Red. masses --      1.1088                 1.1496                 1.0888
 Frc consts  --      1.5402                 1.6106                 1.5458
 IR Inten    --     10.1314                 3.0742                 4.0245

                     73                     74                     75
                      A                      A                      A
 Frequencies --   2954.2214              3017.8642              3035.2776
 Red. masses --      1.0728                 1.0650                 1.0600
 Frc consts  --      5.5163                 5.7147                 5.7536
 IR Inten    --     80.8912                14.0750                70.5018

                     76                     77                     78
                      A                      A                      A
 Frequencies --   3037.7267              3045.2494              3045.9171
 Red. masses --      1.0467                 1.0419                 1.0841
 Frc consts  --      5.6906                 5.6928                 5.9259
 IR Inten    --     41.3339                16.3348                16.0087

                     79                     80                     81
                      A                      A                      A
 Frequencies --   3054.2941              3062.0874              3068.3014
 Red. masses --      1.0827                 1.0818                 1.0568
 Frc consts  --      5.9506                 5.9763                 5.8618
 IR Inten    --     17.2396                25.4746                57.6140

                     82                     83                     84
                      A                      A                      A
 Frequencies --   3072.2227              3075.0984              3078.0190
 Red. masses --      1.0575                 1.0962                 1.0630
 Frc consts  --      5.8806                 6.1074                 5.9338
 IR Inten    --     24.8909                 7.9230                21.2281

                     85                     86                     87
                      A                      A                      A
 Frequencies --   3097.1378              3104.8258              3110.0001
 Red. masses --      1.1009                 1.0987                 1.0995
 Frc consts  --      6.2217                 6.2403                 6.2659
 IR Inten    --     24.7485                58.9285                46.8941

                     88                     89                     90
                      A                      A                      A
 Frequencies --   3116.5935              3119.4416              3123.3098
 Red. masses --      1.1073                 1.1013                 1.1098
 Frc consts  --      6.3371                 6.3141                 6.3783
 IR Inten    --     14.1665                34.8436                18.2928

                     91                     92                     93
                      A                      A                      A
 Frequencies --   3129.7947              3136.7031              3457.0704
 Red. masses --      1.1032                 1.1078                 1.0730
 Frc consts  --      6.3672                 6.4217                 7.5558
 IR Inten    --     41.3212                70.7333                 1.7685

 - Thermochemistry -
 -------------------
 Temperature   298.150 Kelvin.  Pressure   1.00000 Atm.
 Atom     1 has atomic number  6 and mass  12.00000

 Molecular mass:   171.16231 amu.
 Principal axes and moments of inertia in atomic units:
                           1         2         3
     Eigenvalues --  1609.067823277.769494195.31953
           X            0.99997   0.00654  -0.00400
           Y           -0.00654   0.99998  -0.00187
           Z            0.00399   0.00190   0.99999
 This molecule is an asymmetric top.
 Rotational symmetry number  1.
 Warning -- assumption of classical behavior for rotation
           may cause significant error
 Rotational temperatures (Kelvin)      0.05383     0.02642     0.02065
 Rotational constants (GHZ):           1.12161     0.55060     0.43018
 Zero-point vibrational energy     800034.7 (Joules/Mol)
                                  191.21288 (Kcal/Mol)
 Warning -- explicit consideration of  19 degrees of freedom as
           vibrations may cause significant error
 Vibrational temperatures:     28.89    44.46    57.37    97.18   127.69
          (Kelvin)            188.74   204.67   251.54   322.22   341.25
                              383.55   403.86   433.26   531.60   608.92
                              644.20   654.35   684.30   796.44   922.54
                             1083.53  1105.94  1152.14  1170.80  1205.76
                             1254.59  1309.91  1311.01  1337.48  1371.84
                             1380.10  1393.78  1435.34  1462.78  1526.91
                             1539.43  1563.66  1596.97  1637.57  1653.87
                             1666.68  1698.27  1709.04  1728.75  1761.54
                             1809.04  1812.31  1833.69  1841.14  1849.73
                             1885.54  1897.77  1921.74  1944.87  1984.25
                             2019.26  2034.16  2048.70  2063.69  2075.58
                             2082.20  2151.47  2162.13  2172.56  2181.06
                             2190.35  2195.72  2200.94  2204.51  2209.17
                             2218.63  2233.39  4250.47  4342.03  4367.09
                             4370.61  4381.43  4382.40  4394.45  4405.66
                             4414.60  4420.24  4424.38  4428.58  4456.09
                             4467.15  4474.60  4484.08  4488.18  4493.75
                             4503.08  4513.02  4973.95

 Zero-point correction=                           0.304717 (Hartree/Particle)
 Thermal correction to Energy=                    0.318999
 Thermal correction to Enthalpy=                  0.319943
 Thermal correction to Gibbs Free Energy=         0.261433
 Sum of electronic and zero-point Energies=           -523.390497
 Sum of electronic and thermal Energies=              -523.376215
 Sum of electronic and thermal Enthalpies=            -523.375270
 Sum of electronic and thermal Free Energies=         -523.433780

                     E (Thermal)             CV                S
                      KCal/Mol        Cal/Mol-Kelvin    Cal/Mol-Kelvin
 Total                  200.175             52.120            123.145
 Electronic               0.000              0.000              0.000
 Translational            0.889              2.981             41.320
 Rotational               0.889              2.981             31.471
 Vibrational            198.398             46.158             50.354
 Vibration     1          0.593              1.986              6.626
 Vibration     2          0.594              1.984              5.771
 Vibration     3          0.594              1.981              5.265
 Vibration     4          0.598              1.970              4.224
 Vibration     5          0.602              1.957              3.687
 Vibration     6          0.612              1.922              2.929
 Vibration     7          0.616              1.911              2.773
 Vibration     8          0.627              1.873              2.383
 Vibration     9          0.649              1.805              1.927
 Vibration    10          0.656              1.784              1.824
 Vibration    11          0.672              1.734              1.618
 Vibration    12          0.680              1.709              1.529
 Vibration    13          0.693              1.672              1.411
 Vibration    14          0.742              1.535              1.082
 Vibration    15          0.785              1.420              0.881
 Vibration    16          0.807              1.366              0.803
 Vibration    17          0.813              1.350              0.781
 Vibration    18          0.832              1.304              0.722
 Vibration    19          0.909              1.132              0.537

 Optimization completed.
    -- Stationary point found.
 Normal termination of Gaussian 16 at Wed Dec  9 18:21:45 2020.

 ----------------------------------------------------------------------
 # B3LYP/6-311++G(d,p) empiricaldispersion=gd3bj scf=xqc pop=npa geom=c
 heck
 ----------------------------------------------------------------------

 --------------------------------------
 CID_62116842_JID_2877_Energie_neutraal
 --------------------------------------
 Structure from the checkpoint file:  "JID_2877.chk"
 Charge =  0 Multiplicity = 1

 SCF Done:  E(RB3LYP) =  -523.846854939     A.U. after   13 cycles
 Normal termination of Gaussian 16 at Wed Dec  9 18:24:45 2020.

 ----------------------------------------------------------------------
 # B3LYP/6-311++G(d,p) empiricaldispersion=gd3bj scf=xqc pop=npa geom=c
 heck
 ----------------------------------------------------------------------

 ------------------------------------
 CID_62116842_JID_2877_Energie_kation
 ------------------------------------
 Structure from the checkpoint file:  "JID_2877.chk"
 Charge =  1 Multiplicity = 2

 SCF Done:  E(UB3LYP) =  -523.549415016     A.U. after   20 cycles
 Normal termination of Gaussian 16 at Wed Dec  9 18:31:11 2020.
 Gaussian 16:  ES64L-G16RevA.03 25-Dec-2016

 ----------------------------------------------------------------------
 # B3LYP/6-311++G(d,p) empiricaldispersion=gd3bj scf=xqc pop=npa geom=c
 heck
 ----------------------------------------------------------------------

 -----------------------------------
 CID_62116842_JID_2877_Energie_anion
 -----------------------------------
 Structure from the checkpoint file:  "JID_2877.chk"
 Charge = -1 Multiplicity = 2

                         Standard orientation:
 ---------------------------------------------------------------------
 Center     Atomic      Atomic             Coordinates (Angstroms)
 Number     Number       Type             X           Y           Z
 ---------------------------------------------------------------------
      1          6           0       -1.772815    2.919115   -0.636396
      2          6           0       -1.921385    1.717464    0.292454
      3          7           0       -1.710877    0.473312   -0.442530
      4          6           0       -1.733033   -0.751354    0.367452
      5          6           0       -3.112988   -1.099475    0.945668
      6          6           0       -1.169153   -1.919812   -0.452701
      7          6           0        0.233352   -1.653645   -0.993517
      8          8           0        1.129153   -1.373745    0.081185
      9          6           0        1.719019   -0.094800    0.035568
     10          6           0        2.516685    0.285986    1.295150
     11          6           0        3.553460    0.974665    0.366139
     12          6           0        3.007427    0.115305   -0.806092
     13          1           0       -0.787801    2.914139   -1.114302
     14          1           0       -1.893474    3.858181   -0.085383
     15          1           0       -2.531477    2.899430   -1.429108
     16          1           0       -1.157130    1.762531    1.079276
     17          1           0       -2.899241    1.770014    0.804993
     18          1           0       -2.407157    0.397776   -1.185220
     19          1           0       -1.037365   -0.578521    1.197651
     20          1           0       -3.833185   -1.290708    0.138814
     21          1           0       -3.064040   -1.999945    1.568860
     22          1           0       -3.508135   -0.287323    1.564812
     23          1           0       -1.150277   -2.815662    0.180240
     24          1           0       -1.838698   -2.143406   -1.297623
     25          1           0        0.603588   -2.535568   -1.533583
     26          1           0        0.204573   -0.811922   -1.693429
     27          1           0        0.962166    0.661906   -0.209666
     28          1           0        2.015133    0.882947    2.063347
     29          1           0        2.930819   -0.617528    1.754040
     30          1           0        4.610812    0.866879    0.622614
     31          1           0        3.334184    2.038383    0.228493
     32          1           0        3.549563   -0.831934   -0.894190
     33          1           0        2.916644    0.576408   -1.794760
 ---------------------------------------------------------------------

 SCF Done:  E(UB3LYP) =  -523.830086568     A.U. after   29 cycles

 The electronic state is 2-A.
 Alpha  occ. eigenvalues --  -19.02005 -14.19013 -10.11631 -10.11062 -10.09477
 Alpha  occ. eigenvalues --  -10.08583 -10.07291 -10.06820 -10.06641 -10.06517
 Alpha  occ. eigenvalues --  -10.05672 -10.05182  -0.93349  -0.80464  -0.74492
 Alpha  occ. eigenvalues --   -0.68485  -0.63269  -0.61076  -0.56622  -0.55603
 Alpha  occ. eigenvalues --   -0.52104  -0.50207  -0.47800  -0.45902  -0.40952
 Alpha  occ. eigenvalues --   -0.39342  -0.37933  -0.36090  -0.35901  -0.34853
 Alpha  occ. eigenvalues --   -0.32798  -0.31915  -0.30463  -0.29743  -0.29181
 Alpha  occ. eigenvalues --   -0.28389  -0.27990  -0.26152  -0.25284  -0.24252
 Alpha  occ. eigenvalues --   -0.24079  -0.24010  -0.23351  -0.22573  -0.21777
 Alpha  occ. eigenvalues --   -0.20456  -0.15086  -0.12305   0.04600
 Alpha virt. eigenvalues --    0.06466   0.07122   0.07531   0.08436   0.08908
 Alpha virt. eigenvalues --    0.09055   0.09786   0.09882   0.11044   0.11315
 Alpha virt. eigenvalues --    0.11568   0.12027   0.12216   0.13036   0.13301

  Beta  occ. eigenvalues --  -19.02002 -14.18993 -10.11627 -10.11055 -10.09472
  Beta  occ. eigenvalues --  -10.08563 -10.07271 -10.06812 -10.06628 -10.06503
  Beta  occ. eigenvalues --  -10.05641 -10.05142  -0.93341  -0.80433  -0.74476
  Beta  occ. eigenvalues --   -0.68458  -0.63234  -0.61020  -0.56590  -0.55566
  Beta  occ. eigenvalues --   -0.52056  -0.50118  -0.47756  -0.45865  -0.40934
  Beta  occ. eigenvalues --   -0.39304  -0.37892  -0.36058  -0.35868  -0.34825
  Beta  occ. eigenvalues --   -0.32772  -0.31872  -0.30429  -0.29705  -0.29165
  Beta  occ. eigenvalues --   -0.28357  -0.27959  -0.26085  -0.25252  -0.24217
  Beta  occ. eigenvalues --   -0.24042  -0.23980  -0.23320  -0.22547  -0.21756
  Beta  occ. eigenvalues --   -0.20436  -0.15075  -0.12277
  Beta virt. eigenvalues --    0.06646   0.07243   0.07691   0.08014   0.08904
  Beta virt. eigenvalues --    0.09396   0.09414   0.10085   0.10234   0.11465
  Beta virt. eigenvalues --    0.11777   0.11853   0.12326   0.12526   0.13324

 Mulliken charges and spin densities:
               1          2
     1  C    1.556159  -2.132350
     2  C   -0.590705   0.501706
     3  N    0.022371   0.007732
     4  C   -1.038976   0.997867
     5  C    1.422444  -2.039175
     6  C   -0.208708  -0.359725
     7  C   -0.222881   0.106654
     8  O   -0.007507  -0.000543
     9  C   -1.020092   0.630717
    10  C    0.117780  -0.349916
    11  C   -0.120998  -0.224582
    12  C    0.123599  -0.263173
    13  H   -0.636900   0.778582
    14  H   -0.274893   0.405679
    15  H   -0.380089   0.510727
    16  H   -0.005273   0.132008
    17  H   -0.488002   0.609773
    18  H    0.290816  -0.067879
    19  H    0.197048  -0.042496
    20  H   -0.320815   0.471286
    21  H   -0.115465   0.243388
    22  H   -0.198619   0.346041
    23  H    0.119052   0.036186
    24  H   -0.131661   0.272664
    25  H   -0.153372   0.319241
    26  H    0.024344   0.114706
    27  H    1.512450  -1.314912
    28  H   -0.104041   0.241427
    29  H    0.109206   0.031392
    30  H   -0.191902   0.344881
    31  H   -0.122288   0.249151
    32  H    0.056221   0.078436
    33  H   -0.218306   0.364509
 Sum of Mulliken charges =  -1.00000   1.00000

 Dipole moment (field-independent basis, Debye):
    X=              3.6016    Y=             -4.2069    Z=              1.0999  Tot=              5.6462
 Quadrupole moment (field-independent basis, Debye-Ang):
   XX=           -151.4645   YY=           -131.9522   ZZ=           -110.7631
   XY=              1.4447   XZ=              0.5809   YZ=              2.7144

 Summary of Natural Population Analysis:

                                       Natural Population
                Natural  -----------------------------------------------
    Atom  No    Charge         Core      Valence    Rydberg      Total
 -----------------------------------------------------------------------
      C    1   -0.28594      0.99967     2.28087    0.00541     3.28594
      C    2   -0.08551      0.99964     2.07519    0.01068     3.08551
      N    3   -0.34664      0.99973     2.83469    0.01222     3.84664
      C    4   -0.01352      0.99960     2.00219    0.01173     3.01352
      C    5   -0.29240      0.99965     2.28705    0.00571     3.29240
      C    6   -0.19847      0.99960     2.18937    0.00951     3.19847
      C    7   -0.00901      0.99956     1.99751    0.01193     3.00901
      O    8   -0.30629      0.99987     3.29789    0.00854     4.30629
      C    9    0.06013      0.99952     1.92527    0.01509     2.93987
      C   10   -0.19355      0.99962     2.18483    0.00909     3.19355
      C   11   -0.19337      0.99965     2.18565    0.00807     3.19337
      C   12   -0.20064      0.99962     2.19258    0.00843     3.20064
      H   13    0.09970      0.00000     0.39869    0.00161     0.40030
      H   14    0.09952      0.00000     0.39913    0.00136     0.40048
      H   15    0.09616      0.00000     0.40226    0.00158     0.40384
      H   16    0.08778      0.00000     0.41045    0.00176     0.41222
      H   17    0.07933      0.00000     0.41886    0.00181     0.42067
      H   18    0.17058      0.00000     0.32627    0.00316     0.32942
      H   19    0.09359      0.00000     0.40389    0.00253     0.40641
      H   20    0.09723      0.00000     0.40130    0.00147     0.40277
      H   21    0.09802      0.00000     0.40107    0.00091     0.40198
      H   22    0.10089      0.00000     0.39802    0.00109     0.39911
      H   23    0.09823      0.00000     0.40074    0.00102     0.40177
      H   24    0.09696      0.00000     0.40189    0.00115     0.40304
      H   25    0.08121      0.00000     0.41776    0.00103     0.41879
      H   26    0.09047      0.00000     0.40765    0.00188     0.40953
      H   27    0.09205      0.00000     0.40498    0.00297     0.40795
      H   28    0.09721      0.00000     0.40170    0.00109     0.40279
      H   29    0.09856      0.00000     0.40012    0.00132     0.40144
      H   30    0.09476      0.00000     0.40425    0.00099     0.40524
      H   31    0.09837      0.00000     0.40007    0.00157     0.40163
      H   32    0.09699      0.00000     0.40178    0.00123     0.40301
      H   33    0.09763      0.00000     0.40131    0.00106     0.40237
 =======================================================================
   * Total *    0.00000     11.99574    35.85528    0.14898    48.00000

 Normal termination of Gaussian 16 at Wed Dec  9 18:39:37 2020.
