 Gaussian 16, Revision A.03,

 -----------------------------------------------------------
 # opt freq B3LYP/6-31G(d) empiricaldispersion=gd3bj scf=xqc
 -----------------------------------------------------------

 -------------------------------
 CID_153404525_JID_2343_neutraal
 -------------------------------
 Symbolic Z-matrix:
 Charge =  0 Multiplicity = 1

 SCF Done:  E(RB3LYP) =  -529.933437944     A.U. after   14 cycles
 SCF Done:  E(RB3LYP) =  -529.938262762     A.U. after   12 cycles
 SCF Done:  E(RB3LYP) =  -529.939179839     A.U. after   11 cycles
 SCF Done:  E(RB3LYP) =  -529.939687412     A.U. after   12 cycles
 SCF Done:  E(RB3LYP) =  -529.939836084     A.U. after   11 cycles
 SCF Done:  E(RB3LYP) =  -529.939930940     A.U. after   11 cycles
 SCF Done:  E(RB3LYP) =  -529.940008481     A.U. after   10 cycles
 SCF Done:  E(RB3LYP) =  -529.940028442     A.U. after   10 cycles
 SCF Done:  E(RB3LYP) =  -529.940046310     A.U. after    9 cycles
 SCF Done:  E(RB3LYP) =  -529.940051628     A.U. after    9 cycles
 SCF Done:  E(RB3LYP) =  -529.940053322     A.U. after    8 cycles
 SCF Done:  E(RB3LYP) =  -529.940054723     A.U. after    8 cycles
 SCF Done:  E(RB3LYP) =  -529.940055151     A.U. after    7 cycles
 SCF Done:  E(RB3LYP) =  -529.940055260     A.U. after    7 cycles
 Optimization completed.
    -- Stationary point found.

 1\1\GINC-NODE361\FOpt\RB3LYP\6-31G(d)\C8H10N4\VSC10255\09-Dec-2020\0\\
 # opt freq B3LYP/6-31G(d) empiricaldispersion=gd3bj scf=xqc\\CID_15340
 4525_JID_2343_neutraal\\0,1\C,1.0283171819,0.0279062382,0.0203087629\C
 ,0.5539592048,-0.244917356,-1.3848573272\C,0.5997906962,-1.5614472435,
 -1.8828505792\C,0.155182403,-1.7791304784,-3.194795352\C,-0.3031129744
 ,-0.7094448054,-3.9855021574\C,-0.3548009158,0.6005666856,-3.516433926
 4\C,0.078426381,0.7951870221,-2.2035288836\N,-0.6364402297,-1.30513520
 23,-5.2045541342\C,-0.3975218801,-2.6596140419,-5.0660610104\N,0.09395

 Normal termination of Gaussian 16 at Wed Dec  9 17:13:16 2020.

 --------------------------------------------------------------------
 #N Geom=AllCheck Guess=TCheck SCRF=Check GenChk RB3LYP/6-31G(d) Freq
 --------------------------------------------------------------------

 Structure from the checkpoint file:  "JID_2343.chk"
 -------------------------------
 CID_153404525_JID_2343_neutraal
 -------------------------------
 Charge =  0 Multiplicity = 1

 SCF Done:  E(RB3LYP) =  -529.940055260     A.U. after    1 cycles

  Exact polarizability: 163.503  -0.148 118.868   1.694  -0.725  45.706
 Approx polarizability: 240.645  -4.730 209.741   1.212  -0.022  70.458

                      1                      2                      3
                      A                      A                      A
 Frequencies --    102.8571               164.0393               190.6235
 Red. masses --      3.7078                 1.1451                 3.6028
 Frc consts  --      0.0231                 0.0182                 0.0771
 IR Inten    --      4.4483                 5.6148                11.1600

                      4                      5                      6
                      A                      A                      A
 Frequencies --    197.2394               220.0684               282.7503
 Red. masses --      3.5790                 3.6701                 1.0848
 Frc consts  --      0.0820                 0.1047                 0.0511
 IR Inten    --      3.2627                 2.5713                76.4768

                      7                      8                      9
                      A                      A                      A
 Frequencies --    294.8706               324.3992               344.0149
 Red. masses --      2.8591                 3.5632                 1.7168
 Frc consts  --      0.1465                 0.2209                 0.1197
 IR Inten    --      0.0983                 2.4490                31.5932

                     10                     11                     12
                      A                      A                      A
 Frequencies --    366.3036               384.3858               402.3723
 Red. masses --      1.5243                 1.9588                 2.1170
 Frc consts  --      0.1205                 0.1705                 0.2019
 IR Inten    --     72.5133                29.7490                47.9659

                     13                     14                     15
                      A                      A                      A
 Frequencies --    441.0292               544.4089               554.4645
 Red. masses --      5.3818                 3.7901                 4.5318
 Frc consts  --      0.6168                 0.6618                 0.8209
 IR Inten    --      1.8099                23.4739                 2.2509

                     16                     17                     18
                      A                      A                      A
 Frequencies --    594.6198               621.5768               639.9272
 Red. masses --      3.8799                 2.6975                 5.9865
 Frc consts  --      0.8083                 0.6140                 1.4444
 IR Inten    --      3.1671                49.1304                 9.9020

                     19                     20                     21
                      A                      A                      A
 Frequencies --    678.2414               697.0045               754.6192
 Red. masses --      2.7345                 1.9204                 8.1988
 Frc consts  --      0.7411                 0.5497                 2.7508
 IR Inten    --    143.6178               237.0720                10.1829

                     22                     23                     24
                      A                      A                      A
 Frequencies --    765.8933               780.9363               790.6228
 Red. masses --      1.3351                 3.7199                 3.2800
 Frc consts  --      0.4614                 1.3366                 1.2080
 IR Inten    --     17.6592                97.2302                54.0108

                     25                     26                     27
                      A                      A                      A
 Frequencies --    811.5201               898.9522               954.1694
 Red. masses --      2.2795                 1.2461                 2.7350
 Frc consts  --      0.8845                 0.5933                 1.4671
 IR Inten    --    135.0383                 0.9400                11.6634

                     28                     29                     30
                      A                      A                      A
 Frequencies --   1016.5179              1031.3343              1072.9771
 Red. masses --      2.0810                 2.6181                 1.4477
 Frc consts  --      1.2669                 1.6407                 0.9820
 IR Inten    --      3.8380                 0.7438                 1.5189

                     31                     32                     33
                      A                      A                      A
 Frequencies --   1120.5753              1148.8911              1188.1250
 Red. masses --      1.9966                 1.5994                 2.0829
 Frc consts  --      1.4772                 1.2438                 1.7324
 IR Inten    --     25.3933                 6.2402                 1.7918

                     34                     35                     36
                      A                      A                      A
 Frequencies --   1212.6520              1256.9405              1303.9075
 Red. masses --      1.7689                 1.4503                 5.3981
 Frc consts  --      1.5326                 1.3501                 5.4074
 IR Inten    --     18.2876                 4.3066                31.7060

                     37                     38                     39
                      A                      A                      A
 Frequencies --   1316.7048              1354.1073              1429.6179
 Red. masses --      2.0604                 5.0668                 3.2572
 Frc consts  --      2.1046                 5.4739                 3.9222
 IR Inten    --      9.3640                30.9641                16.6976

                     40                     41                     42
                      A                      A                      A
 Frequencies --   1444.0625              1479.6145              1507.8987
 Red. masses --      1.3944                 3.8135                 3.2434
 Frc consts  --      1.7132                 4.9190                 4.3451
 IR Inten    --      5.3000               102.2109                70.8109

                     43                     44                     45
                      A                      A                      A
 Frequencies --   1513.6132              1527.8305              1552.8312
 Red. masses --      1.0449                 1.3317                 2.6430
 Frc consts  --      1.4104                 1.8315                 3.7549
 IR Inten    --      6.0978                14.7904                21.4695

                     46                     47                     48
                      A                      A                      A
 Frequencies --   1611.9191              1653.0858              1672.8182
 Red. masses --      2.9830                 2.6410                 2.1110
 Frc consts  --      4.5665                 4.2521                 3.4805
 IR Inten    --    156.9106                17.3200                14.5213

                     49                     50                     51
                      A                      A                      A
 Frequencies --   1690.7068              1703.9306              3011.7476
 Red. masses --      1.5102                 2.8622                 1.0483
 Frc consts  --      2.5435                 4.8962                 5.6023
 IR Inten    --    134.9226               207.3908                56.9360

                     52                     53                     54
                      A                      A                      A
 Frequencies --   3064.7923              3124.2830              3179.6858
 Red. masses --      1.0907                 1.0979                 1.0876
 Frc consts  --      6.0359                 6.3143                 6.4789
 IR Inten    --     28.9275                16.9662                15.1252

                     55                     56                     57
                      A                      A                      A
 Frequencies --   3207.3924              3521.3901              3538.6972
 Red. masses --      1.0938                 1.0498                 1.0472
 Frc consts  --      6.6297                 7.6695                 7.7260
 IR Inten    --     20.0649                12.0377                11.6570

                     58                     59                     60
                      A                      A                      A
 Frequencies --   3624.8484              3642.3436              3655.8502
 Red. masses --      1.0947                 1.0984                 1.0796
 Frc consts  --      8.4747                 8.5857                 8.5018
 IR Inten    --     21.2901                13.6418                43.8244

 - Thermochemistry -
 -------------------
 Temperature   298.150 Kelvin.  Pressure   1.00000 Atm.
 Atom     1 has atomic number  6 and mass  12.00000

 Molecular mass:   162.09055 amu.
 Principal axes and moments of inertia in atomic units:
                           1         2         3
     Eigenvalues --   863.273912617.669523464.15787
           X            0.99997  -0.00633   0.00410
           Y            0.00635   0.99997  -0.00424
           Z           -0.00407   0.00426   0.99998
 This molecule is an asymmetric top.
 Rotational symmetry number  1.
 Warning -- assumption of classical behavior for rotation
           may cause significant error
 Rotational temperatures (Kelvin)      0.10033     0.03309     0.02500
 Rotational constants (GHZ):           2.09058     0.68945     0.52098
 Zero-point vibrational energy     473623.1 (Joules/Mol)
                                  113.19864 (Kcal/Mol)
 Warning -- explicit consideration of  16 degrees of freedom as
           vibrations may cause significant error
 Vibrational temperatures:    147.99   236.02   274.26   283.78   316.63
          (Kelvin)            406.81   424.25   466.74   494.96   527.03
                              553.05   578.92   634.54   783.28   797.75
                              855.53   894.31   920.71   975.84  1002.83
                             1085.73  1101.95  1123.59  1137.53  1167.60
                             1293.39  1372.84  1462.54  1483.86  1543.77
                             1612.26  1653.00  1709.45  1744.74  1808.46
                             1876.03  1894.44  1948.26  2056.90  2077.68
                             2128.84  2169.53  2177.75  2198.21  2234.18
                             2319.19  2378.42  2406.81  2432.55  2451.58
                             4333.23  4409.55  4495.15  4574.86  4614.72
                             5066.49  5091.40  5215.35  5240.52  5259.95

 Zero-point correction=                           0.180394 (Hartree/Particle)
 Thermal correction to Energy=                    0.190970
 Thermal correction to Enthalpy=                  0.191914
 Thermal correction to Gibbs Free Energy=         0.145259
 Sum of electronic and zero-point Energies=           -529.759662
 Sum of electronic and thermal Energies=              -529.749086
 Sum of electronic and thermal Enthalpies=            -529.748141
 Sum of electronic and thermal Free Energies=         -529.794797

                     E (Thermal)             CV                S
                      KCal/Mol        Cal/Mol-Kelvin    Cal/Mol-Kelvin
 Total                  119.835             42.363             98.194
 Electronic               0.000              0.000              0.000
 Translational            0.889              2.981             41.158
 Rotational               0.889              2.981             30.438
 Vibrational            118.058             36.402             26.598
 Vibration     1          0.605              1.947              3.399
 Vibration     2          0.623              1.887              2.503
 Vibration     3          0.634              1.853              2.222
 Vibration     4          0.637              1.844              2.159
 Vibration     5          0.647              1.811              1.959
 Vibration     6          0.682              1.706              1.517
 Vibration     7          0.689              1.683              1.446
 Vibration     8          0.709              1.627              1.288
 Vibration     9          0.723              1.587              1.193
 Vibration    10          0.739              1.542              1.095
 Vibration    11          0.753              1.504              1.022
 Vibration    12          0.768              1.465              0.954
 Vibration    13          0.801              1.381              0.823
 Vibration    14          0.900              1.152              0.556
 Vibration    15          0.910              1.130              0.535
 Vibration    16          0.952              1.043              0.459

                           ! Non-Optimized Parameters !

 1\1\GINC-NODE361\Freq\RB3LYP\6-31G(d)\C8H10N4\VSC10255\09-Dec-2020\0\\
 #N Geom=AllCheck Guess=TCheck SCRF=Check GenChk RB3LYP/6-31G(d) Freq\\
 CID_153404525_JID_2343_neutraal\\0,1\C,1.0283171819,0.0279062382,0.020
 3087629\C,0.5539592048,-0.244917356,-1.3848573272\C,0.5997906962,-1.56
 14472435,-1.8828505792\C,0.155182403,-1.7791304784,-3.194795352\C,-0.3
 031129744,-0.7094448054,-3.9855021574\C,-0.3548009158,0.6005666856,-3.
 5164339264\C,0.078426381,0.7951870221,-2.2035288836\N,-0.6364402297,-1
 .3051352023,-5.2045541342\C,-0.3975218801,-2.6596140419,-5.0660610104\

 Normal termination of Gaussian 16 at Wed Dec  9 17:18:00 2020.

 ----------------------------------------------------------------------
 # B3LYP/6-311++G(d,p) empiricaldispersion=gd3bj scf=xqc pop=npa geom=c
 heck
 ----------------------------------------------------------------------

 ---------------------------------------
 CID_153404525_JID_2343_Energie_neutraal
 ---------------------------------------
 Structure from the checkpoint file:  "JID_2343.chk"
 Charge =  0 Multiplicity = 1

 SCF Done:  E(RB3LYP) =  -530.097427575     A.U. after   14 cycles
 Normal termination of Gaussian 16 at Wed Dec  9 17:19:37 2020.

 ----------------------------------------------------------------------
 # B3LYP/6-311++G(d,p) empiricaldispersion=gd3bj scf=xqc pop=npa geom=c
 heck
 ----------------------------------------------------------------------

 -------------------------------------
 CID_153404525_JID_2343_Energie_kation
 -------------------------------------
 Structure from the checkpoint file:  "JID_2343.chk"
 Charge =  1 Multiplicity = 2

 SCF Done:  E(UB3LYP) =  -529.840364374     A.U. after   21 cycles
 Normal termination of Gaussian 16 at Wed Dec  9 17:22:55 2020.
 Gaussian 16:  ES64L-G16RevA.03 25-Dec-2016

 ------------------------------------
 CID_153404525_JID_2343_Energie_anion
 ------------------------------------
 Structure from the checkpoint file:  "JID_2343.chk"
 Charge = -1 Multiplicity = 2

                         Standard orientation:
 ---------------------------------------------------------------------
 Center     Atomic      Atomic             Coordinates (Angstroms)
 Number     Number       Type             X           Y           Z
 ---------------------------------------------------------------------
      1          6           0        3.531448   -0.254241   -0.005559
      2          6           0        2.090187    0.189205    0.002265
      3          6           0        1.071344   -0.782957   -0.012231
      4          6           0       -0.257740   -0.335985   -0.008842
      5          6           0       -0.553801    1.039453   -0.008660
      6          6           0        0.435887    2.018850    0.002499
      7          6           0        1.752528    1.554501    0.013447
      8          7           0       -1.950074    1.087506   -0.021119
      9          6           0       -2.395247   -0.220931    0.005135
     10          7           0       -1.425666   -1.102010   -0.008761
     11          7           0       -3.750801   -0.507229    0.096432
     12          7           0        1.338989   -2.150862   -0.083198
     13          1           0        3.802741   -0.803910    0.908877
     14          1           0        4.207490    0.602827   -0.077513
     15          1           0        3.739897   -0.922480   -0.851515
     16          1           0        0.208758    3.080020    0.005671
     17          1           0        2.562687    2.279304    0.026478
     18          1           0       -2.517174    1.897694    0.177751
     19          1           0       -4.325888    0.002065   -0.567840
     20          1           0       -3.902391   -1.506140    0.005555
     21          1           0        0.526393   -2.715256    0.138810
     22          1           0        2.162714   -2.453324    0.421912
 ---------------------------------------------------------------------

 SCF Done:  E(UB3LYP) =  -530.087853168     A.U. after   32 cycles

 The electronic state is 2-A.
 Alpha  occ. eigenvalues --  -14.24718 -14.21549 -14.21528 -14.18223 -10.16176
 Alpha  occ. eigenvalues --  -10.10216 -10.09902 -10.08108 -10.07354 -10.06825
 Alpha  occ. eigenvalues --  -10.06494 -10.06304  -0.91376  -0.81933  -0.79969
 Alpha  occ. eigenvalues --   -0.76382  -0.72700  -0.65925  -0.61678  -0.58171
 Alpha  occ. eigenvalues --   -0.50869  -0.50746  -0.49194  -0.44349  -0.42739
 Alpha  occ. eigenvalues --   -0.40091  -0.38098  -0.36776  -0.34999  -0.33783
 Alpha  occ. eigenvalues --   -0.33369  -0.32350  -0.31903  -0.29139  -0.26637
 Alpha  occ. eigenvalues --   -0.25979  -0.24975  -0.22428  -0.18650  -0.17921
 Alpha  occ. eigenvalues --   -0.17273  -0.10688  -0.09056   0.04403
 Alpha virt. eigenvalues --    0.05891   0.07443   0.08256   0.09222   0.09928
 Alpha virt. eigenvalues --    0.10333   0.10843   0.11340   0.12230   0.12601
 Alpha virt. eigenvalues --    0.13130   0.14869   0.15118   0.15348   0.16192

  Beta  occ. eigenvalues --  -14.24656 -14.21531 -14.21438 -14.18207 -10.16173
  Beta  occ. eigenvalues --  -10.10215 -10.09900 -10.08106 -10.07336 -10.06825
  Beta  occ. eigenvalues --  -10.06491 -10.06296  -0.91335  -0.81902  -0.79859
  Beta  occ. eigenvalues --   -0.76319  -0.72677  -0.65897  -0.61650  -0.58127
  Beta  occ. eigenvalues --   -0.50792  -0.50694  -0.49140  -0.44280  -0.42678
  Beta  occ. eigenvalues --   -0.40044  -0.38043  -0.36723  -0.34959  -0.33742
  Beta  occ. eigenvalues --   -0.33346  -0.32310  -0.31876  -0.29120  -0.26613
  Beta  occ. eigenvalues --   -0.25962  -0.24951  -0.22397  -0.18603  -0.17885
  Beta  occ. eigenvalues --   -0.17247  -0.10661  -0.09036
  Beta virt. eigenvalues --    0.06199   0.07734   0.08025   0.09035   0.09944
  Beta virt. eigenvalues --    0.10029   0.10414   0.11714   0.11803   0.12361
  Beta virt. eigenvalues --    0.12782   0.13428   0.15026   0.15361   0.15742

 Mulliken charges and spin densities:
               1          2
     1  C    1.494754  -2.059682
     2  C   -0.402801   1.275295
     3  C   -0.330131   0.044263
     4  C    1.140235  -1.530849
     5  C    1.658470  -1.335369
     6  C   -0.570210  -0.050082
     7  C   -0.624629  -0.031305
     8  N   -0.138113  -0.113972
     9  C   -0.400026   0.816524
    10  N   -0.124983  -0.088815
    11  N   -0.595217   0.270717
    12  N   -0.358003  -0.007865
    13  H   -0.046621   0.191665
    14  H   -0.051729   0.189356
    15  H    0.053000   0.108314
    16  H   -0.378728   0.527505
    17  H    0.104142  -0.004252
    18  H   -0.586088   0.910898
    19  H   -0.775547   1.046050
    20  H   -0.306750   0.578450
    21  H    0.190849   0.076509
    22  H    0.048126   0.186645
 Sum of Mulliken charges =  -1.00000   1.00000

 Dipole moment (field-independent basis, Debye):
    X=              8.8102    Y=             -1.4881    Z=              1.4013  Tot=              9.0442
 Quadrupole moment (field-independent basis, Debye-Ang):
   XX=           -153.1930   YY=           -104.9845   ZZ=            -93.8087
   XY=              9.3608   XZ=             -4.9402   YZ=             -1.4477

 Summary of Natural Population Analysis:

                                       Natural Population
                Natural  -----------------------------------------------
    Atom  No    Charge         Core      Valence    Rydberg      Total
 -----------------------------------------------------------------------
      C    1   -0.29201      0.99965     2.28750    0.00486     3.29201
      C    2   -0.05440      0.99950     2.04646    0.00843     3.05440
      C    3    0.07934      0.99941     1.91041    0.01084     2.92066
      C    4    0.04550      0.99942     1.94305    0.01203     2.95450
      C    5    0.06852      0.99945     1.92032    0.01170     2.93148
      C    6   -0.13503      0.99953     2.12517    0.01033     3.13503
      C    7   -0.10106      0.99955     2.09271    0.00880     3.10106
      N    8   -0.28901      0.99963     2.77896    0.01041     3.78901
      C    9    0.29779      0.99962     1.68479    0.01779     2.70221
      N   10   -0.29259      0.99966     2.78297    0.00995     3.79259
      N   11   -0.40144      0.99971     2.89129    0.01044     3.90144
      N   12   -0.39908      0.99971     2.88982    0.00955     3.89908
      H   13    0.09566      0.00000     0.40256    0.00178     0.40434
      H   14    0.10084      0.00000     0.39821    0.00095     0.39916
      H   15    0.10181      0.00000     0.39666    0.00153     0.39819
      H   16    0.10318      0.00000     0.39583    0.00099     0.39682
      H   17    0.09419      0.00000     0.40496    0.00085     0.40581
      H   18    0.21142      0.00000     0.27407    0.01451     0.28858
      H   19    0.19795      0.00000     0.27507    0.02699     0.30205
      H   20    0.19293      0.00000     0.30372    0.00335     0.30707
      H   21    0.19273      0.00000     0.30530    0.00197     0.30727
      H   22    0.18275      0.00000     0.31567    0.00158     0.31725
 =======================================================================
   * Total *    0.00000     11.99484    30.82550    0.17965    43.00000

 Normal termination of Gaussian 16 at Wed Dec  9 17:28:31 2020.
