 Gaussian 16, Revision A.03,

 -----------------------------------------------------------
 # opt freq B3LYP/6-31G(d) empiricaldispersion=gd3bj scf=xqc
 -----------------------------------------------------------

 ------------------------------
 CID_61634363_JID_6416_neutraal
 ------------------------------
 Symbolic Z-matrix:
 Charge =  0 Multiplicity = 1

 SCF Done:  E(RB3LYP) =  -1033.62524890     A.U. after   14 cycles
 SCF Done:  E(RB3LYP) =  -1033.62938084     A.U. after   12 cycles
 SCF Done:  E(RB3LYP) =  -1033.62687619     A.U. after   13 cycles
 SCF Done:  E(RB3LYP) =  -1033.63069543     A.U. after   12 cycles
 SCF Done:  E(RB3LYP) =  -1033.63023823     A.U. after   15 cycles
 SCF Done:  E(RB3LYP) =  -1033.63273267     A.U. after   12 cycles
 SCF Done:  E(RB3LYP) =  -1033.63185780     A.U. after   12 cycles
 SCF Done:  E(RB3LYP) =  -1033.63277552     A.U. after   12 cycles
 SCF Done:  E(RB3LYP) =  -1033.63317771     A.U. after   11 cycles
 SCF Done:  E(RB3LYP) =  -1033.63324667     A.U. after   11 cycles
 SCF Done:  E(RB3LYP) =  -1033.63875809     A.U. after    9 cycles
 SCF Done:  E(RB3LYP) =  -1033.63875944     A.U. after    9 cycles
 SCF Done:  E(RB3LYP) =  -1033.63876007     A.U. after    7 cycles
 SCF Done:  E(RB3LYP) =  -1033.63876025     A.U. after    7 cycles
 Optimization completed.
    -- Stationary point found.
 Normal termination of Gaussian 16 at Thu Dec 10 23:10:26 2020.

 --------------------------------------------------------------------
 #N Geom=AllCheck Guess=TCheck SCRF=Check GenChk RB3LYP/6-31G(d) Freq
 --------------------------------------------------------------------

 Structure from the checkpoint file:  "JID_6416.chk"
 ------------------------------
 CID_61634363_JID_6416_neutraal
 ------------------------------
 Charge =  0 Multiplicity = 1

 SCF Done:  E(RB3LYP) =  -1033.63876025     A.U. after    1 cycles

  Exact polarizability: 199.202   1.681 150.120  -7.721  10.405 135.608
 Approx polarizability: 269.989   4.783 226.856 -13.574  24.340 215.192

                      1                      2                      3
                      A                      A                      A
 Frequencies --     33.6829                35.9861                55.7384
 Red. masses --      3.6266                 3.9967                 1.9008
 Frc consts  --      0.0024                 0.0030                 0.0035
 IR Inten    --      1.1319                 2.6134                 0.5870

                      4                      5                      6
                      A                      A                      A
 Frequencies --     61.5731                78.6905               109.7859
 Red. masses --      1.3892                 2.8263                 3.3904
 Frc consts  --      0.0031                 0.0103                 0.0241
 IR Inten    --      0.7002                 0.2078                 1.4085

                      7                      8                      9
                      A                      A                      A
 Frequencies --    122.3721               187.8542               203.8219
 Red. masses --      2.6178                 3.9626                 2.8511
 Frc consts  --      0.0231                 0.0824                 0.0698
 IR Inten    --      0.9162                 0.1841                 1.3179

                     10                     11                     12
                      A                      A                      A
 Frequencies --    212.0062               221.7060               238.8430
 Red. masses --      3.4291                 2.2276                 1.8040
 Frc consts  --      0.0908                 0.0645                 0.0606
 IR Inten    --      2.5216                 0.5615                 0.7455

                     13                     14                     15
                      A                      A                      A
 Frequencies --    243.1214               266.4467               273.1870
 Red. masses --      1.2125                 1.8257                 2.8947
 Frc consts  --      0.0422                 0.0764                 0.1273
 IR Inten    --      1.5551                 1.4210                 3.2433

                     16                     17                     18
                      A                      A                      A
 Frequencies --    287.6704               299.7328               328.4947
 Red. masses --      2.4940                 2.2298                 1.9313
 Frc consts  --      0.1216                 0.1180                 0.1228
 IR Inten    --      7.0150                 0.1370                 2.0033

                     19                     20                     21
                      A                      A                      A
 Frequencies --    344.4503               367.8029               394.3495
 Red. masses --      2.8235                 1.0904                 1.8163
 Frc consts  --      0.1974                 0.0869                 0.1664
 IR Inten    --      0.8444                 0.2395                14.4243

                     22                     23                     24
                      A                      A                      A
 Frequencies --    400.1999               408.0707               419.6497
 Red. masses --      2.1735                 1.4580                 2.4265
 Frc consts  --      0.2051                 0.1430                 0.2518
 IR Inten    --      4.2936                28.8547                13.6580

                     25                     26                     27
                      A                      A                      A
 Frequencies --    441.9522               466.0060               482.3175
 Red. masses --      3.5526                 2.7985                 5.0284
 Frc consts  --      0.4088                 0.3581                 0.6892
 IR Inten    --      0.5887                 1.6601                 5.8199

                     28                     29                     30
                      A                      A                      A
 Frequencies --    499.8560               615.1851               630.9561
 Red. masses --      6.0839                 2.5336                 4.0001
 Frc consts  --      0.8956                 0.5649                 0.9382
 IR Inten    --      3.2347                 4.9227                 0.4194

                     31                     32                     33
                      A                      A                      A
 Frequencies --    692.1505               702.1885               722.8530
 Red. masses --      4.3462                 4.1987                 1.8457
 Frc consts  --      1.2268                 1.2198                 0.5682
 IR Inten    --     18.9201                 8.0480                 9.4647

                     34                     35                     36
                      A                      A                      A
 Frequencies --    736.7581               779.6851               802.9282
 Red. masses --      2.7977                 3.1574                 1.7605
 Frc consts  --      0.8948                 1.1309                 0.6687
 IR Inten    --     25.1861                 4.5804                13.1813

                     37                     38                     39
                      A                      A                      A
 Frequencies --    841.5098               854.9302               904.4589
 Red. masses --      1.2882                 1.8613                 2.0499
 Frc consts  --      0.5375                 0.8015                 0.9880
 IR Inten    --      4.2179                 4.5760                 8.2968

                     40                     41                     42
                      A                      A                      A
 Frequencies --    940.7994               943.5589               950.7068
 Red. masses --      6.0951                 1.7387                 1.8016
 Frc consts  --      3.1785                 0.9120                 0.9594
 IR Inten    --      4.3466                 2.2425                 1.6829

                     43                     44                     45
                      A                      A                      A
 Frequencies --    975.7616               982.2975              1009.9820
 Red. masses --      1.2242                 1.8533                 1.5838
 Frc consts  --      0.6867                 1.0536                 0.9519
 IR Inten    --      0.8125                11.8443                66.8702

                     46                     47                     48
                      A                      A                      A
 Frequencies --   1059.7611              1062.2357              1065.8051
 Red. masses --      1.6397                 1.5274                 1.9446
 Frc consts  --      1.0850                 1.0154                 1.3015
 IR Inten    --      3.3512                 3.8619                 1.7264

                     49                     50                     51
                      A                      A                      A
 Frequencies --   1073.8888              1082.1332              1111.6422
 Red. masses --      1.5870                 1.7515                 1.2866
 Frc consts  --      1.0783                 1.2084                 0.9367
 IR Inten    --      4.7884                 5.2932                 8.4529

                     52                     53                     54
                      A                      A                      A
 Frequencies --   1121.5604              1149.9668              1160.3042
 Red. masses --      1.8989                 2.4097                 1.3661
 Frc consts  --      1.4074                 1.8775                 1.0836
 IR Inten    --     12.6132                28.0555                 1.4277

                     55                     56                     57
                      A                      A                      A
 Frequencies --   1166.5091              1196.6070              1213.4206
 Red. masses --      1.8325                 2.7221                 1.7819
 Frc consts  --      1.4692                 2.2965                 1.5458
 IR Inten    --      4.4657                 1.8313                10.0925

                     58                     59                     60
                      A                      A                      A
 Frequencies --   1250.2670              1273.1211              1292.4483
 Red. masses --      2.4130                 2.2465                 1.2629
 Frc consts  --      2.2223                 2.1453                 1.2429
 IR Inten    --      1.6186                15.3711                16.5466

                     61                     62                     63
                      A                      A                      A
 Frequencies --   1309.2167              1320.7381              1322.9420
 Red. masses --      1.3526                 1.2763                 2.8563
 Frc consts  --      1.3660                 1.3117                 2.9454
 IR Inten    --      1.0702                 0.2531                31.3693

                     64                     65                     66
                      A                      A                      A
 Frequencies --   1340.3121              1377.6071              1384.9597
 Red. masses --      1.4264                 4.0483                 1.3780
 Frc consts  --      1.5097                 4.5266                 1.5573
 IR Inten    --      5.4219                 8.1513                10.4931

                     67                     68                     69
                      A                      A                      A
 Frequencies --   1401.6867              1418.1503              1421.6977
 Red. masses --      6.9495                 1.2401                 1.2700
 Frc consts  --      8.0446                 1.4695                 1.5124
 IR Inten    --     10.9956                 2.7321                10.9927

                     70                     71                     72
                      A                      A                      A
 Frequencies --   1426.2461              1436.7554              1447.4411
 Red. masses --      1.3104                 1.3776                 1.2889
 Frc consts  --      1.5706                 1.6754                 1.5910
 IR Inten    --      0.4969                 5.2572                 9.4255

                     73                     74                     75
                      A                      A                      A
 Frequencies --   1456.6043              1461.4171              1499.5351
 Red. masses --      1.2741                 1.6754                 1.6852
 Frc consts  --      1.5927                 2.1082                 2.2326
 IR Inten    --     19.8137                13.4976                44.3336

                     76                     77                     78
                      A                      A                      A
 Frequencies --   1510.4074              1514.0927              1520.0776
 Red. masses --      1.0514                 1.1865                 1.0594
 Frc consts  --      1.4131                 1.6026                 1.4423
 IR Inten    --      2.3433                 3.2082                 0.1544

                     79                     80                     81
                      A                      A                      A
 Frequencies --   1523.1047              1529.3251              1532.9312
 Red. masses --      1.0475                 1.0469                 1.0573
 Frc consts  --      1.4318                 1.4427                 1.4638
 IR Inten    --      0.1667                 3.0312                 5.8894

                     82                     83                     84
                      A                      A                      A
 Frequencies --   1537.1506              1539.8247              1541.4468
 Red. masses --      1.1892                 1.0557                 1.0577
 Frc consts  --      1.6555                 1.4747                 1.4807
 IR Inten    --      2.0155                 5.1860                 6.5049

                     85                     86                     87
                      A                      A                      A
 Frequencies --   1545.7850              1558.2703              1565.2885
 Red. masses --      1.0616                 2.7554                 1.0586
 Frc consts  --      1.4945                 3.9421                 1.5282
 IR Inten    --      0.8891                12.8023                14.0810

                     88                     89                     90
                      A                      A                      A
 Frequencies --   1719.2363              2963.9197              3027.2397
 Red. masses --      1.0799                 1.0830                 1.0741
 Frc consts  --      1.8806                 5.6055                 5.7995
 IR Inten    --     36.7185                37.2011                38.4648

                     91                     92                     93
                      A                      A                      A
 Frequencies --   3039.9055              3045.0220              3045.6382
 Red. masses --      1.0376                 1.0380                 1.0383
 Frc consts  --      5.6493                 5.6703                 5.6744
 IR Inten    --     15.6901                31.7908                24.6219

                     94                     95                     96
                      A                      A                      A
 Frequencies --   3057.3473              3066.4858              3067.9661
 Red. masses --      1.0488                 1.0791                 1.0368
 Frc consts  --      5.7762                 5.9786                 5.7498
 IR Inten    --     36.6748                11.6972                43.5226

                     97                     98                     99
                      A                      A                      A
 Frequencies --   3098.6959              3104.0583              3106.2037
 Red. masses --      1.1015                 1.0984                 1.1000
 Frc consts  --      6.2317                 6.2357                 6.2533
 IR Inten    --      6.6127                16.5780                80.7277

                    100                    101                    102
                      A                      A                      A
 Frequencies --   3114.1114              3123.4155              3128.7620
 Red. masses --      1.1013                 1.0951                 1.0955
 Frc consts  --      6.2922                 6.2947                 6.3182
 IR Inten    --     40.3251                 0.4380                56.5599

                    103                    104                    105
                      A                      A                      A
 Frequencies --   3132.7163              3138.5749              3159.7764
 Red. masses --      1.0913                 1.1010                 1.0989
 Frc consts  --      6.3102                 6.3899                 6.4643
 IR Inten    --     45.0237                13.7196                 6.4137

                    106                    107                    108
                      A                      A                      A
 Frequencies --   3171.8681              3179.0733              3263.1343
 Red. masses --      1.1043                 1.1000                 1.0915
 Frc consts  --      6.5461                 6.5498                 6.8478
 IR Inten    --      4.3196                 5.3763                 7.2161

                    109                    110                    111
                      A                      A                      A
 Frequencies --   3289.9828              3413.6532              3509.8517
 Red. masses --      1.1044                 1.0537                 1.0885
 Frc consts  --      7.0432                 7.2345                 7.9002
 IR Inten    --      4.7092               124.3821                23.4864

 - Thermochemistry -
 -------------------
 Temperature   298.150 Kelvin.  Pressure   1.00000 Atm.
 Atom     1 has atomic number  6 and mass  12.00000

 Molecular mass:   241.16127 amu.
 Principal axes and moments of inertia in atomic units:
                           1         2         3
     Eigenvalues --  2431.934625330.878455912.22703
           X            0.99984   0.01692  -0.00498
           Y           -0.01698   0.99978  -0.01235
           Z            0.00477   0.01244   0.99991
 This molecule is an asymmetric top.
 Rotational symmetry number  1.
 Warning -- assumption of classical behavior for rotation
           may cause significant error
 Rotational temperatures (Kelvin)      0.03562     0.01625     0.01465
 Rotational constants (GHZ):           0.74210     0.33854     0.30526
 Zero-point vibrational energy     910725.4 (Joules/Mol)
                                  217.66860 (Kcal/Mol)
 Warning -- explicit consideration of  29 degrees of freedom as
           vibrations may cause significant error
 Vibrational temperatures:     48.46    51.78    80.20    88.59   113.22
          (Kelvin)            157.96   176.07   270.28   293.25   305.03
                              318.99   343.64   349.80   383.36   393.06
                              413.89   431.25   472.63   495.59   529.19
                              567.38   575.80   587.12   603.78   635.87
                              670.48   693.95   719.18   885.11   907.81
                              995.85  1010.29  1040.02  1060.03  1121.79
                             1155.23  1210.74  1230.05  1301.31  1353.60
                             1357.57  1367.86  1403.90  1413.31  1453.14
                             1524.76  1528.32  1533.46  1545.09  1556.95
                             1599.41  1613.68  1654.55  1669.42  1678.35
                             1721.65  1745.84  1798.86  1831.74  1859.54
                             1883.67  1900.25  1903.42  1928.41  1982.07
                             1992.65  2016.71  2040.40  2045.51  2052.05
                             2067.17  2082.54  2095.73  2102.65  2157.50
                             2173.14  2178.44  2187.05  2191.41  2200.36
                             2205.55  2211.62  2215.46  2217.80  2224.04
                             2242.00  2252.10  2473.60  4264.42  4355.52
                             4373.75  4381.11  4381.99  4398.84  4411.99
                             4414.12  4458.33  4466.05  4469.13  4480.51
                             4493.90  4501.59  4507.28  4515.71  4546.21
                             4563.61  4573.98  4694.92  4733.55  4911.49
                             5049.89

 Zero-point correction=                           0.346877 (Hartree/Particle)
 Thermal correction to Energy=                    0.365343
 Thermal correction to Enthalpy=                  0.366287
 Thermal correction to Gibbs Free Energy=         0.300538
 Sum of electronic and zero-point Energies=          -1033.291883
 Sum of electronic and thermal Energies=             -1033.273417
 Sum of electronic and thermal Enthalpies=           -1033.272473
 Sum of electronic and thermal Free Energies=        -1033.338222

                     E (Thermal)             CV                S
                      KCal/Mol        Cal/Mol-Kelvin    Cal/Mol-Kelvin
 Total                  229.256             69.984            138.380
 Electronic               0.000              0.000              0.000
 Translational            0.889              2.981             42.342
 Rotational               0.889              2.981             32.705
 Vibrational            227.479             64.023             63.333
 Vibration     1          0.594              1.983              5.600
 Vibration     2          0.594              1.982              5.469
 Vibration     3          0.596              1.975              4.603
 Vibration     4          0.597              1.973              4.406
 Vibration     5          0.600              1.963              3.923
 Vibration     6          0.606              1.941              3.273
 Vibration     7          0.610              1.930              3.063
 Vibration     8          0.633              1.857              2.249
 Vibration     9          0.639              1.834              2.098
 Vibration    10          0.643              1.823              2.026
 Vibration    11          0.648              1.808              1.945
 Vibration    12          0.657              1.781              1.811
 Vibration    13          0.659              1.774              1.780
 Vibration    14          0.672              1.735              1.619
 Vibration    15          0.676              1.723              1.576
 Vibration    16          0.685              1.697              1.488
 Vibration    17          0.692              1.674              1.418
 Vibration    18          0.712              1.619              1.267
 Vibration    19          0.723              1.587              1.191
 Vibration    20          0.740              1.538              1.089
 Vibration    21          0.761              1.482              0.984
 Vibration    22          0.766              1.470              0.962
 Vibration    23          0.773              1.453              0.933
 Vibration    24          0.782              1.428              0.893
 Vibration    25          0.802              1.379              0.820
 Vibration    26          0.823              1.325              0.749
 Vibration    27          0.839              1.289              0.704
 Vibration    28          0.855              1.250              0.658
 Vibration    29          0.975              1.000              0.424

                           ! Non-Optimized Parameters !
 Normal termination of Gaussian 16 at Thu Dec 10 23:26:23 2020.

 ----------------------------------------------------------------------
 # B3LYP/6-311++G(d,p) empiricaldispersion=gd3bj scf=xqc pop=npa geom=c
 heck
 ----------------------------------------------------------------------

 --------------------------------------
 CID_61634363_JID_6416_Energie_neutraal
 --------------------------------------
 Structure from the checkpoint file:  "JID_6416.chk"
 Charge =  0 Multiplicity = 1

 SCF Done:  E(RB3LYP) =  -1033.84571814     A.U. after   16 cycles
 Normal termination of Gaussian 16 at Thu Dec 10 23:34:23 2020.

 ----------------------------------------------------------------------
 # B3LYP/6-311++G(d,p) empiricaldispersion=gd3bj scf=xqc pop=npa geom=c
 heck
 ----------------------------------------------------------------------

 ------------------------------------
 CID_61634363_JID_6416_Energie_kation
 ------------------------------------
 Structure from the checkpoint file:  "JID_6416.chk"
 Charge =  1 Multiplicity = 2

 SCF Done:  E(UB3LYP) =  -1033.56265420     A.U. after   33 cycles
 SCF Done:  E(UB3LYP) =  -1033.56265420     a.u. after    1 cycles
 Normal termination of Gaussian 16 at Thu Dec 10 23:58:27 2020.
 Gaussian 16:  ES64L-G16RevA.03 25-Dec-2016

 ----------------------------------------------------------------------
 # B3LYP/6-311++G(d,p) empiricaldispersion=gd3bj scf=xqc pop=npa geom=c
 heck
 ----------------------------------------------------------------------

 -----------------------------------
 CID_61634363_JID_6416_Energie_anion
 -----------------------------------
 Structure from the checkpoint file:  "JID_6416.chk"
 Charge = -1 Multiplicity = 2

                         Standard orientation:
 ---------------------------------------------------------------------
 Center     Atomic      Atomic             Coordinates (Angstroms)
 Number     Number       Type             X           Y           Z
 ---------------------------------------------------------------------
      1          6           0        3.838800    0.891263   -1.436713
      2          6           0        3.198191    1.298537   -0.108127
      3          6           0        1.660250    1.172685   -0.053407
      4          6           0        1.119865   -0.244327   -0.424339
      5          6           0        1.062282   -1.381542    0.646646
      6          6           0       -0.087147   -1.235764    1.659481
      7          6           0        0.913081   -2.733406   -0.078291
      8          6           0        2.388613   -1.412237    1.431872
      9         16           0       -0.427930   -0.114276   -1.475741
     10          6           0       -1.692199    0.531596   -0.431648
     11          7           0       -1.655278    1.636040    0.299474
     12          6           0       -2.881240    1.723416    0.914586
     13          6           0       -3.681231    0.676373    0.533508
     14          7           0       -2.915553   -0.092004   -0.320817
     15          6           0       -3.347561   -1.313302   -0.979488
     16          7           0        1.196898    1.613411    1.265323
     17          1           0        3.808748   -0.192558   -1.596088
     18          1           0        4.891968    1.190909   -1.465353
     19          1           0        3.332775    1.366561   -2.285927
     20          1           0        3.658427    0.751784    0.718265
     21          1           0        3.418987    2.360603    0.072129
     22          1           0        1.290770    1.828958   -0.858966
     23          1           0        1.779156   -0.613629   -1.218435
     24          1           0       -1.066075   -1.332183    1.182549
     25          1           0       -0.008698   -2.034823    2.406845
     26          1           0       -0.037547   -0.275433    2.173260
     27          1           0        1.749487   -2.911371   -0.766033
     28          1           0        0.901301   -3.551035    0.651465
     29          1           0       -0.014254   -2.781453   -0.657087
     30          1           0        3.253529   -1.503793    0.764250
     31          1           0        2.496593   -0.512642    2.040291
     32          1           0        2.394442   -2.283635    2.097515
     33          1           0       -3.114701    2.536018    1.588411
     34          1           0       -4.700497    0.410570    0.770249
     35          1           0       -3.779829   -1.102335   -1.963255
     36          1           0       -2.488187   -1.973462   -1.106471
     37          1           0       -4.096246   -1.806447   -0.355615
     38          1           0        1.648054    2.503048    1.478112
     39          1           0        0.195983    1.812889    1.189393
 ---------------------------------------------------------------------

 SCF Done:  E(UB3LYP) =  -1033.83271202     A.U. after   33 cycles
 SCF Done:  E(UB3LYP) =  -1033.83271202     a.u. after    1 cycles

 The electronic state is 2-A.
 Alpha  occ. eigenvalues --  -88.75817 -14.28635 -14.20911 -14.18842 -10.15796
 Alpha  occ. eigenvalues --  -10.11814 -10.11769 -10.11007 -10.10915 -10.09895
 Alpha  occ. eigenvalues --  -10.09777 -10.07813 -10.07362 -10.06293 -10.06261
 Alpha  occ. eigenvalues --  -10.05381  -7.84458  -5.80877  -5.80450  -5.79827
 Alpha  occ. eigenvalues --   -0.93437  -0.80339  -0.79547  -0.73826  -0.69675
 Alpha  occ. eigenvalues --   -0.68294  -0.64806  -0.62586  -0.59462  -0.58890
 Alpha  occ. eigenvalues --   -0.57957  -0.54906  -0.51516  -0.48875  -0.46736
 Alpha  occ. eigenvalues --   -0.44253  -0.42097  -0.39883  -0.38838  -0.38302
 Alpha  occ. eigenvalues --   -0.36445  -0.35691  -0.35324  -0.34332  -0.34295
 Alpha  occ. eigenvalues --   -0.34184  -0.31785  -0.31568  -0.31419  -0.31165
 Alpha  occ. eigenvalues --   -0.29489  -0.29104  -0.27978  -0.27243  -0.26901
 Alpha  occ. eigenvalues --   -0.26613  -0.24776  -0.24296  -0.23259  -0.22827
 Alpha  occ. eigenvalues --   -0.21831  -0.19450  -0.18864  -0.16687  -0.14480
 Alpha  occ. eigenvalues --   -0.12760   0.04081
 Alpha virt. eigenvalues --    0.05322   0.06764   0.07168   0.07674   0.07763
 Alpha virt. eigenvalues --    0.08200   0.09159   0.09339   0.09576   0.09986
 Alpha virt. eigenvalues --    0.10735   0.10942   0.11360   0.11768   0.12185

  Beta  occ. eigenvalues --  -88.75814 -14.28632 -14.20908 -14.18838 -10.15792
  Beta  occ. eigenvalues --  -10.11808 -10.11712 -10.11004 -10.10891 -10.09893
  Beta  occ. eigenvalues --  -10.09776 -10.07803 -10.07333 -10.06281 -10.06241
  Beta  occ. eigenvalues --  -10.05370  -7.84455  -5.80874  -5.80444  -5.79824
  Beta  occ. eigenvalues --   -0.93427  -0.80327  -0.79538  -0.73816  -0.69657
  Beta  occ. eigenvalues --   -0.68270  -0.64771  -0.62532  -0.59431  -0.58862
  Beta  occ. eigenvalues --   -0.57928  -0.54865  -0.51491  -0.48844  -0.46694
  Beta  occ. eigenvalues --   -0.44211  -0.42061  -0.39862  -0.38811  -0.38284
  Beta  occ. eigenvalues --   -0.36418  -0.35651  -0.35300  -0.34308  -0.34258
  Beta  occ. eigenvalues --   -0.34155  -0.31766  -0.31546  -0.31385  -0.31126
  Beta  occ. eigenvalues --   -0.29470  -0.29088  -0.27948  -0.27222  -0.26882
  Beta  occ. eigenvalues --   -0.26590  -0.24757  -0.24279  -0.23244  -0.22808
  Beta  occ. eigenvalues --   -0.21812  -0.19441  -0.18843  -0.16674  -0.14467
  Beta  occ. eigenvalues --   -0.12745
  Beta virt. eigenvalues --    0.05933   0.06759   0.07120   0.07462   0.07937
  Beta virt. eigenvalues --    0.08242   0.08635   0.09411   0.09639   0.09985
  Beta virt. eigenvalues --    0.10305   0.10966   0.11152   0.11542   0.11869

 Mulliken charges and spin densities:
               1          2
     1  C    0.785287  -1.425786
     2  C   -1.170580   0.975084
     3  C   -0.657221  -0.044422
     4  C    2.011987  -1.170854
     5  C   -1.045828   1.459899
     6  C   -0.868272   0.135684
     7  C    0.031048  -0.578899
     8  C   -0.075563  -0.733564
     9  S    1.086086  -1.208456
    10  C   -1.275858   0.112818
    11  N   -0.035422   0.034971
    12  C    0.641962  -0.648253
    13  C   -0.165123   0.064621
    14  N    0.126384   0.256290
    15  C    1.102096  -1.353013
    16  N   -0.350445  -0.047687
    17  H   -0.244622   0.386882
    18  H   -0.451180   0.607492
    19  H    0.078555   0.054894
    20  H    0.069960   0.066322
    21  H   -0.145387   0.276082
    22  H   -0.002275   0.188771
    23  H    0.686675  -0.424997
    24  H    0.228745  -0.047120
    25  H   -0.049502   0.202991
    26  H    0.187070   0.013692
    27  H   -0.173000   0.317554
    28  H   -0.072781   0.219232
    29  H   -0.060468   0.178689
    30  H    0.005441   0.136136
    31  H    0.184100   0.026636
    32  H    0.149191  -0.001488
    33  H    0.007824   0.152694
    34  H   -1.026828   1.216829
    35  H   -0.258787   0.448068
    36  H   -0.112395   0.310428
    37  H   -0.675501   0.845411
    38  H    0.169797   0.043293
    39  H    0.364833  -0.046924
 Sum of Mulliken charges =  -1.00000   1.00000

 Dipole moment (field-independent basis, Debye):
    X=              4.2190    Y=              2.9949    Z=              1.1553  Tot=              5.3013
 Quadrupole moment (field-independent basis, Debye-Ang):
   XX=           -215.9117   YY=           -152.7256   ZZ=           -144.0027
   XY=            -14.5479   XZ=              7.1901   YZ=              1.8948

 Summary of Natural Population Analysis:

                                       Natural Population
                Natural  -----------------------------------------------
    Atom  No    Charge         Core      Valence    Rydberg      Total
 -----------------------------------------------------------------------
      C    1   -0.28925      0.99967     2.28433    0.00526     3.28925
      C    2   -0.19180      0.99961     2.18307    0.00911     3.19180
      C    3   -0.01734      0.99955     2.00397    0.01382     3.01734
      C    4   -0.14630      0.99947     2.13069    0.01614     3.14630
      C    5   -0.04999      0.99955     2.03771    0.01273     3.04999
      C    6   -0.28944      0.99961     2.28234    0.00749     3.28944
      C    7   -0.28542      0.99963     2.27811    0.00768     3.28542
      C    8   -0.28882      0.99962     2.28180    0.00740     3.28882
      S    9    0.11445      4.99951     2.86806    0.01798     7.88555
      C   10    0.10813      0.99953     1.87057    0.02176     2.89187
      N   11   -0.27977      0.99966     2.76890    0.01121     3.77977
      C   12   -0.03052      0.99957     2.01759    0.01336     3.03052
      C   13   -0.02657      0.99953     2.01477    0.01226     3.02657
      N   14   -0.20968      0.99961     2.69758    0.01248     3.70968
      C   15   -0.17575      0.99962     2.16779    0.00834     3.17575
      N   16   -0.43553      0.99975     2.92730    0.00848     3.93553
      H   17    0.09647      0.00000     0.40242    0.00111     0.40353
      H   18    0.10204      0.00000     0.39693    0.00102     0.39796
      H   19    0.09772      0.00000     0.40119    0.00109     0.40228
      H   20    0.10022      0.00000     0.39849    0.00128     0.39978
      H   21    0.09337      0.00000     0.40556    0.00107     0.40663
      H   22    0.08647      0.00000     0.41122    0.00231     0.41353
      H   23    0.11019      0.00000     0.38775    0.00206     0.38981
      H   24    0.10007      0.00000     0.39848    0.00145     0.39993
      H   25    0.09682      0.00000     0.40240    0.00078     0.40318
      H   26    0.11312      0.00000     0.38568    0.00120     0.38688
      H   27    0.09705      0.00000     0.40200    0.00095     0.40295
      H   28    0.09922      0.00000     0.39996    0.00082     0.40078
      H   29    0.10493      0.00000     0.39375    0.00132     0.39507
      H   30    0.09741      0.00000     0.40170    0.00089     0.40259
      H   31    0.11058      0.00000     0.38811    0.00131     0.38942
      H   32    0.09833      0.00000     0.40095    0.00072     0.40167
      H   33    0.09709      0.00000     0.40205    0.00087     0.40291
      H   34    0.10900      0.00000     0.38877    0.00223     0.39100
      H   35    0.09968      0.00000     0.39891    0.00141     0.40032
      H   36    0.10981      0.00000     0.38841    0.00179     0.39019
      H   37    0.10784      0.00000     0.38792    0.00424     0.39216
      H   38    0.16959      0.00000     0.32882    0.00159     0.33041
      H   39    0.19658      0.00000     0.30137    0.00206     0.30342
 =======================================================================
   * Total *   -0.00000     19.99351    45.78743    0.21907    66.00000

 Normal termination of Gaussian 16 at Fri Dec 11 00:21:09 2020.
