 Gaussian 16, Revision A.03,

 -----------------------------------------------------------
 # opt freq B3LYP/6-31G(d) empiricaldispersion=gd3bj scf=xqc
 -----------------------------------------------------------

 ------------------------------
 CID_66138861_JID_6051_neutraal
 ------------------------------
 Symbolic Z-matrix:
 Charge =  0 Multiplicity = 1

 SCF Done:  E(RB3LYP) =  -1053.40236553     A.U. after   15 cycles
 SCF Done:  E(RB3LYP) =  -1053.42813617     A.U. after   13 cycles
 SCF Done:  E(RB3LYP) =  -1053.42688301     A.U. after   12 cycles
 SCF Done:  E(RB3LYP) =  -1053.42965541     A.U. after   13 cycles
 SCF Done:  E(RB3LYP) =  -1053.43269229     A.U. after   14 cycles
 SCF Done:  E(RB3LYP) =  -1053.42984195     A.U. after   13 cycles
 SCF Done:  E(RB3LYP) =  -1053.43530058     A.U. after   13 cycles
 SCF Done:  E(RB3LYP) =  -1053.43559542     A.U. after   12 cycles
 SCF Done:  E(RB3LYP) =  -1053.43718548     A.U. after   12 cycles
 SCF Done:  E(RB3LYP) =  -1053.43740151     A.U. after   11 cycles
 SCF Done:  E(RB3LYP) =  -1053.44004279     A.U. after   10 cycles
 SCF Done:  E(RB3LYP) =  -1053.44004501     A.U. after    8 cycles
 SCF Done:  E(RB3LYP) =  -1053.44004595     A.U. after    8 cycles
 SCF Done:  E(RB3LYP) =  -1053.44004629     A.U. after    8 cycles
 SCF Done:  E(RB3LYP) =  -1053.44004645     A.U. after    7 cycles
 SCF Done:  E(RB3LYP) =  -1053.44004650     A.U. after    7 cycles
 Optimization completed.
    -- Stationary point found.
 Normal termination of Gaussian 16 at Thu Dec 10 21:36:41 2020.

 --------------------------------------------------------------------
 #N Geom=AllCheck Guess=TCheck SCRF=Check GenChk RB3LYP/6-31G(d) Freq
 --------------------------------------------------------------------

 Structure from the checkpoint file:  "JID_6051.chk"
 ------------------------------
 CID_66138861_JID_6051_neutraal
 ------------------------------
 Charge =  0 Multiplicity = 1

 SCF Done:  E(RB3LYP) =  -1053.44004650     A.U. after    1 cycles

  Exact polarizability: 175.479  -2.213 149.483  -4.157   5.500 137.587
 Approx polarizability: 229.142  -5.212 204.844  -8.768  15.082 227.467

                      1                      2                      3
                      A                      A                      A
 Frequencies --     20.2177                42.9116                54.9642
 Red. masses --      3.9152                 5.2433                 3.7491
 Frc consts  --      0.0009                 0.0057                 0.0067
 IR Inten    --      0.1247                 1.4241                 0.5464

                      4                      5                      6
                      A                      A                      A
 Frequencies --     68.0217                85.8886                92.5035
 Red. masses --      4.1379                 3.8484                 3.9216
 Frc consts  --      0.0113                 0.0167                 0.0198
 IR Inten    --      0.4886                 0.4864                 1.4261

                      7                      8                      9
                      A                      A                      A
 Frequencies --    119.4399               122.5750               134.4684
 Red. masses --      4.4021                 2.2997                 3.1213
 Frc consts  --      0.0370                 0.0204                 0.0333
 IR Inten    --      1.6087                 1.7512                 1.7622

                     10                     11                     12
                      A                      A                      A
 Frequencies --    147.4322               164.6483               179.8902
 Red. masses --      3.1571                 2.8919                 3.5990
 Frc consts  --      0.0404                 0.0462                 0.0686
 IR Inten    --      4.5750                 3.2071                 1.3031

                     13                     14                     15
                      A                      A                      A
 Frequencies --    209.9284               237.5905               245.9325
 Red. masses --      2.7779                 2.2425                 2.9812
 Frc consts  --      0.0721                 0.0746                 0.1062
 IR Inten    --      0.9154                 2.6189                 2.1202

                     16                     17                     18
                      A                      A                      A
 Frequencies --    250.5506               265.3123               318.7246
 Red. masses --      1.1601                 1.3971                 3.0123
 Frc consts  --      0.0429                 0.0579                 0.1803
 IR Inten    --      0.0993                 0.4928                 0.5281

                     19                     20                     21
                      A                      A                      A
 Frequencies --    321.1255               342.5156               350.5468
 Red. masses --      3.1120                 3.4544                 2.8128
 Frc consts  --      0.1891                 0.2388                 0.2036
 IR Inten    --      0.6854                 3.2280                 2.0813

                     22                     23                     24
                      A                      A                      A
 Frequencies --    365.9408               413.8437               426.6699
 Red. masses --      3.4984                 1.1839                 2.5361
 Frc consts  --      0.2760                 0.1195                 0.2720
 IR Inten    --      1.7182                99.7461                11.9886

                     25                     26                     27
                      A                      A                      A
 Frequencies --    460.2727               488.5419               554.7216
 Red. masses --      3.2160                 4.8552                 2.7975
 Frc consts  --      0.4014                 0.6827                 0.5072
 IR Inten    --      2.3711                 1.5926                 1.3035

                     28                     29                     30
                      A                      A                      A
 Frequencies --    590.8557               603.5692               615.0946
 Red. masses --      4.6452                 3.9207                 3.3269
 Frc consts  --      0.9555                 0.8415                 0.7416
 IR Inten    --      3.2527                 5.1058                 5.0881

                     31                     32                     33
                      A                      A                      A
 Frequencies --    721.0384               743.0798               786.4012
 Red. masses --      4.3823                 3.1544                 1.7469
 Frc consts  --      1.3424                 1.0262                 0.6365
 IR Inten    --      3.4127                31.6225                95.4544

                     34                     35                     36
                      A                      A                      A
 Frequencies --    797.0401               828.9159               833.8586
 Red. masses --      1.0889                 1.4952                 1.1777
 Frc consts  --      0.4076                 0.6053                 0.4825
 IR Inten    --      0.7343                 6.3364                 3.6404

                     37                     38                     39
                      A                      A                      A
 Frequencies --    854.8817               864.9527               870.9702
 Red. masses --      1.3007                 1.6777                 2.1409
 Frc consts  --      0.5601                 0.7395                 0.9569
 IR Inten    --      2.9138                 7.1739                 4.1682

                     40                     41                     42
                      A                      A                      A
 Frequencies --    923.2672               946.4691               971.6552
 Red. masses --      3.0661                 1.8854                 3.7611
 Frc consts  --      1.5399                 0.9951                 2.0921
 IR Inten    --     11.8502                 1.4327                 3.9718

                     43                     44                     45
                      A                      A                      A
 Frequencies --    974.5985               997.2591              1028.6181
 Red. masses --      1.7285                 1.5190                 1.8459
 Frc consts  --      0.9673                 0.8901                 1.1507
 IR Inten    --      4.5375                23.2185                 8.2306

                     46                     47                     48
                      A                      A                      A
 Frequencies --   1049.6006              1063.9212              1068.2372
 Red. masses --      2.7890                 2.6209                 1.8126
 Frc consts  --      1.8103                 1.7479                 1.2187
 IR Inten    --     25.9175                 1.4815                25.3618

                     49                     50                     51
                      A                      A                      A
 Frequencies --   1072.6316              1088.3330              1095.9141
 Red. masses --      1.3038                 3.2304                 1.3727
 Frc consts  --      0.8838                 2.2544                 0.9714
 IR Inten    --      7.9738                62.2548                 2.0743

                     52                     53                     54
                      A                      A                      A
 Frequencies --   1119.7769              1124.0618              1150.7026
 Red. masses --      2.2255                 1.8373                 1.1088
 Frc consts  --      1.6441                 1.3678                 0.8650
 IR Inten    --     35.8403                20.8603                 0.6730

                     55                     56                     57
                      A                      A                      A
 Frequencies --   1154.2887              1158.4299              1181.9783
 Red. masses --      2.1127                 1.7440                 2.3855
 Frc consts  --      1.6585                 1.3789                 1.9636
 IR Inten    --      4.9721                12.6720                43.1548

                     58                     59                     60
                      A                      A                      A
 Frequencies --   1208.7012              1211.4287              1226.7587
 Red. masses --      1.1878                 1.4147                 1.8432
 Frc consts  --      1.0224                 1.2232                 1.6344
 IR Inten    --     10.2476                 0.7234                 3.9844

                     61                     62                     63
                      A                      A                      A
 Frequencies --   1251.6361              1264.5037              1276.9421
 Red. masses --      1.7622                 1.4182                 1.8043
 Frc consts  --      1.6265                 1.3361                 1.7334
 IR Inten    --     21.5704                19.9431                18.5121

                     64                     65                     66
                      A                      A                      A
 Frequencies --   1308.0354              1327.9542              1330.5978
 Red. masses --      1.3031                 1.3022                 1.2322
 Frc consts  --      1.3136                 1.3530                 1.2853
 IR Inten    --      5.5622                 5.1417                 6.5290

                     67                     68                     69
                      A                      A                      A
 Frequencies --   1343.5130              1396.8628              1403.6754
 Red. masses --      1.1897                 1.5718                 1.3271
 Frc consts  --      1.2653                 1.8070                 1.5406
 IR Inten    --     14.9185                 7.7955                 2.2244

                     70                     71                     72
                      A                      A                      A
 Frequencies --   1413.2042              1415.8274              1432.4254
 Red. masses --      1.5634                 1.1864                 1.2620
 Frc consts  --      1.8396                 1.4012                 1.5257
 IR Inten    --      7.8838                37.1349                20.5006

                     73                     74                     75
                      A                      A                      A
 Frequencies --   1440.3879              1442.9494              1495.0773
 Red. masses --      1.2258                 1.2841                 1.0859
 Frc consts  --      1.4985                 1.5753                 1.4301
 IR Inten    --      4.6253                11.8080                 2.5234

                     76                     77                     78
                      A                      A                      A
 Frequencies --   1495.9631              1510.4005              1514.5811
 Red. masses --      1.0862                 1.0854                 1.0843
 Frc consts  --      1.4322                 1.4589                 1.4655
 IR Inten    --      4.1607                 9.8787                 3.6728

                     79                     80                     81
                      A                      A                      A
 Frequencies --   1522.9562              1525.1949              1528.9854
 Red. masses --      1.0432                 1.0752                 1.0493
 Frc consts  --      1.4255                 1.4736                 1.4454
 IR Inten    --      9.2196                 3.7381                 1.1704

                     82                     83                     84
                      A                      A                      A
 Frequencies --   1532.3072              1536.3072              1538.5674
 Red. masses --      1.0567                 1.3051                 1.2015
 Frc consts  --      1.4618                 1.8149                 1.6758
 IR Inten    --      6.3363                 2.9897                17.3345

                     85                     86                     87
                      A                      A                      A
 Frequencies --   1553.8772              2366.4554              2943.7603
 Red. masses --      1.0901                12.7002                 1.0734
 Frc consts  --      1.5508                41.9042                 5.4806
 IR Inten    --      5.4772                 1.1942                74.1107

                     88                     89                     90
                      A                      A                      A
 Frequencies --   3032.0577              3049.4799              3052.8502
 Red. masses --      1.0596                 1.0386                 1.0433
 Frc consts  --      5.7395                 5.6907                 5.7289
 IR Inten    --     13.2116                26.8156                16.4987

                     91                     92                     93
                      A                      A                      A
 Frequencies --   3056.8508              3069.1286              3081.1964
 Red. masses --      1.0622                 1.0856                 1.0899
 Frc consts  --      5.8477                 6.0250                 6.0967
 IR Inten    --     21.0513                36.4531                15.9992

                     94                     95                     96
                      A                      A                      A
 Frequencies --   3086.1513              3093.9033              3106.5670
 Red. masses --      1.0570                 1.0870                 1.1053
 Frc consts  --      5.9313                 6.1305                 6.2850
 IR Inten    --     15.1217                11.8385                45.8161

                     97                     98                     99
                      A                      A                      A
 Frequencies --   3112.5637              3121.3580              3139.1297
 Red. masses --      1.1003                 1.0993                 1.1020
 Frc consts  --      6.2804                 6.3103                 6.3981
 IR Inten    --     56.3054                43.8065                13.5838

                    100                    101                    102
                      A                      A                      A
 Frequencies --   3139.3999              3140.1747              3156.3338
 Red. masses --      1.1036                 1.1075                 1.0515
 Frc consts  --      6.4084                 6.4341                 6.1717
 IR Inten    --     19.9504                10.9177                11.9900

                    103                    104                    105
                      A                      A                      A
 Frequencies --   3158.0882              3168.6286              3233.5976
 Red. masses --      1.0589                 1.0877                 1.1197
 Frc consts  --      6.2225                 6.4345                 6.8978
 IR Inten    --     10.7343                 9.6631                 1.1628

                    106                    107                    108
                      A                      A                      A
 Frequencies --   3245.6132              3485.3010              3730.6103
 Red. masses --      1.1163                 1.0734                 1.0661
 Frc consts  --      6.9280                 7.6825                 8.7419
 IR Inten    --     11.1803                 1.4550                16.4114

 - Thermochemistry -
 -------------------
 Temperature   298.150 Kelvin.  Pressure   1.00000 Atm.
 Atom     1 has atomic number  6 and mass  12.00000

 Molecular mass:   242.14529 amu.
 Principal axes and moments of inertia in atomic units:
                           1         2         3
     Eigenvalues --  2859.090975740.633626898.55066
           X            0.99988   0.01509   0.00168
           Y           -0.01503   0.99939  -0.03165
           Z           -0.00216   0.03162   0.99950
 This molecule is an asymmetric top.
 Rotational symmetry number  1.
 Warning -- assumption of classical behavior for rotation
           may cause significant error
 Rotational temperatures (Kelvin)      0.03029     0.01509     0.01256
 Rotational constants (GHZ):           0.63123     0.31438     0.26161
 Zero-point vibrational energy     873180.6 (Joules/Mol)
                                  208.69518 (Kcal/Mol)
 Warning -- explicit consideration of  30 degrees of freedom as
           vibrations may cause significant error
 Vibrational temperatures:     29.09    61.74    79.08    97.87   123.57
          (Kelvin)            133.09   171.85   176.36   193.47   212.12
                              236.89   258.82   302.04   341.84   353.84
                              360.49   381.73   458.57   462.03   492.80
                              504.36   526.51   595.43   613.88   662.23
                              702.90   798.12   850.11   868.40   884.98
                             1037.41  1069.13  1131.46  1146.76  1192.63
                             1199.74  1229.98  1244.47  1253.13  1328.38
                             1361.76  1398.00  1402.23  1434.83  1479.95
                             1510.14  1530.75  1536.96  1543.28  1565.87
                             1576.78  1611.11  1617.27  1655.60  1660.76
                             1666.72  1700.60  1739.05  1742.98  1765.03
                             1800.83  1819.34  1837.23  1881.97  1910.63
                             1914.43  1933.02  2009.77  2019.58  2033.29
                             2037.06  2060.94  2072.40  2076.08  2151.08
                             2152.36  2173.13  2179.14  2191.19  2194.42
                             2199.87  2204.65  2210.40  2213.66  2235.68
                             3404.80  4235.41  4362.45  4387.52  4392.37
                             4398.13  4415.79  4433.15  4440.28  4451.44
                             4469.66  4478.28  4490.94  4516.51  4516.90
                             4518.01  4541.26  4543.78  4558.95  4652.43
                             4669.71  5014.57  5367.52

 Zero-point correction=                           0.332577 (Hartree/Particle)
 Thermal correction to Energy=                    0.351749
 Thermal correction to Enthalpy=                  0.352693
 Thermal correction to Gibbs Free Energy=         0.284350
 Sum of electronic and zero-point Energies=          -1053.107470
 Sum of electronic and thermal Energies=             -1053.088298
 Sum of electronic and thermal Enthalpies=           -1053.087353
 Sum of electronic and thermal Free Energies=        -1053.155696

                     E (Thermal)             CV                S
                      KCal/Mol        Cal/Mol-Kelvin    Cal/Mol-Kelvin
 Total                  220.726             70.284            143.840
 Electronic               0.000              0.000              0.000
 Translational            0.889              2.981             42.354
 Rotational               0.889              2.981             33.093
 Vibrational            218.948             64.322             68.393
 Vibration     1          0.593              1.986              6.613
 Vibration     2          0.595              1.980              5.120
 Vibration     3          0.596              1.976              4.630
 Vibration     4          0.598              1.969              4.210
 Vibration     5          0.601              1.959              3.752
 Vibration     6          0.602              1.955              3.606
 Vibration     7          0.609              1.933              3.109
 Vibration     8          0.610              1.930              3.059
 Vibration     9          0.613              1.919              2.881
 Vibration    10          0.617              1.905              2.705
 Vibration    11          0.623              1.886              2.496
 Vibration    12          0.629              1.867              2.330
 Vibration    13          0.642              1.826              2.044
 Vibration    14          0.656              1.783              1.821
 Vibration    15          0.660              1.770              1.760
 Vibration    16          0.663              1.762              1.727
 Vibration    17          0.671              1.737              1.627
 Vibration    18          0.705              1.638              1.317
 Vibration    19          0.707              1.633              1.304
 Vibration    20          0.722              1.590              1.200
 Vibration    21          0.727              1.574              1.164
 Vibration    22          0.739              1.542              1.097
 Vibration    23          0.777              1.440              0.913
 Vibration    24          0.788              1.412              0.870
 Vibration    25          0.818              1.338              0.765
 Vibration    26          0.844              1.275              0.687
 Vibration    27          0.910              1.129              0.534
 Vibration    28          0.948              1.051              0.466
 Vibration    29          0.962              1.024              0.444
 Vibration    30          0.975              1.000              0.424

                           ! Non-Optimized Parameters !
 Normal termination of Gaussian 16 at Thu Dec 10 21:50:55 2020.

 ----------------------------------------------------------------------
 # B3LYP/6-311++G(d,p) empiricaldispersion=gd3bj scf=xqc pop=npa geom=c
 heck
 ----------------------------------------------------------------------

 --------------------------------------
 CID_66138861_JID_6051_Energie_neutraal
 --------------------------------------
 Structure from the checkpoint file:  "JID_6051.chk"
 Charge =  0 Multiplicity = 1

 SCF Done:  E(RB3LYP) =  -1053.66421327     A.U. after   15 cycles
 Normal termination of Gaussian 16 at Thu Dec 10 21:58:09 2020.

 ----------------------------------------------------------------------
 # B3LYP/6-311++G(d,p) empiricaldispersion=gd3bj scf=xqc pop=npa geom=c
 heck
 ----------------------------------------------------------------------

 ------------------------------------
 CID_66138861_JID_6051_Energie_kation
 ------------------------------------
 Structure from the checkpoint file:  "JID_6051.chk"
 Charge =  1 Multiplicity = 2

 SCF Done:  E(UB3LYP) =  -1053.35253898     A.U. after   25 cycles
 Normal termination of Gaussian 16 at Thu Dec 10 22:18:15 2020.
 Gaussian 16:  ES64L-G16RevA.03 25-Dec-2016

 ----------------------------------------------------------------------
 # B3LYP/6-311++G(d,p) empiricaldispersion=gd3bj scf=xqc pop=npa geom=c
 heck
 ----------------------------------------------------------------------

 -----------------------------------
 CID_66138861_JID_6051_Energie_anion
 -----------------------------------
 Structure from the checkpoint file:  "JID_6051.chk"
 Charge = -1 Multiplicity = 2

                         Standard orientation:
 ---------------------------------------------------------------------
 Center     Atomic      Atomic             Coordinates (Angstroms)
 Number     Number       Type             X           Y           Z
 ---------------------------------------------------------------------
      1          6           0        0.465699    3.518551    0.068292
      2          6           0        0.855072    2.151241    0.622522
      3          7           0        1.133423    1.236282   -0.483800
      4          6           0        1.458477   -0.151130   -0.130747
      5          6           0        0.258302   -0.985789    0.405549
      6         16           0       -1.089548   -1.153214   -0.830389
      7          6           0       -2.591655   -1.207510    0.255276
      8          6           0       -2.572649   -2.414125    1.192927
      9          6           0       -2.880910    0.102401    0.999321
     10          6           0       -2.871373    1.352654    0.114835
     11          8           0       -3.648237    1.198429   -1.065483
     12          6           0        1.948923   -0.783464   -1.377867
     13          7           0        2.332302   -1.289631   -2.348711
     14          6           0        2.559661   -0.197754    0.933343
     15          6           0        3.639129   -1.251039    0.929589
     16          6           0        3.976813    0.183169    0.604897
     17          1           0        1.259078    3.904362   -0.578849
     18          1           0        0.295390    4.230661    0.882350
     19          1           0       -0.456339    3.461486   -0.522732
     20          1           0        1.766010    2.249667    1.220439
     21          1           0        0.061065    1.791805    1.303635
     22          1           0        0.341180    1.221660   -1.125176
     23          1           0        0.613567   -1.976256    0.700915
     24          1           0       -0.130716   -0.481617    1.293821
     25          1           0       -3.385355   -1.345451   -0.487086
     26          1           0       -1.765346   -2.332626    1.929391
     27          1           0       -3.518363   -2.476108    1.745094
     28          1           0       -2.433631   -3.344630    0.635672
     29          1           0       -3.871974   -0.007557    1.459216
     30          1           0       -2.170284    0.243846    1.825868
     31          1           0       -3.304213    2.194502    0.665040
     32          1           0       -1.837749    1.619612   -0.136084
     33          1           0       -3.095869    0.713145   -1.699037
     34          1           0        2.190038    0.093971    1.913006
     35          1           0        3.945858   -1.654141    1.890109
     36          1           0        3.657854   -1.966700    0.113338
     37          1           0        4.196752    0.423236   -0.430856
     38          1           0        4.528691    0.771351    1.331960
 ---------------------------------------------------------------------

 SCF Done:  E(UB3LYP) =  -1053.65734562     A.U. after   31 cycles

 The electronic state is 2-A.
 Alpha  occ. eigenvalues --  -88.75555 -19.04058 -14.23018 -14.22264 -10.17275
 Alpha  occ. eigenvalues --  -10.12881 -10.12569 -10.12402 -10.11937 -10.10731
 Alpha  occ. eigenvalues --  -10.10244 -10.08867 -10.08762 -10.08305 -10.07844
 Alpha  occ. eigenvalues --  -10.07736  -7.84202  -5.80588  -5.80223  -5.79583
 Alpha  occ. eigenvalues --   -0.94179  -0.85460  -0.81875  -0.77793  -0.74374
 Alpha  occ. eigenvalues --   -0.70666  -0.66001  -0.64242  -0.61706  -0.56701
 Alpha  occ. eigenvalues --   -0.55118  -0.53564  -0.51833  -0.50216  -0.47258
 Alpha  occ. eigenvalues --   -0.43464  -0.43236  -0.42253  -0.39656  -0.38919
 Alpha  occ. eigenvalues --   -0.38289  -0.36966  -0.36277  -0.35061  -0.34512
 Alpha  occ. eigenvalues --   -0.33466  -0.31624  -0.30884  -0.30392  -0.29930
 Alpha  occ. eigenvalues --   -0.29388  -0.28606  -0.28142  -0.27833  -0.27479
 Alpha  occ. eigenvalues --   -0.26464  -0.25535  -0.25059  -0.25044  -0.24164
 Alpha  occ. eigenvalues --   -0.22217  -0.21733  -0.21072  -0.19466  -0.15449
 Alpha  occ. eigenvalues --   -0.14791   0.03951
 Alpha virt. eigenvalues --    0.06266   0.06579   0.07082   0.08122   0.08331
 Alpha virt. eigenvalues --    0.08394   0.09230   0.09791   0.10144   0.10543
 Alpha virt. eigenvalues --    0.10708   0.10987   0.11285   0.11721   0.12090

  Beta  occ. eigenvalues --  -88.75553 -19.04056 -14.23014 -14.22262 -10.17276
  Beta  occ. eigenvalues --  -10.12870 -10.12568 -10.12397 -10.11903 -10.10701
  Beta  occ. eigenvalues --  -10.10221 -10.08851 -10.08751 -10.08272 -10.07814
  Beta  occ. eigenvalues --  -10.07722  -7.84200  -5.80580  -5.80222  -5.79582
  Beta  occ. eigenvalues --   -0.94174  -0.85448  -0.81867  -0.77761  -0.74346
  Beta  occ. eigenvalues --   -0.70639  -0.65964  -0.64207  -0.61678  -0.56652
  Beta  occ. eigenvalues --   -0.55071  -0.53514  -0.51792  -0.50160  -0.47213
  Beta  occ. eigenvalues --   -0.43440  -0.43223  -0.42210  -0.39612  -0.38885
  Beta  occ. eigenvalues --   -0.38253  -0.36926  -0.36237  -0.35034  -0.34490
  Beta  occ. eigenvalues --   -0.33424  -0.31578  -0.30844  -0.30362  -0.29903
  Beta  occ. eigenvalues --   -0.29349  -0.28581  -0.28112  -0.27804  -0.27455
  Beta  occ. eigenvalues --   -0.26435  -0.25506  -0.25040  -0.25030  -0.24142
  Beta  occ. eigenvalues --   -0.22192  -0.21709  -0.21047  -0.19444  -0.15435
  Beta  occ. eigenvalues --   -0.14779
  Beta virt. eigenvalues --    0.06367   0.06906   0.07033   0.07578   0.08397
  Beta virt. eigenvalues --    0.08575   0.08775   0.09615   0.10096   0.10259
  Beta virt. eigenvalues --    0.10616   0.10859   0.11252   0.11554   0.12093

 Mulliken charges and spin densities:
               1          2
     1  C    0.041724  -0.623270
     2  C   -0.098806  -0.080700
     3  N    0.176964  -0.002588
     4  C    3.180696  -1.603691
     5  C   -1.558047   0.685913
     6  S    0.241892  -0.196110
     7  C   -1.273857   1.255930
     8  C    0.497425  -1.210767
     9  C    1.201275  -1.171842
    10  C   -0.433379  -0.255782
    11  O   -0.211772   0.005582
    12  C   -1.276293   0.309607
    13  N   -0.214007   0.007196
    14  C   -1.143350   0.395303
    15  C    0.496876  -0.949749
    16  C    0.374902  -0.592501
    17  H    0.129876   0.019738
    18  H   -0.148859   0.303706
    19  H    0.026288   0.103560
    20  H   -0.170152   0.358940
    21  H    0.114825   0.039736
    22  H    0.244263  -0.025634
    23  H    0.279272   0.036239
    24  H    0.392235  -0.243398
    25  H    0.182746   0.083513
    26  H   -0.389867   0.574360
    27  H   -0.307794   0.455047
    28  H    0.060861   0.074884
    29  H    0.017611   0.159483
    30  H   -0.603828   0.770468
    31  H   -0.195632   0.383563
    32  H    0.385779  -0.285808
    33  H    0.241932  -0.000252
    34  H   -1.236867   1.515854
    35  H   -0.214416   0.380896
    36  H    0.110806   0.055985
    37  H    0.148715   0.033526
    38  H   -0.070040   0.233062
 Sum of Mulliken charges =  -1.00000   1.00000

 Dipole moment (field-independent basis, Debye):
    X=             -0.6483    Y=              0.1044    Z=             -6.4290  Tot=              6.4625
 Quadrupole moment (field-independent basis, Debye-Ang):
   XX=           -173.9517   YY=           -150.2301   ZZ=           -171.8763
   XY=              4.1695   XZ=              3.1892   YZ=             -4.1246

 Summary of Natural Population Analysis:

                                       Natural Population
                Natural  -----------------------------------------------
    Atom  No    Charge         Core      Valence    Rydberg      Total
 -----------------------------------------------------------------------
      C    1   -0.28602      0.99966     2.28092    0.00544     3.28602
      C    2   -0.09441      0.99963     2.08385    0.01093     3.09441
      N    3   -0.33704      0.99971     2.82640    0.01093     3.83704
      C    4    0.01079      0.99944     1.97379    0.01597     2.98921
      C    5   -0.25513      0.99954     2.24346    0.01213     3.25513
      S    6    0.07798      4.99960     2.90627    0.01615     7.92202
      C    7   -0.16366      0.99956     2.15086    0.01324     3.16366
      C    8   -0.28910      0.99963     2.28280    0.00668     3.28910
      C    9   -0.21008      0.99958     2.19937    0.01113     3.21008
      C   10   -0.01424      0.99958     2.00051    0.01414     3.01424
      O   11   -0.37246      0.99990     3.36632    0.00623     4.37246
      C   12    0.16797      0.99961     1.81039    0.02203     2.83203
      N   13   -0.17664      0.99979     2.66623    0.01062     3.67664
      C   14   -0.12283      0.99956     2.10598    0.01729     3.12283
      C   15   -0.19587      0.99961     2.18679    0.00947     3.19587
      C   16   -0.19464      0.99961     2.18574    0.00929     3.19464
      H   17    0.09964      0.00000     0.39948    0.00088     0.40036
      H   18    0.10387      0.00000     0.39542    0.00071     0.39613
      H   19    0.09396      0.00000     0.40504    0.00100     0.40604
      H   20    0.09883      0.00000     0.39951    0.00167     0.40117
      H   21    0.08397      0.00000     0.41355    0.00248     0.41603
      H   22    0.17813      0.00000     0.31886    0.00301     0.32187
      H   23    0.10922      0.00000     0.38882    0.00195     0.39078
      H   24    0.11614      0.00000     0.38090    0.00297     0.38386
      H   25    0.10520      0.00000     0.39350    0.00130     0.39480
      H   26    0.10431      0.00000     0.39426    0.00143     0.39569
      H   27    0.10328      0.00000     0.39555    0.00117     0.39672
      H   28    0.10219      0.00000     0.39685    0.00096     0.39781
      H   29    0.10407      0.00000     0.39462    0.00131     0.39593
      H   30    0.10627      0.00000     0.39105    0.00268     0.39373
      H   31    0.08805      0.00000     0.41088    0.00106     0.41195
      H   32    0.07968      0.00000     0.41827    0.00204     0.42032
      H   33    0.22890      0.00000     0.26832    0.00277     0.27110
      H   34    0.12142      0.00000     0.37338    0.00520     0.37858
      H   35    0.10800      0.00000     0.39090    0.00110     0.39200
      H   36    0.10681      0.00000     0.39225    0.00094     0.39319
      H   37    0.10684      0.00000     0.39223    0.00093     0.39316
      H   38    0.10659      0.00000     0.39255    0.00086     0.39341
 =======================================================================
   * Total *   -0.00000     19.99403    45.77588    0.23009    66.00000

 Normal termination of Gaussian 16 at Thu Dec 10 22:41:20 2020.
