 Gaussian 16, Revision A.03,

 -----------------------------------------------------------
 # opt freq B3LYP/6-31G(d) empiricaldispersion=gd3bj scf=xqc
 -----------------------------------------------------------

 -------------------------------
 CID_113382425_JID_9386_neutraal
 -------------------------------
 Symbolic Z-matrix:
 Charge =  0 Multiplicity = 1

 SCF Done:  E(RB3LYP) =  -827.648032187     A.U. after   15 cycles
 SCF Done:  E(RB3LYP) =  -827.653687223     A.U. after   12 cycles
 SCF Done:  E(RB3LYP) =  -827.653964800     A.U. after   12 cycles
 SCF Done:  E(RB3LYP) =  -827.654231974     A.U. after   12 cycles
 SCF Done:  E(RB3LYP) =  -827.654341303     A.U. after   12 cycles
 SCF Done:  E(RB3LYP) =  -827.654448608     A.U. after   10 cycles
 SCF Done:  E(RB3LYP) =  -827.654511384     A.U. after   11 cycles
 SCF Done:  E(RB3LYP) =  -827.654557789     A.U. after   10 cycles
 SCF Done:  E(RB3LYP) =  -827.654627856     A.U. after   11 cycles
 SCF Done:  E(RB3LYP) =  -827.654687211     A.U. after   11 cycles
 SCF Done:  E(RB3LYP) =  -827.655036047     A.U. after    8 cycles
 SCF Done:  E(RB3LYP) =  -827.655037981     A.U. after    9 cycles
 SCF Done:  E(RB3LYP) =  -827.655038598     A.U. after    8 cycles
 SCF Done:  E(RB3LYP) =  -827.655038765     A.U. after    8 cycles
 SCF Done:  E(RB3LYP) =  -827.655038900     A.U. after    7 cycles
 Optimization completed.
    -- Stationary point found.
 Normal termination of Gaussian 16 at Sun Dec 13 12:44:36 2020.

 --------------------------------------------------------------------
 #N Geom=AllCheck Guess=TCheck SCRF=Check GenChk RB3LYP/6-31G(d) Freq
 --------------------------------------------------------------------

 Structure from the checkpoint file:  "JID_9386.chk"
 -------------------------------
 CID_113382425_JID_9386_neutraal
 -------------------------------
 Charge =  0 Multiplicity = 1

 SCF Done:  E(RB3LYP) =  -827.655038900     A.U. after    1 cycles

  Exact polarizability: 270.184  -8.706 163.134  10.758  12.603 119.023
 Approx polarizability: 363.419  -8.690 268.996  27.659  35.051 185.574

                      1                      2                      3
                      A                      A                      A
 Frequencies --     23.9571                54.2356                68.2088
 Red. masses --      4.8893                 3.6175                 4.1375
 Frc consts  --      0.0017                 0.0063                 0.0113
 IR Inten    --      0.0952                 0.3906                 0.2036

                      4                      5                      6
                      A                      A                      A
 Frequencies --     80.2667                96.7463               115.9111
 Red. masses --      3.3880                 4.1995                 2.2500
 Frc consts  --      0.0129                 0.0232                 0.0178
 IR Inten    --      0.6746                 0.9703                 0.2670

                      7                      8                      9
                      A                      A                      A
 Frequencies --    129.2397               160.6068               197.2166
 Red. masses --      4.6841                 2.8487                 4.7902
 Frc consts  --      0.0461                 0.0433                 0.1098
 IR Inten    --      1.4557                 0.1794                 2.0377

                     10                     11                     12
                      A                      A                      A
 Frequencies --    210.7251               229.3913               237.4778
 Red. masses --      3.2410                 2.4045                 2.7963
 Frc consts  --      0.0848                 0.0745                 0.0929
 IR Inten    --      3.7372                 1.0876                 1.0649

                     13                     14                     15
                      A                      A                      A
 Frequencies --    300.7034               306.1109               343.7172
 Red. masses --      3.2427                 3.5669                 4.0618
 Frc consts  --      0.1728                 0.1969                 0.2827
 IR Inten    --      0.0691                 1.3694                 1.7461

                     16                     17                     18
                      A                      A                      A
 Frequencies --    344.6846               389.4603               430.5746
 Red. masses --      2.8789                 3.3759                 2.7089
 Frc consts  --      0.2015                 0.3017                 0.2959
 IR Inten    --      1.8026                 1.5310                 3.1084

                     19                     20                     21
                      A                      A                      A
 Frequencies --    442.5983               464.6604               515.7665
 Red. masses --      2.8523                 3.0051                 2.7886
 Frc consts  --      0.3292                 0.3823                 0.4371
 IR Inten    --      0.6434                 1.1380                 0.4980

                     22                     23                     24
                      A                      A                      A
 Frequencies --    521.3684               528.3604               550.2965
 Red. masses --      2.2111                 2.4293                 3.8718
 Frc consts  --      0.3541                 0.3996                 0.6908
 IR Inten    --      0.4645                19.9356                10.5496

                     25                     26                     27
                      A                      A                      A
 Frequencies --    598.2492               609.4788               637.3148
 Red. masses --      5.2217                 1.3770                 4.7367
 Frc consts  --      1.1011                 0.3014                 1.1335
 IR Inten    --     28.1574                62.1896                64.2887

                     28                     29                     30
                      A                      A                      A
 Frequencies --    699.5321               720.9851               739.6580
 Red. masses --      2.4075                 2.7659                 3.6738
 Frc consts  --      0.6941                 0.8471                 1.1842
 IR Inten    --      5.5447                13.7966                 4.1645

                     31                     32                     33
                      A                      A                      A
 Frequencies --    745.5556               764.3469               770.9771
 Red. masses --      2.8040                 3.1263                 4.8850
 Frc consts  --      0.9183                 1.0761                 1.7108
 IR Inten    --      1.5333                 3.4953                57.5012

                     34                     35                     36
                      A                      A                      A
 Frequencies --    790.3908               823.9711               838.1994
 Red. masses --      1.9774                 1.5684                 2.7192
 Frc consts  --      0.7278                 0.6274                 1.1256
 IR Inten    --      7.4278                10.6352                 0.9633

                     37                     38                     39
                      A                      A                      A
 Frequencies --    848.4263               859.7916               869.7025
 Red. masses --      2.1484                 1.6780                 1.6291
 Frc consts  --      0.9112                 0.7308                 0.7260
 IR Inten    --      1.5569                 1.9317                 1.1150

                     40                     41                     42
                      A                      A                      A
 Frequencies --    920.8116               940.6691               957.1538
 Red. masses --      3.7203                 1.3476                 1.4223
 Frc consts  --      1.8585                 0.7026                 0.7677
 IR Inten    --      4.8370                 3.7672                 2.5901

                     43                     44                     45
                      A                      A                      A
 Frequencies --    961.3943               970.6917               992.8452
 Red. masses --      2.0192                 1.9577                 2.6440
 Frc consts  --      1.0996                 1.0868                 1.5356
 IR Inten    --      4.9786                 7.7959                 0.5457

                     46                     47                     48
                      A                      A                      A
 Frequencies --   1007.1870              1022.9673              1035.7273
 Red. masses --      2.6053                 1.9413                 1.9589
 Frc consts  --      1.5572                 1.1969                 1.2381
 IR Inten    --      0.2179                 0.9116                12.5085

                     49                     50                     51
                      A                      A                      A
 Frequencies --   1055.9940              1081.6065              1086.7981
 Red. masses --      2.6931                 1.7139                 1.6938
 Frc consts  --      1.7694                 1.1813                 1.1787
 IR Inten    --      4.4522                 0.9904                 6.8605

                     52                     53                     54
                      A                      A                      A
 Frequencies --   1105.3268              1137.3563              1149.7540
 Red. masses --      2.3761                 2.0204                 2.1112
 Frc consts  --      1.7104                 1.5399                 1.6444
 IR Inten    --     18.4263                49.5772                 1.1291

                     55                     56                     57
                      A                      A                      A
 Frequencies --   1162.0174              1179.4237              1187.2028
 Red. masses --      2.3470                 2.0699                 1.4034
 Frc consts  --      1.8672                 1.6965                 1.1654
 IR Inten    --    298.4926                47.8379                73.7865

                     58                     59                     60
                      A                      A                      A
 Frequencies --   1214.2326              1218.6519              1235.6897
 Red. masses --      1.1928                 1.6651                 1.3255
 Frc consts  --      1.0361                 1.4570                 1.1924
 IR Inten    --     41.6922               162.4745                 7.6923

                     61                     62                     63
                      A                      A                      A
 Frequencies --   1247.8762              1254.2658              1259.1629
 Red. masses --      1.2768                 1.5161                 1.4067
 Frc consts  --      1.1714                 1.4053                 1.3141
 IR Inten    --     13.9130                35.3062                25.1138

                     64                     65                     66
                      A                      A                      A
 Frequencies --   1264.2199              1298.1034              1323.6076
 Red. masses --      1.2830                 1.3268                 1.5098
 Frc consts  --      1.2082                 1.3172                 1.5584
 IR Inten    --      4.8147                 5.9806                59.6949

                     67                     68                     69
                      A                      A                      A
 Frequencies --   1325.7377              1331.8744              1340.7582
 Red. masses --      1.5924                 1.3768                 1.3062
 Frc consts  --      1.6490                 1.4390                 1.3834
 IR Inten    --    133.3028                73.6146                28.9918

                     70                     71                     72
                      A                      A                      A
 Frequencies --   1372.3967              1379.1923              1380.2295
 Red. masses --      1.4772                 3.1701                 1.3413
 Frc consts  --      1.6393                 3.5528                 1.5054
 IR Inten    --     18.8739                 9.8928                 4.8324

                     73                     74                     75
                      A                      A                      A
 Frequencies --   1394.3402              1400.0440              1404.1144
 Red. masses --      2.3774                 1.4244                 1.4419
 Frc consts  --      2.7232                 1.6450                 1.6749
 IR Inten    --    223.2274                 0.6481                 3.0467

                     76                     77                     78
                      A                      A                      A
 Frequencies --   1415.7553              1419.2101              1423.2206
 Red. masses --      1.4937                 1.3925                 1.3463
 Frc consts  --      1.7640                 1.6524                 1.6067
 IR Inten    --      0.6320                 6.7911                 3.9148

                     79                     80                     81
                      A                      A                      A
 Frequencies --   1430.1297              1460.6971              1501.8272
 Red. masses --      1.3962                 2.1497                 4.4180
 Frc consts  --      1.6824                 2.7024                 5.8711
 IR Inten    --      5.0900                56.5433               111.2388

                     82                     83                     84
                      A                      A                      A
 Frequencies --   1511.8762              1515.1229              1515.8250
 Red. masses --      1.0928                 1.1016                 1.1138
 Frc consts  --      1.4718                 1.4899                 1.5079
 IR Inten    --      9.3711                 2.0096                 5.1610

                     85                     86                     87
                      A                      A                      A
 Frequencies --   1519.9236              1523.9311              1536.1133
 Red. masses --      1.0875                 1.0966                 1.0828
 Frc consts  --      1.4802                 1.5004                 1.5054
 IR Inten    --      2.8264                 4.0241                13.4980

                     88                     89                     90
                      A                      A                      A
 Frequencies --   1541.4708              1549.2298              1568.5632
 Red. masses --      1.1026                 1.8595                 1.5086
 Frc consts  --      1.5436                 2.6295                 2.1869
 IR Inten    --     13.1138               100.6983                48.5298

                     91                     92                     93
                      A                      A                      A
 Frequencies --   1629.3012              1674.9590              1805.1377
 Red. masses --      6.4691                 6.6553                 9.2614
 Frc consts  --     10.1181                11.0008                17.7807
 IR Inten    --     41.6017               324.4773               399.1821

                     94                     95                     96
                      A                      A                      A
 Frequencies --   3010.1978              3027.2507              3029.1790
 Red. masses --      1.0824                 1.0708                 1.0624
 Frc consts  --      5.7786                 5.7815                 5.7437
 IR Inten    --     15.1940                88.6723                11.6297

                     97                     98                     99
                      A                      A                      A
 Frequencies --   3034.4117              3039.4360              3042.8732
 Red. masses --      1.0665                 1.0652                 1.0682
 Frc consts  --      5.7859                 5.7980                 5.8273
 IR Inten    --     16.7885                10.2304                39.0386

                    100                    101                    102
                      A                      A                      A
 Frequencies --   3049.7047              3051.9752              3058.3932
 Red. masses --      1.0669                 1.0680                 1.0769
 Frc consts  --      5.8462                 5.8612                 5.9349
 IR Inten    --     47.8127                27.2193                25.0600

                    103                    104                    105
                      A                      A                      A
 Frequencies --   3062.2242              3074.6475              3078.2325
 Red. masses --      1.0874                 1.1019                 1.0988
 Frc consts  --      6.0078                 6.1376                 6.1346
 IR Inten    --     41.2532                52.5891                33.8526

                    106                    107                    108
                      A                      A                      A
 Frequencies --   3088.8144              3094.2635              3094.4541
 Red. masses --      1.0955                 1.0932                 1.0952
 Frc consts  --      6.1581                 6.1668                 6.1790
 IR Inten    --     43.1789                36.8937                28.0506

                    109                    110                    111
                      A                      A                      A
 Frequencies --   3104.0432              3105.9340              3213.4695
 Red. masses --      1.0964                 1.0998                 1.0882
 Frc consts  --      6.2238                 6.2511                 6.6206
 IR Inten    --     66.2677                42.5883                14.4423

                    112                    113                    114
                      A                      A                      A
 Frequencies --   3214.7965              3231.6541              3705.6472
 Red. masses --      1.0904                 1.0934                 1.0641
 Frc consts  --      6.6395                 6.7282                 8.6094
 IR Inten    --      1.9177                 6.0562                79.8742

 - Thermochemistry -
 -------------------
 Temperature   298.150 Kelvin.  Pressure   1.00000 Atm.
 Atom     1 has atomic number  6 and mass  12.00000

 Molecular mass:   259.15723 amu.
 Principal axes and moments of inertia in atomic units:
                           1         2         3
     Eigenvalues --  1785.34348********************
           X            1.00000   0.00123  -0.00271
           Y           -0.00122   1.00000   0.00122
           Z            0.00271  -0.00122   1.00000
 This molecule is an asymmetric top.
 Rotational symmetry number  1.
 Warning -- assumption of classical behavior for rotation
           may cause significant error
 Rotational temperatures (Kelvin)      0.04851     0.00827     0.00776
 Rotational constants (GHZ):           1.01086     0.17233     0.16178
 Zero-point vibrational energy     918804.9 (Joules/Mol)
                                  219.59964 (Kcal/Mol)
 Warning -- explicit consideration of  26 degrees of freedom as
           vibrations may cause significant error
 Vibrational temperatures:     34.47    78.03    98.14   115.49   139.20
          (Kelvin)            166.77   185.95   231.08   283.75   303.19
                              330.04   341.68   432.65   440.43   494.53
                              495.92   560.35   619.50   636.80   668.54
                              742.07   750.13   760.19   791.75   860.75
                              876.90   916.95  1006.47  1037.34  1064.20
                             1072.69  1099.72  1109.26  1137.20  1185.51
                             1205.98  1220.70  1237.05  1251.31  1324.84
                             1353.41  1377.13  1383.23  1396.61  1428.48
                             1449.12  1471.82  1490.18  1519.34  1556.19
                             1563.66  1590.32  1636.40  1654.24  1671.88
                             1696.93  1708.12  1747.01  1753.37  1777.88
                             1795.42  1804.61  1811.65  1818.93  1867.68
                             1904.38  1907.44  1916.27  1929.05  1974.57
                             1984.35  1985.84  2006.14  2014.35  2020.21
                             2036.96  2041.93  2047.70  2057.64  2101.62
                             2160.79  2175.25  2179.92  2180.93  2186.83
                             2192.60  2210.12  2217.83  2229.00  2256.81
                             2344.20  2409.89  2597.19  4331.00  4355.54
                             4358.31  4365.84  4373.07  4378.02  4387.84
                             4391.11  4400.35  4405.86  4423.73  4428.89
                             4444.11  4451.95  4452.23  4466.03  4468.75
                             4623.47  4625.38  4649.63  5331.60

 Zero-point correction=                           0.349954 (Hartree/Particle)
 Thermal correction to Energy=                    0.366760
 Thermal correction to Enthalpy=                  0.367704
 Thermal correction to Gibbs Free Energy=         0.304804
 Sum of electronic and zero-point Energies=           -827.305085
 Sum of electronic and thermal Energies=              -827.288279
 Sum of electronic and thermal Enthalpies=            -827.287335
 Sum of electronic and thermal Free Energies=         -827.350235

                     E (Thermal)             CV                S
                      KCal/Mol        Cal/Mol-Kelvin    Cal/Mol-Kelvin
 Total                  230.145             66.567            132.384
 Electronic               0.000              0.000              0.000
 Translational            0.889              2.981             42.557
 Rotational               0.889              2.981             33.700
 Vibrational            228.368             60.605             56.128
 Vibration     1          0.593              1.985              6.276
 Vibration     2          0.596              1.976              4.657
 Vibration     3          0.598              1.969              4.204
 Vibration     4          0.600              1.963              3.884
 Vibration     5          0.603              1.951              3.519
 Vibration     6          0.608              1.936              3.167
 Vibration     7          0.612              1.924              2.957
 Vibration     8          0.622              1.891              2.543
 Vibration     9          0.637              1.844              2.159
 Vibration    10          0.643              1.824              2.037
 Vibration    11          0.652              1.796              1.884
 Vibration    12          0.656              1.783              1.822
 Vibration    13          0.693              1.672              1.413
 Vibration    14          0.696              1.662              1.383
 Vibration    15          0.722              1.588              1.195
 Vibration    16          0.723              1.586              1.190
 Vibration    17          0.757              1.493              1.002
 Vibration    18          0.792              1.404              0.857
 Vibration    19          0.802              1.377              0.818
 Vibration    20          0.822              1.328              0.753
 Vibration    21          0.871              1.215              0.620
 Vibration    22          0.876              1.203              0.607
 Vibration    23          0.883              1.187              0.591
 Vibration    24          0.906              1.139              0.544
 Vibration    25          0.956              1.036              0.453
 Vibration    26          0.968              1.012              0.434

 Optimization completed.
    -- Stationary point found.
 Normal termination of Gaussian 16 at Sun Dec 13 13:03:11 2020.

 ----------------------------------------------------------------------
 # B3LYP/6-311++G(d,p) empiricaldispersion=gd3bj scf=xqc pop=npa geom=c
 heck
 ----------------------------------------------------------------------

 ---------------------------------------
 CID_113382425_JID_9386_Energie_neutraal
 ---------------------------------------
 Structure from the checkpoint file:  "JID_9386.chk"
 Charge =  0 Multiplicity = 1

 SCF Done:  E(RB3LYP) =  -827.882545404     A.U. after   15 cycles
 Normal termination of Gaussian 16 at Sun Dec 13 13:10:55 2020.

 ----------------------------------------------------------------------
 # B3LYP/6-311++G(d,p) empiricaldispersion=gd3bj scf=xqc pop=npa geom=c
 heck
 ----------------------------------------------------------------------

 -------------------------------------
 CID_113382425_JID_9386_Energie_kation
 -------------------------------------
 Structure from the checkpoint file:  "JID_9386.chk"
 Charge =  1 Multiplicity = 2

 SCF Done:  E(UB3LYP) =  -827.625925925     A.U. after   21 cycles
 Normal termination of Gaussian 16 at Sun Dec 13 13:25:09 2020.
 Gaussian 16:  ES64L-G16RevA.03 25-Dec-2016

 ----------------------------------------------------------------------
 # B3LYP/6-311++G(d,p) empiricaldispersion=gd3bj scf=xqc pop=npa geom=c
 heck
 ----------------------------------------------------------------------

 ------------------------------------
 CID_113382425_JID_9386_Energie_anion
 ------------------------------------
 Structure from the checkpoint file:  "JID_9386.chk"
 Charge = -1 Multiplicity = 2

                         Standard orientation:
 ---------------------------------------------------------------------
 Center     Atomic      Atomic             Coordinates (Angstroms)
 Number     Number       Type             X           Y           Z
 ---------------------------------------------------------------------
      1          6           0       -4.233646   -0.879865    1.480374
      2          6           0       -4.897738   -0.337880    0.203035
      3          6           0       -4.134124    0.789019   -0.511862
      4          6           0       -3.071834    0.280897   -1.502819
      5          6           0       -1.835579   -0.453461   -0.953788
      6          6           0       -2.144955   -1.563623    0.078564
      7          6           0       -2.706090   -1.073323    1.421718
      8          7           0       -0.806762    0.474976   -0.480923
      9          6           0       -1.042596    1.807974    0.097746
     10          6           0        0.375880    2.389681    0.338707
     11          6           0        1.285107    1.197532    0.138723
     12          6           0        0.517561    0.126313   -0.374490
     13          6           0        1.136941   -1.084490   -0.721249
     14          6           0        2.511969   -1.206142   -0.531549
     15          6           0        3.274590   -0.153668   -0.006806
     16          6           0        2.640776    1.065325    0.322541
     17          6           0        4.723553   -0.261397    0.213087
     18          8           0        5.438350    0.617757    0.663065
     19          8           0        5.237714   -1.475627   -0.140428
     20          1           0       -4.709259   -1.837871    1.727705
     21          1           0       -4.461714   -0.207418    2.317794
     22          1           0       -5.048010   -1.158848   -0.511177
     23          1           0       -5.903684    0.012058    0.465897
     24          1           0       -3.700629    1.473720    0.226392
     25          1           0       -4.847896    1.387605   -1.091729
     26          1           0       -2.720534    1.108540   -2.131243
     27          1           0       -3.574174   -0.418205   -2.183902
     28          1           0       -1.385942   -0.956115   -1.821832
     29          1           0       -1.208742   -2.099020    0.267919
     30          1           0       -2.825471   -2.292283   -0.383232
     31          1           0       -2.198945   -0.139888    1.687048
     32          1           0       -2.422898   -1.784557    2.206835
     33          1           0       -1.631827    2.429041   -0.582784
     34          1           0       -1.600835    1.734922    1.040261
     35          1           0        0.464206    2.833401    1.335195
     36          1           0        0.604637    3.179877   -0.386945
     37          1           0        0.569336   -1.914600   -1.125893
     38          1           0        3.005251   -2.136707   -0.788870
     39          1           0        3.246855    1.876786    0.713120
     40          1           0        6.190215   -1.409671    0.053216
 ---------------------------------------------------------------------

 SCF Done:  E(UB3LYP) =  -827.876285392     A.U. after   33 cycles
 SCF Done:  E(UB3LYP) =  -827.876285392     a.u. after    1 cycles

 The electronic state is 2-A.
 Alpha  occ. eigenvalues --  -19.05894 -18.98977 -14.23009 -10.17854 -10.11523
 Alpha  occ. eigenvalues --  -10.11405 -10.10532 -10.08896 -10.07370 -10.07246
 Alpha  occ. eigenvalues --  -10.07039 -10.07009 -10.06994 -10.06975 -10.06918
 Alpha  occ. eigenvalues --  -10.06874 -10.06751 -10.06606 -10.06350  -0.99432
 Alpha  occ. eigenvalues --   -0.90001  -0.86552  -0.75242  -0.72805  -0.69746
 Alpha  occ. eigenvalues --   -0.67021  -0.66132  -0.64390  -0.62515  -0.56584
 Alpha  occ. eigenvalues --   -0.56310  -0.55390  -0.51158  -0.50532  -0.48162
 Alpha  occ. eigenvalues --   -0.45773  -0.45234  -0.41162  -0.40173  -0.39716
 Alpha  occ. eigenvalues --   -0.38558  -0.38165  -0.36491  -0.36283  -0.34672
 Alpha  occ. eigenvalues --   -0.34110  -0.33969  -0.33328  -0.32205  -0.31207
 Alpha  occ. eigenvalues --   -0.30908  -0.29867  -0.29384  -0.28854  -0.28707
 Alpha  occ. eigenvalues --   -0.28294  -0.27398  -0.26483  -0.24993  -0.24359
 Alpha  occ. eigenvalues --   -0.23733  -0.23252  -0.22030  -0.21956  -0.21642
 Alpha  occ. eigenvalues --   -0.21453  -0.18787  -0.16997  -0.15118  -0.09334
 Alpha  occ. eigenvalues --    0.03958
 Alpha virt. eigenvalues --    0.05456   0.06687   0.06921   0.07160   0.07617
 Alpha virt. eigenvalues --    0.08420   0.08817   0.09201   0.09657   0.09895
 Alpha virt. eigenvalues --    0.09961   0.11266   0.11519   0.11845   0.12092

  Beta  occ. eigenvalues --  -19.05868 -18.98853 -14.22966 -10.17704 -10.11516
  Beta  occ. eigenvalues --  -10.11405 -10.10390 -10.08890 -10.07352 -10.07286
  Beta  occ. eigenvalues --  -10.07031 -10.06997 -10.06956 -10.06895 -10.06893
  Beta  occ. eigenvalues --  -10.06809 -10.06729 -10.06648 -10.06321  -0.99290
  Beta  occ. eigenvalues --   -0.89817  -0.86445  -0.75149  -0.72741  -0.69713
  Beta  occ. eigenvalues --   -0.66972  -0.66040  -0.64255  -0.62419  -0.56496
  Beta  occ. eigenvalues --   -0.56223  -0.55282  -0.51029  -0.50463  -0.48096
  Beta  occ. eigenvalues --   -0.45708  -0.45159  -0.41106  -0.40079  -0.39640
  Beta  occ. eigenvalues --   -0.38498  -0.38074  -0.36417  -0.36214  -0.34642
  Beta  occ. eigenvalues --   -0.34055  -0.33361  -0.33282  -0.32153  -0.31168
  Beta  occ. eigenvalues --   -0.30866  -0.29817  -0.29326  -0.28817  -0.28653
  Beta  occ. eigenvalues --   -0.28222  -0.27138  -0.26419  -0.24930  -0.24286
  Beta  occ. eigenvalues --   -0.23685  -0.23205  -0.21994  -0.21806  -0.21462
  Beta  occ. eigenvalues --   -0.21209  -0.18337  -0.16880  -0.14840  -0.08997
  Beta virt. eigenvalues --    0.06102   0.06923   0.07208   0.07337   0.07427
  Beta virt. eigenvalues --    0.07996   0.08586   0.08968   0.09556   0.09871
  Beta virt. eigenvalues --    0.10070   0.10247   0.11336   0.11642   0.11997

 Mulliken charges and spin densities:
               1          2
     1  C    0.508847  -1.135560
     2  C    0.341325  -0.709438
     3  C   -0.509198   0.539162
     4  C    0.476040  -1.116606
     5  C    0.057351   0.101749
     6  C    0.038948  -0.317792
     7  C   -0.329656   0.200570
     8  N    0.288000   0.044632
     9  C    0.173953  -0.051271
    10  C   -0.586810  -0.596945
    11  C    0.270251   0.015414
    12  C   -0.199836   0.239764
    13  C   -0.282467  -0.071145
    14  C   -0.461209  -0.066882
    15  C    0.453284  -0.154605
    16  C   -0.537134   0.064968
    17  C    0.336903   0.058619
    18  O   -0.386964   0.043774
    19  O   -0.217663   0.005776
    20  H    0.037747   0.095038
    21  H   -0.127572   0.273825
    22  H   -0.037020   0.175163
    23  H   -0.300114   0.473087
    24  H   -0.055597   0.178909
    25  H   -0.594328   0.793067
    26  H    0.053593   0.124094
    27  H   -0.379116   0.549241
    28  H    0.127021   0.088963
    29  H    0.071935   0.070598
    30  H   -0.251284   0.411040
    31  H    0.074429   0.048736
    32  H    0.033999   0.142887
    33  H   -0.148243   0.295792
    34  H    0.235285  -0.094133
    35  H    0.085527   0.083041
    36  H    0.156748   0.020643
    37  H   -0.030489   0.151393
    38  H    0.154829   0.024458
    39  H    0.184898  -0.001469
    40  H    0.273784   0.001441
 Sum of Mulliken charges =  -1.00000   1.00000

 Dipole moment (field-independent basis, Debye):
    X=              3.5358    Y=              0.0036    Z=              1.2234  Tot=              3.7415
 Quadrupole moment (field-independent basis, Debye-Ang):
   XX=           -234.7344   YY=           -144.4320   ZZ=           -144.7060
   XY=             -5.5669   XZ=            -11.2399   YZ=              2.8042

 Summary of Natural Population Analysis:

                                       Natural Population
                Natural  -----------------------------------------------
    Atom  No    Charge         Core      Valence    Rydberg      Total
 -----------------------------------------------------------------------
      C    1   -0.18690      0.99963     2.17887    0.00840     3.18690
      C    2   -0.19129      0.99963     2.18345    0.00821     3.19129
      C    3   -0.19594      0.99962     2.18704    0.00928     3.19594
      C    4   -0.19151      0.99960     2.18235    0.00956     3.19151
      C    5    0.00228      0.99957     1.98516    0.01300     2.99772
      C    6   -0.19721      0.99960     2.18919    0.00842     3.19721
      C    7   -0.19453      0.99962     2.18647    0.00844     3.19453
      N    8   -0.24320      0.99962     2.73271    0.01086     3.74320
      C    9   -0.07427      0.99963     2.06554    0.00910     3.07427
      C   10   -0.19554      0.99961     2.18915    0.00677     3.19554
      C   11   -0.04676      0.99949     2.03949    0.00778     3.04676
      C   12    0.13685      0.99946     1.85365    0.01004     2.86315
      C   13   -0.15470      0.99954     2.14590    0.00926     3.15470
      C   14   -0.04952      0.99956     2.04139    0.00857     3.04952
      C   15   -0.10679      0.99946     2.09702    0.01031     3.10679
      C   16   -0.06062      0.99949     2.05247    0.00866     3.06062
      C   17    0.41070      0.99964     1.56574    0.02392     2.58930
      O   18   -0.32035      0.99987     3.31349    0.00699     4.32035
      O   19   -0.35386      0.99988     3.34837    0.00560     4.35386
      H   20    0.09551      0.00000     0.40347    0.00102     0.40449
      H   21    0.09353      0.00000     0.40544    0.00103     0.40647
      H   22    0.09351      0.00000     0.40490    0.00159     0.40649
      H   23    0.10051      0.00000     0.39819    0.00130     0.39949
      H   24    0.09300      0.00000     0.40530    0.00170     0.40700
      H   25    0.10301      0.00000     0.39517    0.00182     0.39699
      H   26    0.10239      0.00000     0.39642    0.00119     0.39761
      H   27    0.10137      0.00000     0.39731    0.00132     0.39863
      H   28    0.09961      0.00000     0.39849    0.00190     0.40039
      H   29    0.10404      0.00000     0.39472    0.00124     0.39596
      H   30    0.09841      0.00000     0.40039    0.00120     0.40159
      H   31    0.09409      0.00000     0.40418    0.00173     0.40591
      H   32    0.09900      0.00000     0.40019    0.00081     0.40100
      H   33    0.09683      0.00000     0.40175    0.00142     0.40317
      H   34    0.08616      0.00000     0.41248    0.00137     0.41384
      H   35    0.10275      0.00000     0.39614    0.00111     0.39725
      H   36    0.10091      0.00000     0.39784    0.00125     0.39909
      H   37    0.10223      0.00000     0.39635    0.00142     0.39777
      H   38    0.10423      0.00000     0.39438    0.00139     0.39577
      H   39    0.10775      0.00000     0.39116    0.00110     0.39225
      H   40    0.23430      0.00000     0.26284    0.00286     0.26570
 =======================================================================
   * Total *    0.00000     18.99252    50.79455    0.21293    70.00000

 Normal termination of Gaussian 16 at Sun Dec 13 13:48:37 2020.
