 Gaussian 16, Revision A.03,

 -----------------------------------------------------------
 # opt freq B3LYP/6-31G(d) empiricaldispersion=gd3bj scf=xqc
 -----------------------------------------------------------

 -------------------------------
 CID_105825062_JID_6159_neutraal
 -------------------------------
 Symbolic Z-matrix:
 Charge =  0 Multiplicity = 1

 SCF Done:  E(RB3LYP) =  -1018.78649637     A.U. after   13 cycles
 SCF Done:  E(RB3LYP) =  -1018.79207711     A.U. after   11 cycles
 SCF Done:  E(RB3LYP) =  -1018.79197792     A.U. after   11 cycles
 SCF Done:  E(RB3LYP) =  -1018.79414612     A.U. after   11 cycles
 SCF Done:  E(RB3LYP) =  -1018.79492788     A.U. after   11 cycles
 SCF Done:  E(RB3LYP) =  -1018.79515759     A.U. after   11 cycles
 SCF Done:  E(RB3LYP) =  -1018.79553392     A.U. after   11 cycles
 SCF Done:  E(RB3LYP) =  -1018.79572695     A.U. after   10 cycles
 SCF Done:  E(RB3LYP) =  -1018.79585324     A.U. after   10 cycles
 SCF Done:  E(RB3LYP) =  -1018.79589429     A.U. after   10 cycles
 SCF Done:  E(RB3LYP) =  -1018.79805972     A.U. after   10 cycles
 SCF Done:  E(RB3LYP) =  -1018.79807036     A.U. after    8 cycles
 SCF Done:  E(RB3LYP) =  -1018.79808203     A.U. after    9 cycles
 SCF Done:  E(RB3LYP) =  -1018.79808258     A.U. after    7 cycles
 SCF Done:  E(RB3LYP) =  -1018.79808253     A.U. after    7 cycles
 SCF Done:  E(RB3LYP) =  -1018.79808268     A.U. after    6 cycles
 Optimization completed.
    -- Stationary point found.
 Normal termination of Gaussian 16 at Thu Dec 10 21:38:45 2020.

 --------------------------------------------------------------------
 #N Geom=AllCheck Guess=TCheck SCRF=Check GenChk RB3LYP/6-31G(d) Freq
 --------------------------------------------------------------------

 Structure from the checkpoint file:  "JID_6159.chk"
 -------------------------------
 CID_105825062_JID_6159_neutraal
 -------------------------------
 Charge =  0 Multiplicity = 1

 SCF Done:  E(RB3LYP) =  -1018.79808268     A.U. after    1 cycles

  Exact polarizability: 193.311   4.064 152.216  -1.096   0.406 142.840
 Approx polarizability: 242.652   8.216 230.224   0.526  -0.202 217.521

                      1                      2                      3
                      A                      A                      A
 Frequencies --     48.0489                60.8191                81.1190
 Red. masses --      3.6291                 3.4269                 2.9260
 Frc consts  --      0.0049                 0.0075                 0.0113
 IR Inten    --      0.0842                 0.0544                 0.4007

                      4                      5                      6
                      A                      A                      A
 Frequencies --     86.0155               111.3650               147.3874
 Red. masses --      3.0133                 2.8180                 3.4259
 Frc consts  --      0.0131                 0.0206                 0.0438
 IR Inten    --      0.0983                 1.3886                 0.6417

                      7                      8                      9
                      A                      A                      A
 Frequencies --    165.7200               183.0476               195.4523
 Red. masses --      2.3726                 1.3082                 1.9666
 Frc consts  --      0.0384                 0.0258                 0.0443
 IR Inten    --      1.1536                 0.7052                 1.3991

                     10                     11                     12
                      A                      A                      A
 Frequencies --    210.6306               218.6417               246.4683
 Red. masses --      2.9703                 1.3717                 1.2239
 Frc consts  --      0.0776                 0.0386                 0.0438
 IR Inten    --      0.2810                 0.0781                 1.0861

                     13                     14                     15
                      A                      A                      A
 Frequencies --    264.9180               276.2937               291.4998
 Red. masses --      2.4614                 2.5483                 2.1011
 Frc consts  --      0.1018                 0.1146                 0.1052
 IR Inten    --      2.8466                 0.6456                 3.8685

                     16                     17                     18
                      A                      A                      A
 Frequencies --    331.4238               332.8200               346.0116
 Red. masses --      2.7342                 1.8724                 2.6650
 Frc consts  --      0.1769                 0.1222                 0.1880
 IR Inten    --      2.7843                 0.4197                 0.1615

                     19                     20                     21
                      A                      A                      A
 Frequencies --    367.6242               391.7503               418.9595
 Red. masses --      2.0689                 4.1838                 1.9960
 Frc consts  --      0.1647                 0.3783                 0.2064
 IR Inten    --      3.7167                 1.1964                 0.7834

                     22                     23                     24
                      A                      A                      A
 Frequencies --    434.0472               473.0729               480.5375
 Red. masses --      1.8862                 3.2489                 2.3212
 Frc consts  --      0.2094                 0.4284                 0.3158
 IR Inten    --      1.5955                 0.0221                14.0185

                     25                     26                     27
                      A                      A                      A
 Frequencies --    505.7870               538.2782               573.8341
 Red. masses --      2.8977                 2.0707                 2.4990
 Frc consts  --      0.4368                 0.3535                 0.4848
 IR Inten    --      2.4269                 1.1793                 5.4889

                     28                     29                     30
                      A                      A                      A
 Frequencies --    618.1578               709.5729               722.9794
 Red. masses --      2.4911                 2.3467                 5.1027
 Frc consts  --      0.5608                 0.6961                 1.5714
 IR Inten    --     11.6340                 1.5374                 1.5745

                     31                     32                     33
                      A                      A                      A
 Frequencies --    755.8952               761.7897               812.7202
 Red. masses --      2.9466                 3.0155                 1.9734
 Frc consts  --      0.9920                 1.0311                 0.7680
 IR Inten    --      3.9855                 4.4210                88.7412

                     34                     35                     36
                      A                      A                      A
 Frequencies --    835.0292               845.7356               860.0978
 Red. masses --      2.2215                 2.0250                 2.0737
 Frc consts  --      0.9126                 0.8534                 0.9039
 IR Inten    --     20.0514                 4.8259                 0.9174

                     37                     38                     39
                      A                      A                      A
 Frequencies --    900.7779               916.5565               923.1244
 Red. masses --      1.8401                 2.0276                 2.2637
 Frc consts  --      0.8797                 1.0036                 1.1365
 IR Inten    --     17.9915                 7.4002                 2.1834

                     40                     41                     42
                      A                      A                      A
 Frequencies --    933.1968               944.3715               958.8383
 Red. masses --      1.9845                 1.9142                 1.5628
 Frc consts  --      1.0182                 1.0058                 0.8465
 IR Inten    --      1.7641                 5.5784                 5.3930

                     43                     44                     45
                      A                      A                      A
 Frequencies --    963.8773               978.7955               983.3746
 Red. masses --      1.4361                 1.8179                 1.4561
 Frc consts  --      0.7861                 1.0261                 0.8296
 IR Inten    --      0.8317                11.2065                12.2341

                     46                     47                     48
                      A                      A                      A
 Frequencies --    991.6847               998.6542              1024.4006
 Red. masses --      1.1984                 1.8585                 1.4762
 Frc consts  --      0.6944                 1.0921                 0.9127
 IR Inten    --      2.8355                 0.9588                 2.1093

                     49                     50                     51
                      A                      A                      A
 Frequencies --   1037.8619              1055.9331              1071.4485
 Red. masses --      2.0340                 1.6765                 1.5874
 Frc consts  --      1.2908                 1.1013                 1.0737
 IR Inten    --      4.1396                 5.8694                 3.2377

                     52                     53                     54
                      A                      A                      A
 Frequencies --   1095.3669              1097.6816              1115.8808
 Red. masses --      1.9853                 2.0105                 2.8539
 Frc consts  --      1.4034                 1.4273                 2.0938
 IR Inten    --     11.3463                12.4038                 4.6280

                     55                     56                     57
                      A                      A                      A
 Frequencies --   1128.2121              1177.2031              1195.7811
 Red. masses --      2.7321                 1.9642                 1.4944
 Frc consts  --      2.0490                 1.6038                 1.2590
 IR Inten    --     35.7569                55.2964                 2.2656

                     58                     59                     60
                      A                      A                      A
 Frequencies --   1214.3426              1225.4946              1231.0569
 Red. masses --      1.8667                 2.0879                 1.9804
 Frc consts  --      1.6218                 1.8475                 1.7683
 IR Inten    --     10.3488                 8.8486                 3.6721

                     61                     62                     63
                      A                      A                      A
 Frequencies --   1251.7451              1256.7269              1268.0233
 Red. masses --      1.6478                 2.2771                 1.3436
 Frc consts  --      1.5212                 2.1189                 1.2728
 IR Inten    --     11.1493                35.5990                 1.7340

                     64                     65                     66
                      A                      A                      A
 Frequencies --   1279.9479              1286.2077              1330.6241
 Red. masses --      1.5273                 1.7390                 1.4864
 Frc consts  --      1.4743                 1.6950                 1.5506
 IR Inten    --      3.7394                36.5285                 9.7609

                     67                     68                     69
                      A                      A                      A
 Frequencies --   1334.7033              1356.1166              1360.8339
 Red. masses --      1.3659                 1.3055                 1.3332
 Frc consts  --      1.4336                 1.4146                 1.4547
 IR Inten    --      2.0641                 2.3471                 2.3524

                     70                     71                     72
                      A                      A                      A
 Frequencies --   1366.6122              1376.6264              1389.5133
 Red. masses --      1.4371                 1.5069                 1.1671
 Frc consts  --      1.5814                 1.6826                 1.3277
 IR Inten    --      0.3419                 1.8070                 2.3309

                     73                     74                     75
                      A                      A                      A
 Frequencies --   1391.0506              1401.4354              1411.2643
 Red. masses --      1.3118                 1.2999                 1.3807
 Frc consts  --      1.4956                 1.5042                 1.6202
 IR Inten    --      8.0205                12.7358                23.6155

                     76                     77                     78
                      A                      A                      A
 Frequencies --   1421.4485              1422.4942              1436.1063
 Red. masses --      1.3198                 1.3585                 1.2895
 Frc consts  --      1.5712                 1.6196                 1.5669
 IR Inten    --     12.6194                 8.4769                 9.5516

                     79                     80                     81
                      A                      A                      A
 Frequencies --   1446.8053              1492.2640              1495.6682
 Red. masses --      1.3119                 1.0842                 1.0615
 Frc consts  --      1.6180                 1.4225                 1.3991
 IR Inten    --      7.1722                 5.0267                 2.3189

                     82                     83                     84
                      A                      A                      A
 Frequencies --   1499.1143              1508.2076              1511.8372
 Red. masses --      1.1205                 1.1038                 1.0783
 Frc consts  --      1.4836                 1.4793                 1.4521
 IR Inten    --      6.4670                 3.4879                 1.9415

                     85                     86                     87
                      A                      A                      A
 Frequencies --   1512.4481              1518.4206              1520.0195
 Red. masses --      1.0595                 1.0714                 1.0868
 Frc consts  --      1.4279                 1.4554                 1.4794
 IR Inten    --     12.9392                 3.0632                 3.0194

                     88                     89                     90
                      A                      A                      A
 Frequencies --   1523.0562              1526.8848              1531.3559
 Red. masses --      1.0825                 1.0664                 1.0967
 Frc consts  --      1.4794                 1.4648                 1.5153
 IR Inten    --      3.3016                 2.8415                 2.8405

                     91                     92                     93
                      A                      A                      A
 Frequencies --   1531.8666              1536.3919              1548.0250
 Red. masses --      1.1052                 1.0895                 1.1025
 Frc consts  --      1.5280                 1.5152                 1.5567
 IR Inten    --      3.5375                16.6843                 6.8317

                     94                     95                     96
                      A                      A                      A
 Frequencies --   1551.2864              2904.8151              2926.9643
 Red. masses --      1.0712                 1.0723                 1.0714
 Frc consts  --      1.5188                 5.3310                 5.4079
 IR Inten    --      4.3122                59.1630                92.8541

                     97                     98                     99
                      A                      A                      A
 Frequencies --   3029.7119              3041.3148              3047.5018
 Red. masses --      1.0589                 1.0387                 1.0658
 Frc consts  --      5.7267                 5.6607                 5.8320
 IR Inten    --     25.5555                26.6411                21.0441

                    100                    101                    102
                      A                      A                      A
 Frequencies --   3056.3117              3058.6209              3058.7216
 Red. masses --      1.0549                 1.0338                 1.0583
 Frc consts  --      5.8056                 5.6982                 5.8338
 IR Inten    --     36.8921                35.1757                30.9213

                    103                    104                    105
                      A                      A                      A
 Frequencies --   3059.9717              3073.1587              3075.8415
 Red. masses --      1.0457                 1.0971                 1.0720
 Frc consts  --      5.7689                 6.1049                 5.9756
 IR Inten    --     23.9212                 3.3996                 9.9052

                    106                    107                    108
                      A                      A                      A
 Frequencies --   3077.8144              3078.5011              3094.8439
 Red. masses --      1.0876                 1.0934                 1.0845
 Frc consts  --      6.0704                 6.1053                 6.1200
 IR Inten    --     41.0156                37.1950                30.6875

                    109                    110                    111
                      A                      A                      A
 Frequencies --   3102.1725              3102.6689              3106.4107
 Red. masses --      1.0756                 1.1053                 1.0979
 Frc consts  --      6.0985                 6.2690                 6.2424
 IR Inten    --     28.4379                23.1222                48.6579

                    112                    113                    114
                      A                      A                      A
 Frequencies --   3107.2861              3125.3151              3132.9127
 Red. masses --      1.1015                 1.1005                 1.1020
 Frc consts  --      6.2660                 6.3330                 6.3728
 IR Inten    --     53.9682                13.5227                32.2658

                    115                    116                    117
                      A                      A                      A
 Frequencies --   3135.0967              3138.6235              3141.1625
 Red. masses --      1.1065                 1.1004                 1.0955
 Frc consts  --      6.4075                 6.3867                 6.3685
 IR Inten    --     16.1554                24.9087                31.3398

                    118                    119                    120
                      A                      A                      A
 Frequencies --   3145.9785              3151.0927              3446.9013
 Red. masses --      1.1022                 1.1031                 1.0732
 Frc consts  --      6.4273                 6.4536                 7.5128
 IR Inten    --     23.4932                 7.4308                 4.7411

 - Thermochemistry -
 -------------------
 Temperature   298.150 Kelvin.  Pressure   1.00000 Atm.
 Atom     1 has atomic number  6 and mass  12.00000

 Molecular mass:   242.18167 amu.
 Principal axes and moments of inertia in atomic units:
                           1         2         3
     Eigenvalues --  1988.095007003.233167343.30895
           X            0.99986  -0.01685  -0.00196
           Y            0.01689   0.99961   0.02226
           Z            0.00159  -0.02229   0.99975
 This molecule is an asymmetric top.
 Rotational symmetry number  1.
 Warning -- assumption of classical behavior for rotation
           may cause significant error
 Rotational temperatures (Kelvin)      0.04357     0.01237     0.01179
 Rotational constants (GHZ):           0.90777     0.25770     0.24577
 Zero-point vibrational energy    1010140.6 (Joules/Mol)
                                  241.42939 (Kcal/Mol)
 Warning -- explicit consideration of  28 degrees of freedom as
           vibrations may cause significant error
 Vibrational temperatures:     69.13    87.51   116.71   123.76   160.23
          (Kelvin)            212.06   238.43   263.36   281.21   303.05
                              314.58   354.61   381.16   397.53   419.40
                              476.84   478.85   497.83   528.93   563.64
                              602.79   624.50   680.65   691.39   727.71
                              774.46   825.62   889.39  1020.92  1040.21
                             1087.56  1096.05  1169.32  1201.42  1216.82
                             1237.49  1296.02  1318.72  1328.17  1342.66
                             1358.74  1379.55  1386.80  1408.27  1414.86
                             1426.81  1436.84  1473.88  1493.25  1519.25
                             1541.58  1575.99  1579.32  1605.50  1623.25
                             1693.73  1720.46  1747.17  1763.21  1771.22
                             1800.98  1808.15  1824.40  1841.56  1850.57
                             1914.47  1920.34  1951.15  1957.94  1966.25
                             1980.66  1999.20  2001.41  2016.35  2030.49
                             2045.15  2046.65  2066.24  2081.63  2147.03
                             2151.93  2156.89  2169.97  2175.20  2176.08
                             2184.67  2186.97  2191.34  2196.85  2203.28
                             2204.01  2210.53  2227.26  2231.96  4179.38
                             4211.25  4359.08  4375.77  4384.68  4397.35
                             4400.67  4400.82  4402.62  4421.59  4425.45
                             4428.29  4429.28  4452.79  4463.33  4464.05
                             4469.43  4470.69  4496.63  4507.56  4510.70
                             4515.78  4519.43  4526.36  4533.72  4959.32

 Zero-point correction=                           0.384742 (Hartree/Particle)
 Thermal correction to Energy=                    0.402088
 Thermal correction to Enthalpy=                  0.403032
 Thermal correction to Gibbs Free Energy=         0.340770
 Sum of electronic and zero-point Energies=          -1018.413340
 Sum of electronic and thermal Energies=             -1018.395995
 Sum of electronic and thermal Enthalpies=           -1018.395051
 Sum of electronic and thermal Free Energies=        -1018.457312

                     E (Thermal)             CV                S
                      KCal/Mol        Cal/Mol-Kelvin    Cal/Mol-Kelvin
 Total                  252.314             68.538            131.041
 Electronic               0.000              0.000              0.000
 Translational            0.889              2.981             42.355
 Rotational               0.889              2.981             32.991
 Vibrational            250.536             62.577             55.695
 Vibration     1          0.595              1.978              4.896
 Vibration     2          0.597              1.973              4.430
 Vibration     3          0.600              1.962              3.864
 Vibration     4          0.601              1.959              3.749
 Vibration     5          0.607              1.940              3.245
 Vibration     6          0.617              1.906              2.706
 Vibration     7          0.624              1.885              2.483
 Vibration     8          0.631              1.863              2.297
 Vibration     9          0.636              1.846              2.175
 Vibration    10          0.643              1.825              2.038
 Vibration    11          0.646              1.813              1.970
 Vibration    12          0.661              1.769              1.756
 Vibration    13          0.671              1.737              1.629
 Vibration    14          0.678              1.717              1.557
 Vibration    15          0.687              1.690              1.465
 Vibration    16          0.714              1.613              1.253
 Vibration    17          0.715              1.610              1.246
 Vibration    18          0.724              1.583              1.184
 Vibration    19          0.740              1.539              1.090
 Vibration    20          0.759              1.488              0.993
 Vibration    21          0.782              1.429              0.896
 Vibration    22          0.795              1.396              0.846
 Vibration    23          0.830              1.310              0.729
 Vibration    24          0.837              1.293              0.709
 Vibration    25          0.861              1.237              0.644
 Vibration    26          0.893              1.165              0.569
 Vibration    27          0.930              1.088              0.497
 Vibration    28          0.978              0.994              0.419

 Optimization completed.
    -- Stationary point found.
 Normal termination of Gaussian 16 at Thu Dec 10 21:55:59 2020.

 ----------------------------------------------------------------------
 # B3LYP/6-311++G(d,p) empiricaldispersion=gd3bj scf=xqc pop=npa geom=c
 heck
 ----------------------------------------------------------------------

 ---------------------------------------
 CID_105825062_JID_6159_Energie_neutraal
 ---------------------------------------
 Structure from the checkpoint file:  "JID_6159.chk"
 Charge =  0 Multiplicity = 1

 SCF Done:  E(RB3LYP) =  -1018.99628161     A.U. after   15 cycles
 Normal termination of Gaussian 16 at Thu Dec 10 22:06:27 2020.

 ----------------------------------------------------------------------
 # B3LYP/6-311++G(d,p) empiricaldispersion=gd3bj scf=xqc pop=npa geom=c
 heck
 ----------------------------------------------------------------------

 -------------------------------------
 CID_105825062_JID_6159_Energie_kation
 -------------------------------------
 Structure from the checkpoint file:  "JID_6159.chk"
 Charge =  1 Multiplicity = 2

 SCF Done:  E(UB3LYP) =  -1018.73380256     A.U. after   24 cycles
 Normal termination of Gaussian 16 at Thu Dec 10 22:31:38 2020.
 Gaussian 16:  ES64L-G16RevA.03 25-Dec-2016

 ----------------------------------------------------------------------
 # B3LYP/6-311++G(d,p) empiricaldispersion=gd3bj scf=xqc pop=npa geom=c
 heck
 ----------------------------------------------------------------------

 ------------------------------------
 CID_105825062_JID_6159_Energie_anion
 ------------------------------------
 Structure from the checkpoint file:  "JID_6159.chk"
 Charge = -1 Multiplicity = 2

                         Standard orientation:
 ---------------------------------------------------------------------
 Center     Atomic      Atomic             Coordinates (Angstroms)
 Number     Number       Type             X           Y           Z
 ---------------------------------------------------------------------
      1          6           0        3.535405   -1.683438    0.152071
      2          6           0        3.098138   -0.353703   -0.476720
      3          6           0        1.566104   -0.345509   -0.696515
      4          7           0        0.857488   -0.326668    0.570677
      5          6           0        1.199262    0.810532    1.404971
      6          6           0        2.714851    0.836567    1.641833
      7          7           0        3.502504    0.762604    0.408522
      8          6           0       -0.454442   -0.934999    0.665496
      9          6           0       -1.716145   -0.213425    0.094848
     10          6           0       -2.097441    1.068987    0.900724
     11          6           0       -2.282717    2.191106   -0.137067
     12          6           0       -1.341219    1.786287   -1.281509
     13          6           0       -1.554183    0.269077   -1.373021
     14         16           0       -3.012949   -1.548793    0.234170
     15          6           0       -4.535330   -0.659985   -0.225753
     16          6           0        3.808605   -0.153358   -1.816871
     17          1           0        4.591816   -1.636060    0.433029
     18          1           0        3.398241   -2.502651   -0.562716
     19          1           0        2.941838   -1.915462    1.040072
     20          1           0        1.322010    0.530196   -1.329058
     21          1           0        1.264576   -1.241087   -1.251636
     22          1           0        0.674813    0.718847    2.363158
     23          1           0        0.894790    1.777053    0.953775
     24          1           0        2.990849   -0.009183    2.280613
     25          1           0        2.996206    1.753114    2.173656
     26          1           0        3.365805    1.632882   -0.108313
     27          1           0       -0.380943   -1.912190    0.170860
     28          1           0       -0.650433   -1.132980    1.727193
     29          1           0       -2.980889    0.917701    1.526033
     30          1           0       -1.282991    1.325526    1.581570
     31          1           0       -2.069994    3.185010    0.270419
     32          1           0       -3.317355    2.203076   -0.503289
     33          1           0       -0.303479    2.014334   -1.009838
     34          1           0       -1.556041    2.303478   -2.222871
     35          1           0       -0.758041   -0.263560   -1.896440
     36          1           0       -2.475602    0.078094   -1.932705
     37          1           0       -4.758405    0.153633    0.470122
     38          1           0       -4.486572   -0.265190   -1.244944
     39          1           0       -5.345380   -1.392267   -0.176022
     40          1           0        4.893099   -0.138745   -1.670575
     41          1           0        3.560563   -0.959473   -2.516024
     42          1           0        3.513433    0.796216   -2.282105
 ---------------------------------------------------------------------

 SCF Done:  E(UB3LYP) =  -1018.98385888     A.U. after   27 cycles

 The electronic state is 2-A.
 Alpha  occ. eigenvalues --  -88.73827 -14.21147 -14.20312 -10.11382 -10.11234
 Alpha  occ. eigenvalues --  -10.10678 -10.09911 -10.09868 -10.09736 -10.09618
 Alpha  occ. eigenvalues --  -10.06985 -10.06911 -10.06911 -10.06734 -10.06639
 Alpha  occ. eigenvalues --  -10.06458  -7.82457  -5.78862  -5.78485  -5.77815
 Alpha  occ. eigenvalues --   -0.85125  -0.80280  -0.75192  -0.70044  -0.68521
 Alpha  occ. eigenvalues --   -0.64832  -0.62298  -0.61524  -0.60045  -0.58878
 Alpha  occ. eigenvalues --   -0.54619  -0.53306  -0.50270  -0.47856  -0.45923
 Alpha  occ. eigenvalues --   -0.44161  -0.40216  -0.39810  -0.38390  -0.37440
 Alpha  occ. eigenvalues --   -0.37020  -0.36142  -0.35494  -0.34319  -0.33835
 Alpha  occ. eigenvalues --   -0.33516  -0.32275  -0.30799  -0.30299  -0.29858
 Alpha  occ. eigenvalues --   -0.29246  -0.28686  -0.28124  -0.27526  -0.26516
 Alpha  occ. eigenvalues --   -0.25154  -0.24716  -0.24520  -0.24420  -0.24160
 Alpha  occ. eigenvalues --   -0.23572  -0.23193  -0.22551  -0.20213  -0.14651
 Alpha  occ. eigenvalues --   -0.12705  -0.10706   0.04111
 Alpha virt. eigenvalues --    0.05842   0.06640   0.07050   0.07895   0.08370
 Alpha virt. eigenvalues --    0.08437   0.09057   0.09267   0.09955   0.10410
 Alpha virt. eigenvalues --    0.10644   0.10974   0.11356   0.11982   0.12293

  Beta  occ. eigenvalues --  -88.73822 -14.21143 -14.20297 -10.11382 -10.11236
  Beta  occ. eigenvalues --  -10.10676 -10.09892 -10.09854 -10.09693 -10.09604
  Beta  occ. eigenvalues --  -10.06971 -10.06896 -10.06888 -10.06712 -10.06618
  Beta  occ. eigenvalues --  -10.06444  -7.82452  -5.78858  -5.78471  -5.77812
  Beta  occ. eigenvalues --   -0.85108  -0.80258  -0.75171  -0.70024  -0.68486
  Beta  occ. eigenvalues --   -0.64800  -0.62264  -0.61488  -0.60009  -0.58844
  Beta  occ. eigenvalues --   -0.54580  -0.53252  -0.50231  -0.47791  -0.45880
  Beta  occ. eigenvalues --   -0.44133  -0.40180  -0.39791  -0.38372  -0.37416
  Beta  occ. eigenvalues --   -0.36981  -0.36107  -0.35466  -0.34285  -0.33806
  Beta  occ. eigenvalues --   -0.33486  -0.32246  -0.30775  -0.30267  -0.29827
  Beta  occ. eigenvalues --   -0.29223  -0.28663  -0.28101  -0.27502  -0.26482
  Beta  occ. eigenvalues --   -0.25128  -0.24690  -0.24497  -0.24387  -0.24127
  Beta  occ. eigenvalues --   -0.23549  -0.23165  -0.22523  -0.20177  -0.14629
  Beta  occ. eigenvalues --   -0.12685  -0.10678
  Beta virt. eigenvalues --    0.06091   0.06572   0.07271   0.07541   0.08287
  Beta virt. eigenvalues --    0.08601   0.08861   0.09313   0.09639   0.10379
  Beta virt. eigenvalues --    0.10499   0.10850   0.11207   0.11610   0.12168

 Mulliken charges and spin densities:
               1          2
     1  C    0.094324  -0.509958
     2  C   -0.153220   0.094564
     3  C   -1.269477   0.445128
     4  N    0.150696   0.071095
     5  C    0.513695  -0.462256
     6  C   -0.105356  -0.550252
     7  N    0.018554   0.097499
     8  C   -1.346056   0.346911
     9  C    1.523119  -0.054677
    10  C   -0.896021   0.437772
    11  C    0.967894  -1.582215
    12  C   -0.409363   0.209836
    13  C   -0.078790  -0.375941
    14  S   -0.052568  -0.115556
    15  C    0.293376  -0.888222
    16  C    0.670215  -1.229216
    17  H    0.060643   0.107899
    18  H    0.027211   0.098492
    19  H    0.121881   0.009209
    20  H    0.237276  -0.116748
    21  H    0.212785  -0.060435
    22  H   -0.167637   0.307770
    23  H    0.196841  -0.059828
    24  H    0.174056  -0.018145
    25  H   -0.430346   0.620822
    26  H    0.022924   0.223349
    27  H    0.045392   0.123204
    28  H    0.128836   0.048265
    29  H   -0.072407   0.275043
    30  H    0.126697  -0.011821
    31  H   -0.484149   0.675348
    32  H    0.296648  -0.180477
    33  H    0.084822   0.025513
    34  H   -0.644202   0.840342
    35  H   -0.163857   0.301824
    36  H    0.197285   0.017655
    37  H   -0.236818   0.408416
    38  H   -0.305961   0.465198
    39  H   -0.064269   0.237540
    40  H    0.049911   0.116866
    41  H   -0.049878   0.182560
    42  H   -0.284706   0.427627
 Sum of Mulliken charges =  -1.00000   1.00000

 Dipole moment (field-independent basis, Debye):
    X=              1.7392    Y=             -4.0766    Z=              1.4719  Tot=              4.6701
 Quadrupole moment (field-independent basis, Debye-Ang):
   XX=           -198.5432   YY=           -158.9376   ZZ=           -152.5835
   XY=             -3.0015   XZ=             -2.0368   YZ=              0.6692

 Summary of Natural Population Analysis:

                                       Natural Population
                Natural  -----------------------------------------------
    Atom  No    Charge         Core      Valence    Rydberg      Total
 -----------------------------------------------------------------------
      C    1   -0.29077      0.99961     2.28509    0.00607     3.29077
      C    2    0.05339      0.99958     1.93338    0.01365     2.94661
      C    3   -0.08952      0.99955     2.07813    0.01184     3.08952
      N    4   -0.28909      0.99970     2.77718    0.01221     3.78909
      C    5   -0.09042      0.99960     2.08013    0.01068     3.09042
      C    6   -0.09043      0.99962     2.07882    0.01199     3.09043
      N    7   -0.34313      0.99973     2.83071    0.01270     3.84313
      C    8   -0.07699      0.99954     2.06563    0.01182     3.07699
      C    9   -0.09176      0.99955     2.07544    0.01678     3.09176
      C   10   -0.20049      0.99958     2.19071    0.01021     3.20049
      C   11   -0.18980      0.99963     2.18181    0.00836     3.18980
      C   12   -0.19193      0.99963     2.18361    0.00869     3.19193
      C   13   -0.19949      0.99957     2.18906    0.01086     3.19949
      S   14    0.08863      4.99956     2.89478    0.01703     7.91137
      C   15   -0.35378      0.99962     2.34785    0.00631     3.35378
      C   16   -0.28727      0.99962     2.28025    0.00741     3.28727
      H   17    0.10249      0.00000     0.39660    0.00091     0.39751
      H   18    0.09798      0.00000     0.40133    0.00069     0.40202
      H   19    0.10440      0.00000     0.39436    0.00124     0.39560
      H   20    0.08534      0.00000     0.41223    0.00243     0.41466
      H   21    0.09902      0.00000     0.39968    0.00130     0.40098
      H   22    0.09844      0.00000     0.40018    0.00139     0.40156
      H   23    0.08055      0.00000     0.41680    0.00265     0.41945
      H   24    0.08976      0.00000     0.40892    0.00132     0.41024
      H   25    0.09623      0.00000     0.40281    0.00096     0.40377
      H   26    0.17244      0.00000     0.32457    0.00299     0.32756
      H   27    0.09778      0.00000     0.40102    0.00120     0.40222
      H   28    0.09828      0.00000     0.40046    0.00125     0.40172
      H   29    0.10402      0.00000     0.39482    0.00115     0.39598
      H   30    0.10259      0.00000     0.39543    0.00198     0.39741
      H   31    0.10102      0.00000     0.39787    0.00111     0.39898
      H   32    0.09441      0.00000     0.40378    0.00181     0.40559
      H   33    0.09456      0.00000     0.40285    0.00259     0.40544
      H   34    0.10094      0.00000     0.39785    0.00122     0.39906
      H   35    0.10435      0.00000     0.39424    0.00141     0.39565
      H   36    0.10153      0.00000     0.39700    0.00147     0.39847
      H   37    0.10170      0.00000     0.39662    0.00169     0.39830
      H   38    0.10161      0.00000     0.39660    0.00179     0.39839
      H   39    0.10817      0.00000     0.39087    0.00096     0.39183
      H   40    0.10416      0.00000     0.39486    0.00098     0.39584
      H   41    0.10014      0.00000     0.39905    0.00081     0.39986
      H   42    0.10096      0.00000     0.39798    0.00106     0.39904
 =======================================================================
   * Total *    0.00000     19.99367    46.79135    0.21498    67.00000

 Normal termination of Gaussian 16 at Thu Dec 10 22:58:31 2020.
