 Gaussian 16, Revision A.03,

 -----------------------------------------------------------
 # opt freq B3LYP/6-31G(d) empiricaldispersion=gd3bj scf=xqc
 -----------------------------------------------------------

 ------------------------------
 CID_78921561_JID_5415_neutraal
 ------------------------------
 Symbolic Z-matrix:
 Charge =  0 Multiplicity = 1

 SCF Done:  E(RB3LYP) =  -1027.76970500     A.U. after   15 cycles
 SCF Done:  E(RB3LYP) =  -1027.77215810     A.U. after   13 cycles
 SCF Done:  E(RB3LYP) =  -1027.77019780     A.U. after   13 cycles
 SCF Done:  E(RB3LYP) =  -1027.77351052     A.U. after   13 cycles
 SCF Done:  E(RB3LYP) =  -1027.77513846     A.U. after   13 cycles
 SCF Done:  E(RB3LYP) =  -1027.77577290     A.U. after   12 cycles
 SCF Done:  E(RB3LYP) =  -1027.77627428     A.U. after   13 cycles
 SCF Done:  E(RB3LYP) =  -1027.77660682     A.U. after   12 cycles
 SCF Done:  E(RB3LYP) =  -1027.77722566     A.U. after   13 cycles
 SCF Done:  E(RB3LYP) =  -1027.77507248     A.U. after   16 cycles
 SCF Done:  E(RB3LYP) =  -1027.78541092     A.U. after   10 cycles
 SCF Done:  E(RB3LYP) =  -1027.78541109     A.U. after    7 cycles
 SCF Done:  E(RB3LYP) =  -1027.78541136     A.U. after    7 cycles
 SCF Done:  E(RB3LYP) =  -1027.78541154     A.U. after    7 cycles
 SCF Done:  E(RB3LYP) =  -1027.78541163     A.U. after    7 cycles
 Optimization completed.
    -- Stationary point found.
 Normal termination of Gaussian 16 at Thu Dec 10 16:26:47 2020.

 --------------------------------------------------------------------
 #N Geom=AllCheck Guess=TCheck SCRF=Check GenChk RB3LYP/6-31G(d) Freq
 --------------------------------------------------------------------

 Structure from the checkpoint file:  "JID_5415.chk"
 ------------------------------
 CID_78921561_JID_5415_neutraal
 ------------------------------
 Charge =  0 Multiplicity = 1

 SCF Done:  E(RB3LYP) =  -1027.78541163     A.U. after    1 cycles

  Exact polarizability: 137.369  15.326 136.813 -12.493  10.936 118.439
 Approx polarizability: 201.384  28.806 201.523 -32.713  24.020 221.857

                      1                      2                      3
                      A                      A                      A
 Frequencies --     34.4888                46.3507                69.1039
 Red. masses --      5.6055                 4.6575                 6.5243
 Frc consts  --      0.0039                 0.0059                 0.0184
 IR Inten    --      0.6767                 0.1018                 1.0195

                      4                      5                      6
                      A                      A                      A
 Frequencies --     81.6901               119.9732               136.5148
 Red. masses --      4.6356                 3.8609                 4.6353
 Frc consts  --      0.0182                 0.0327                 0.0509
 IR Inten    --      1.9444                 0.4858                 2.3073

                      7                      8                      9
                      A                      A                      A
 Frequencies --    144.6108               168.7718               177.5851
 Red. masses --      4.0520                 2.9890                 3.9815
 Frc consts  --      0.0499                 0.0502                 0.0740
 IR Inten    --      1.0293                 0.9922                 1.4097

                     10                     11                     12
                      A                      A                      A
 Frequencies --    226.6815               268.4629               313.1213
 Red. masses --      5.0363                 2.6445                 2.6112
 Frc consts  --      0.1525                 0.1123                 0.1508
 IR Inten    --      1.7539                 2.5786                 2.8238

                     13                     14                     15
                      A                      A                      A
 Frequencies --    344.2650               372.2429               379.6993
 Red. masses --      2.3228                 3.4873                 4.4008
 Frc consts  --      0.1622                 0.2847                 0.3738
 IR Inten    --     20.8658                 3.1717                 6.9718

                     16                     17                     18
                      A                      A                      A
 Frequencies --    478.9682               497.1247               526.4993
 Red. masses --      2.1483                 4.2615                 1.8928
 Frc consts  --      0.2904                 0.6205                 0.3091
 IR Inten    --      6.9690                 4.0776                12.9261

                     19                     20                     21
                      A                      A                      A
 Frequencies --    571.8833               578.0398               615.6511
 Red. masses --      2.6473                 6.4134                 4.2372
 Frc consts  --      0.5101                 1.2626                 0.9462
 IR Inten    --     14.4531                 4.4329                19.0834

                     22                     23                     24
                      A                      A                      A
 Frequencies --    627.3186               660.4208               717.6778
 Red. masses --      2.7898                 1.6844                 1.9850
 Frc consts  --      0.6469                 0.4329                 0.6024
 IR Inten    --     10.7755                95.8887                65.8986

                     25                     26                     27
                      A                      A                      A
 Frequencies --    729.8774               754.4594               760.4169
 Red. masses --      1.3489                 3.6245                 3.4894
 Frc consts  --      0.4234                 1.2155                 1.1888
 IR Inten    --     27.3942                24.4300                 6.4924

                     28                     29                     30
                      A                      A                      A
 Frequencies --    791.1157               801.5356               853.7432
 Red. masses --      3.4814                 1.2718                 1.4628
 Frc consts  --      1.2837                 0.4814                 0.6282
 IR Inten    --     79.4994                11.6307                 6.6868

                     31                     32                     33
                      A                      A                      A
 Frequencies --    864.4934               877.9359               887.3484
 Red. masses --      2.0789                 2.0880                 3.9266
 Frc consts  --      0.9154                 0.9482                 1.8216
 IR Inten    --      3.1815                14.7797                 2.0009

                     34                     35                     36
                      A                      A                      A
 Frequencies --    888.5290               955.4644               960.3521
 Red. masses --      1.4851                 1.9663                 2.8383
 Frc consts  --      0.6908                 1.0576                 1.5423
 IR Inten    --      0.6504                12.0792                 8.2988

                     37                     38                     39
                      A                      A                      A
 Frequencies --    995.7496              1032.5990              1060.3850
 Red. masses --      2.4813                 2.9193                 2.0307
 Frc consts  --      1.4495                 1.8340                 1.3453
 IR Inten    --      4.1285                15.1674                 4.6871

                     40                     41                     42
                      A                      A                      A
 Frequencies --   1076.2040              1077.9622              1093.0787
 Red. masses --      1.4717                 2.4160                 1.4324
 Frc consts  --      1.0043                 1.6541                 1.0083
 IR Inten    --      6.3637                25.6304                 0.4029

                     43                     44                     45
                      A                      A                      A
 Frequencies --   1103.0060              1135.4090              1143.4917
 Red. masses --      1.3387                 2.1119                 1.1516
 Frc consts  --      0.9596                 1.6041                 0.8872
 IR Inten    --      3.7154                51.9741                 3.5568

                     46                     47                     48
                      A                      A                      A
 Frequencies --   1174.9295              1211.1719              1213.8888
 Red. masses --      3.0372                 2.1222                 2.0082
 Frc consts  --      2.4703                 1.8342                 1.7434
 IR Inten    --     43.2618                 9.9822                11.9132

                     49                     50                     51
                      A                      A                      A
 Frequencies --   1216.2305              1238.0799              1256.0778
 Red. masses --      1.4127                 1.2938                 1.8058
 Frc consts  --      1.2312                 1.1684                 1.6787
 IR Inten    --      7.8105                41.7541                21.8996

                     52                     53                     54
                      A                      A                      A
 Frequencies --   1290.1846              1323.6728              1353.4064
 Red. masses --      1.3842                 1.5373                 1.8957
 Frc consts  --      1.3575                 1.5870                 2.0458
 IR Inten    --     10.5995                43.2401                 1.0962

                     55                     56                     57
                      A                      A                      A
 Frequencies --   1359.7169              1397.5843              1411.8778
 Red. masses --      1.2786                 1.3503                 1.3259
 Frc consts  --      1.3928                 1.5539                 1.5572
 IR Inten    --     34.7525                13.9898                21.4524

                     58                     59                     60
                      A                      A                      A
 Frequencies --   1415.8911              1439.1704              1473.8342
 Red. masses --      1.3242                 1.7424                 2.0609
 Frc consts  --      1.5641                 2.1263                 2.6375
 IR Inten    --     17.7086                44.1764                61.4225

                     61                     62                     63
                      A                      A                      A
 Frequencies --   1484.7604              1487.5648              1488.2204
 Red. masses --      1.1119                 1.2097                 1.2241
 Frc consts  --      1.4442                 1.5772                 1.5973
 IR Inten    --      3.7515                 1.2680                27.4337

                     64                     65                     66
                      A                      A                      A
 Frequencies --   1505.7701              1511.1923              1529.5074
 Red. masses --      2.8570                 1.1225                 1.3762
 Frc consts  --      3.8166                 1.5103                 1.8968
 IR Inten    --      9.7113                17.2035                12.8539

                     67                     68                     69
                      A                      A                      A
 Frequencies --   1540.4048              1567.8807              1768.7852
 Red. masses --      1.2526                 5.4538                 7.5871
 Frc consts  --      1.7512                 7.8990                13.9854
 IR Inten    --     22.5522                17.5587               251.4867

                     70                     71                     72
                      A                      A                      A
 Frequencies --   3011.5492              3028.6785              3060.5423
 Red. masses --      1.0728                 1.0719                 1.0669
 Frc consts  --      5.7327                 5.7933                 5.8881
 IR Inten    --     42.3392                12.1719                66.6646

                     73                     74                     75
                      A                      A                      A
 Frequencies --   3117.1908              3117.7673              3137.2465
 Red. masses --      1.0981                 1.0875                 1.0901
 Frc consts  --      6.2865                 6.2285                 6.3216
 IR Inten    --      7.5743                35.6431                 1.0523

                     76                     77                     78
                      A                      A                      A
 Frequencies --   3142.6423              3154.5806              3163.9651
 Red. masses --      1.0891                 1.0538                 1.0582
 Frc consts  --      6.3371                 6.1788                 6.2415
 IR Inten    --     12.2985                13.0636                15.7756

                     79                     80                     81
                      A                      A                      A
 Frequencies --   3230.4664              3238.4159              3258.2349
 Red. masses --      1.0911                 1.1190                 1.1154
 Frc consts  --      6.7090                 6.9146                 6.9766
 IR Inten    --      7.7475                 8.7082                 2.6450

                     82                     83                     84
                      A                      A                      A
 Frequencies --   3277.2072              3512.4765              3571.2161
 Red. masses --      1.0980                 1.0733                 1.0753
 Frc consts  --      6.9482                 7.8020                 8.0803
 IR Inten    --      1.6457                 1.6144                14.5028

 - Thermochemistry -
 -------------------
 Temperature   298.150 Kelvin.  Pressure   1.00000 Atm.
 Atom     1 has atomic number  6 and mass  12.00000

 Molecular mass:   225.09358 amu.
 Principal axes and moments of inertia in atomic units:
                           1         2         3
     Eigenvalues --  2892.548893147.066114455.58861
           X            0.98512   0.17182  -0.00411
           Y           -0.17177   0.98507   0.01142
           Z            0.00601  -0.01054   0.99993
 This molecule is an asymmetric top.
 Rotational symmetry number  1.
 Warning -- assumption of classical behavior for rotation
           may cause significant error
 Rotational temperatures (Kelvin)      0.02994     0.02752     0.01944
 Rotational constants (GHZ):           0.62393     0.57347     0.40505
 Zero-point vibrational energy     656045.8 (Joules/Mol)
                                  156.79870 (Kcal/Mol)
 Warning -- explicit consideration of  21 degrees of freedom as
           vibrations may cause significant error
 Vibrational temperatures:     49.62    66.69    99.43   117.53   172.61
          (Kelvin)            196.41   208.06   242.82   255.51   326.14
                              386.26   450.51   495.32   535.57   546.30
                              689.13   715.25   757.52   822.81   831.67
                              885.78   902.57   950.20  1032.58  1050.13
                             1085.50  1094.07  1138.24  1153.23  1228.35
                             1243.81  1263.15  1276.70  1278.40  1374.70
                             1381.73  1432.66  1485.68  1525.66  1548.42
                             1550.95  1572.70  1586.98  1633.60  1645.23
                             1690.46  1742.61  1746.52  1749.88  1781.32
                             1807.22  1856.29  1904.47  1947.25  1956.33
                             2010.81  2031.38  2037.15  2070.65  2120.52
                             2136.24  2140.27  2141.22  2166.47  2174.27
                             2200.62  2216.30  2255.83  2544.89  4332.95
                             4357.59  4403.44  4484.94  4485.77  4513.80
                             4521.56  4538.74  4552.24  4647.92  4659.36
                             4687.87  4715.17  5053.67  5138.18

 Zero-point correction=                           0.249875 (Hartree/Particle)
 Thermal correction to Energy=                    0.264461
 Thermal correction to Enthalpy=                  0.265405
 Thermal correction to Gibbs Free Energy=         0.207368
 Sum of electronic and zero-point Energies=          -1027.535537
 Sum of electronic and thermal Energies=             -1027.520951
 Sum of electronic and thermal Enthalpies=           -1027.520007
 Sum of electronic and thermal Free Energies=        -1027.578043

                     E (Thermal)             CV                S
                      KCal/Mol        Cal/Mol-Kelvin    Cal/Mol-Kelvin
 Total                  165.952             55.312            122.148
 Electronic               0.000              0.000              0.000
 Translational            0.889              2.981             42.136
 Rotational               0.889              2.981             32.073
 Vibrational            164.174             49.350             47.939
 Vibration     1          0.594              1.983              5.553
 Vibration     2          0.595              1.979              4.967
 Vibration     3          0.598              1.969              4.179
 Vibration     4          0.600              1.962              3.850
 Vibration     5          0.609              1.933              3.101
 Vibration     6          0.614              1.917              2.852
 Vibration     7          0.616              1.908              2.742
 Vibration     8          0.625              1.881              2.449
 Vibration     9          0.628              1.870              2.354
 Vibration    10          0.650              1.800              1.905
 Vibration    11          0.673              1.731              1.606
 Vibration    12          0.701              1.649              1.346
 Vibration    13          0.723              1.587              1.192
 Vibration    14          0.744              1.529              1.071
 Vibration    15          0.750              1.513              1.040
 Vibration    16          0.835              1.297              0.713
 Vibration    17          0.853              1.256              0.665
 Vibration    18          0.881              1.191              0.595
 Vibration    19          0.928              1.092              0.501
 Vibration    20          0.935              1.079              0.489
 Vibration    21          0.975              0.999              0.424

                           ! Non-Optimized Parameters !
 Normal termination of Gaussian 16 at Thu Dec 10 16:38:57 2020.

 ----------------------------------------------------------------------
 # B3LYP/6-311++G(d,p) empiricaldispersion=gd3bj scf=xqc pop=npa geom=c
 heck
 ----------------------------------------------------------------------

 --------------------------------------
 CID_78921561_JID_5415_Energie_neutraal
 --------------------------------------
 Structure from the checkpoint file:  "JID_5415.chk"
 Charge =  0 Multiplicity = 1

 SCF Done:  E(RB3LYP) =  -1027.99264109     A.U. after   15 cycles
 Normal termination of Gaussian 16 at Thu Dec 10 16:44:36 2020.

 ----------------------------------------------------------------------
 # B3LYP/6-311++G(d,p) empiricaldispersion=gd3bj scf=xqc pop=npa geom=c
 heck
 ----------------------------------------------------------------------

 ------------------------------------
 CID_78921561_JID_5415_Energie_kation
 ------------------------------------
 Structure from the checkpoint file:  "JID_5415.chk"
 Charge =  1 Multiplicity = 2

 SCF Done:  E(UB3LYP) =  -1027.69236897     A.U. after   31 cycles
 Normal termination of Gaussian 16 at Thu Dec 10 17:01:16 2020.
 Gaussian 16:  ES64L-G16RevA.03 25-Dec-2016

 ----------------------------------------------------------------------
 # B3LYP/6-311++G(d,p) empiricaldispersion=gd3bj scf=xqc pop=npa geom=c
 heck
 ----------------------------------------------------------------------

 -----------------------------------
 CID_78921561_JID_5415_Energie_anion
 -----------------------------------
 Structure from the checkpoint file:  "JID_5415.chk"
 Charge = -1 Multiplicity = 2

                         Standard orientation:
 ---------------------------------------------------------------------
 Center     Atomic      Atomic             Coordinates (Angstroms)
 Number     Number       Type             X           Y           Z
 ---------------------------------------------------------------------
      1          6           0        2.651305   -0.267515   -1.173901
      2          6           0        3.343692    0.574355   -0.136869
      3          6           0        2.659854   -0.705779    0.271082
      4          7           0        1.473624   -0.590516    1.069120
      5          6           0        0.336269   -1.353860    1.005041
      6          8           0       -0.495998   -1.305462    1.907751
      7          6           0        0.152995   -2.240999   -0.217363
      8          6           0       -1.326853   -2.540088   -0.518054
      9          7           0       -2.125545   -1.477337   -1.121820
     10          6           0       -2.437049   -0.322501   -0.295680
     11          6           0       -1.410226    0.791781   -0.328037
     12          7           0       -0.639501    1.039205   -1.350998
     13          6           0        0.121040    2.172232   -1.146998
     14          6           0       -0.064619    2.805313    0.046649
     15         16           0       -1.245686    1.948557    0.986110
     16          1           0        3.257511   -0.842114   -1.868185
     17          1           0        1.713234    0.098364   -1.574904
     18          1           0        4.428878    0.604078   -0.115849
     19          1           0        2.849767    1.497671    0.151684
     20          1           0        3.307999   -1.547696    0.517291
     21          1           0        1.550822   -0.079444    1.941569
     22          1           0        0.640980   -1.806412   -1.092020
     23          1           0        0.673681   -3.187933   -0.009365
     24          1           0       -1.367851   -3.394866   -1.203495
     25          1           0       -1.817942   -2.844984    0.410524
     26          1           0       -1.707099   -1.161375   -1.993974
     27          1           0       -3.387093    0.111536   -0.642619
     28          1           0       -2.586026   -0.651180    0.735023
     29          1           0        0.808835    2.492911   -1.920874
     30          1           0        0.414755    3.701130    0.416090
 ---------------------------------------------------------------------

 SCF Done:  E(UB3LYP) =  -1027.98125284     A.U. after   33 cycles
 SCF Done:  E(UB3LYP) =  -1027.98125284     a.u. after    1 cycles

 The electronic state is 2-A.
 Alpha  occ. eigenvalues --  -88.76474 -18.98233 -14.23174 -14.19986 -14.19513
 Alpha  occ. eigenvalues --  -10.16748 -10.11520 -10.11329 -10.09836 -10.09352
 Alpha  occ. eigenvalues --  -10.09148 -10.08630 -10.07319 -10.07228 -10.07115
 Alpha  occ. eigenvalues --   -7.85121  -5.81393  -5.81045  -5.80738  -0.93367
 Alpha  occ. eigenvalues --   -0.85276  -0.82905  -0.80234  -0.73980  -0.68469
 Alpha  occ. eigenvalues --   -0.67055  -0.63910  -0.57908  -0.53742  -0.51613
 Alpha  occ. eigenvalues --   -0.50436  -0.48095  -0.45694  -0.43583  -0.42302
 Alpha  occ. eigenvalues --   -0.40001  -0.38945  -0.38830  -0.37506  -0.35078
 Alpha  occ. eigenvalues --   -0.33597  -0.32729  -0.32015  -0.30366  -0.29885
 Alpha  occ. eigenvalues --   -0.29721  -0.27935  -0.27223  -0.26708  -0.25535
 Alpha  occ. eigenvalues --   -0.25479  -0.24659  -0.21777  -0.20501  -0.17524
 Alpha  occ. eigenvalues --   -0.17027  -0.15713  -0.14931  -0.13534  -0.12486
 Alpha  occ. eigenvalues --    0.04557
 Alpha virt. eigenvalues --    0.06256   0.06974   0.07705   0.08338   0.08881
 Alpha virt. eigenvalues --    0.09371   0.10084   0.10600   0.10737   0.11400
 Alpha virt. eigenvalues --    0.11859   0.12006   0.12525   0.12981   0.13641

  Beta  occ. eigenvalues --  -88.76452 -18.98228 -14.23158 -14.19972 -14.19506
  Beta  occ. eigenvalues --  -10.16738 -10.11311 -10.11310 -10.09851 -10.09345
  Beta  occ. eigenvalues --  -10.09140 -10.08494 -10.07292 -10.07216 -10.07105
  Beta  occ. eigenvalues --   -7.85101  -5.81384  -5.81038  -5.80663  -0.93348
  Beta  occ. eigenvalues --   -0.85124  -0.82877  -0.80213  -0.73942  -0.68315
  Beta  occ. eigenvalues --   -0.66977  -0.63738  -0.57851  -0.53708  -0.51567
  Beta  occ. eigenvalues --   -0.50383  -0.47871  -0.45659  -0.43442  -0.42244
  Beta  occ. eigenvalues --   -0.39907  -0.38868  -0.38752  -0.37451  -0.35028
  Beta  occ. eigenvalues --   -0.33530  -0.32680  -0.31831  -0.30218  -0.29810
  Beta  occ. eigenvalues --   -0.29617  -0.27874  -0.27135  -0.26591  -0.25476
  Beta  occ. eigenvalues --   -0.25342  -0.24627  -0.21747  -0.20469  -0.17128
  Beta  occ. eigenvalues --   -0.16973  -0.15630  -0.14885  -0.12856  -0.12440
  Beta virt. eigenvalues --    0.07035   0.07517   0.07726   0.08460   0.08664
  Beta virt. eigenvalues --    0.09201   0.09901   0.10265   0.10707   0.10948
  Beta virt. eigenvalues --    0.11634   0.12051   0.12309   0.12835   0.13031

 Mulliken charges and spin densities:
               1          2
     1  C   -0.121568  -0.190785
     2  C    1.122110  -1.721241
     3  C   -0.251487   0.333279
     4  N   -0.122188  -0.049021
     5  C    0.538298  -0.449564
     6  O   -0.318701   0.002968
     7  C    0.016630   0.024757
     8  C   -0.679980  -0.117345
     9  N    0.005967   0.030033
    10  C    0.029549  -0.748724
    11  C   -0.227049   0.650140
    12  N   -0.088495   0.005773
    13  C    0.508778  -0.644030
    14  C   -0.688486   0.265839
    15  S    0.043366   0.004571
    16  H   -0.324339   0.507621
    17  H    0.113050   0.003505
    18  H   -0.690569   0.871160
    19  H    0.098001   0.060745
    20  H   -0.561814   0.803452
    21  H    0.260139   0.028202
    22  H    0.227960  -0.050593
    23  H   -0.156886   0.336518
    24  H   -0.087463   0.249843
    25  H    0.203424  -0.028318
    26  H    0.178623   0.043475
    27  H   -0.010211   0.205171
    28  H    0.177247   0.010902
    29  H    0.051073   0.106163
    30  H   -0.244979   0.455503
 Sum of Mulliken charges =  -1.00000   1.00000

 Dipole moment (field-independent basis, Debye):
    X=             -4.8686    Y=              1.3767    Z=              0.0625  Tot=              5.0599
 Quadrupole moment (field-independent basis, Debye-Ang):
   XX=           -169.3994   YY=           -138.0987   ZZ=           -125.9524
   XY=              3.7376   XZ=              0.1928   YZ=              1.4984

 Summary of Natural Population Analysis:

                                       Natural Population
                Natural  -----------------------------------------------
    Atom  No    Charge         Core      Valence    Rydberg      Total
 -----------------------------------------------------------------------
      C    1   -0.20349      0.99961     2.19388    0.01000     3.20349
      C    2   -0.19629      0.99961     2.18647    0.01020     3.19629
      C    3   -0.02521      0.99957     2.01163    0.01401     3.02521
      N    4   -0.31535      0.99965     2.80451    0.01119     3.81535
      C    5    0.34912      0.99967     1.62695    0.02426     2.65088
      O    6   -0.33308      0.99988     3.32800    0.00520     4.33308
      C    7   -0.24759      0.99957     2.24024    0.00778     3.24759
      C    8   -0.08445      0.99962     2.07245    0.01238     3.08445
      N    9   -0.33734      0.99976     2.82640    0.01119     3.83734
      C   10   -0.11408      0.99955     2.10221    0.01232     3.11408
      C   11    0.06695      0.99961     1.91498    0.01846     2.93305
      N   12   -0.26573      0.99964     2.75427    0.01182     3.76573
      C   13   -0.02644      0.99953     2.01237    0.01455     3.02644
      C   14   -0.19414      0.99953     2.18358    0.01103     3.19414
      S   15    0.19356      4.99941     2.78862    0.01841     7.80644
      H   16    0.10346      0.00000     0.39526    0.00128     0.39654
      H   17    0.11426      0.00000     0.38380    0.00194     0.38574
      H   18    0.10647      0.00000     0.39068    0.00285     0.39353
      H   19    0.10788      0.00000     0.39055    0.00157     0.39212
      H   20    0.09800      0.00000     0.39931    0.00269     0.40200
      H   21    0.19307      0.00000     0.30461    0.00232     0.30693
      H   22    0.11118      0.00000     0.38713    0.00168     0.38882
      H   23    0.11167      0.00000     0.38665    0.00167     0.38833
      H   24    0.09142      0.00000     0.40767    0.00092     0.40858
      H   25    0.09910      0.00000     0.39977    0.00113     0.40090
      H   26    0.17786      0.00000     0.31906    0.00308     0.32214
      H   27    0.10068      0.00000     0.39799    0.00133     0.39932
      H   28    0.11184      0.00000     0.38711    0.00105     0.38816
      H   29    0.09779      0.00000     0.40100    0.00121     0.40221
      H   30    0.10887      0.00000     0.39003    0.00110     0.39113
 =======================================================================
   * Total *    0.00000     18.99420    40.78719    0.21861    60.00000

 Normal termination of Gaussian 16 at Thu Dec 10 17:19:54 2020.
