 Gaussian 16, Revision A.03,

 -----------------------------------------------------------
 # opt freq B3LYP/6-31G(d) empiricaldispersion=gd3bj scf=xqc
 -----------------------------------------------------------

 -------------------------------
 CID_145029035_JID_4142_neutraal
 -------------------------------
 Symbolic Z-matrix:
 Charge =  0 Multiplicity = 1

 SCF Done:  E(RB3LYP) =  -642.008728226     A.U. after   16 cycles
 SCF Done:  E(RB3LYP) =  -642.015018500     A.U. after   14 cycles
 SCF Done:  E(RB3LYP) =  -642.016326041     A.U. after   13 cycles
 SCF Done:  E(RB3LYP) =  -642.017215867     A.U. after   14 cycles
 SCF Done:  E(RB3LYP) =  -642.017481695     A.U. after   12 cycles
 SCF Done:  E(RB3LYP) =  -642.017628472     A.U. after   13 cycles
 SCF Done:  E(RB3LYP) =  -642.017701981     A.U. after   11 cycles
 SCF Done:  E(RB3LYP) =  -642.017709492     A.U. after   10 cycles
 SCF Done:  E(RB3LYP) =  -642.017711080     A.U. after    8 cycles
 SCF Done:  E(RB3LYP) =  -642.017711419     A.U. after    8 cycles
 Optimization completed.
    -- Stationary point found.
 Normal termination of Gaussian 16 at Mon Dec 14 13:12:04 2020.

 --------------------------------------------------------------------
 #N Geom=AllCheck Guess=TCheck SCRF=Check GenChk RB3LYP/6-31G(d) Freq
 --------------------------------------------------------------------

 Structure from the checkpoint file:  "JID_4142.chk"
 -------------------------------
 CID_145029035_JID_4142_neutraal
 -------------------------------
 Charge =  0 Multiplicity = 1

 SCF Done:  E(RB3LYP) =  -642.017711419     A.U. after    1 cycles

  Exact polarizability: 163.369   3.178 156.020  -3.080  -0.885  52.890
 Approx polarizability: 255.789  -3.310 273.496  -6.499   3.096  85.119

 ******    1 imaginary frequencies (negative Signs) ******

                      1                      2                      3
                      A                      A                      A
 Frequencies --    -39.8043                75.3109                95.8328
 Red. masses --      1.0576                 4.6353                 3.6872
 Frc consts  --      0.0010                 0.0155                 0.0200
 IR Inten    --      0.2442                 0.8349                12.7410

                      4                      5                      6
                      A                      A                      A
 Frequencies --    130.2745               143.8484               234.4706
 Red. masses --      4.9169                 3.8765                 3.9809
 Frc consts  --      0.0492                 0.0473                 0.1289
 IR Inten    --      4.4186                 3.2868                 0.7759

                      7                      8                      9
                      A                      A                      A
 Frequencies --    242.8294               269.2354               331.2945
 Red. masses --      4.8989                 4.2586                 3.4300
 Frc consts  --      0.1702                 0.1819                 0.2218
 IR Inten    --      3.7848                 1.5753                 5.6987

                     10                     11                     12
                      A                      A                      A
 Frequencies --    374.1589               416.8262               436.6204
 Red. masses --      4.7826                 6.9868                 5.3328
 Frc consts  --      0.3945                 0.7152                 0.5990
 IR Inten    --     15.3899                 9.4496                 3.1820

                     13                     14                     15
                      A                      A                      A
 Frequencies --    452.3586               465.0928               493.4661
 Red. masses --      4.8963                 4.5393                 9.3421
 Frc consts  --      0.5903                 0.5785                 1.3403
 IR Inten    --      5.2754                 0.9522                 4.2365

                     16                     17                     18
                      A                      A                      A
 Frequencies --    560.9698               605.4222               657.9110
 Red. masses --      5.1245                 2.4453                 6.4998
 Frc consts  --      0.9501                 0.5281                 1.6576
 IR Inten    --      4.8369                 4.3189                20.9541

                     19                     20                     21
                      A                      A                      A
 Frequencies --    704.7370               722.2857               747.9748
 Red. masses --      5.4719                 5.2187                10.1347
 Frc consts  --      1.6012                 1.6041                 3.3407
 IR Inten    --      2.0912                17.0708                19.2767

                     22                     23                     24
                      A                      A                      A
 Frequencies --    762.6869               827.7190               840.5002
 Red. masses --      2.1122                 2.8187                 2.0698
 Frc consts  --      0.7239                 1.1378                 0.8615
 IR Inten    --     14.1993                 9.7743                 4.3034

                     25                     26                     27
                      A                      A                      A
 Frequencies --    859.8555               978.9845               987.5606
 Red. masses --      4.3985                 6.2667                 1.3990
 Frc consts  --      1.9160                 3.5387                 0.8039
 IR Inten    --      4.9065                 6.7394                 0.0861

                     28                     29                     30
                      A                      A                      A
 Frequencies --   1013.4372              1065.0545              1071.4507
 Red. masses --      1.3358                 1.8378                 1.6950
 Frc consts  --      0.8083                 1.2283                 1.1465
 IR Inten    --      0.5320                25.5353                 6.0270

                     31                     32                     33
                      A                      A                      A
 Frequencies --   1076.6522              1114.7652              1144.1022
 Red. masses --      2.5408                 2.6497                 1.8769
 Frc consts  --      1.7353                 1.9401                 1.4475
 IR Inten    --      2.1537                67.2287                12.9182

                     34                     35                     36
                      A                      A                      A
 Frequencies --   1163.0426              1224.2742              1230.3469
 Red. masses --      1.3054                 2.2747                 1.5184
 Frc consts  --      1.0403                 2.0088                 1.3542
 IR Inten    --      5.2734                15.2491                14.7191

                     37                     38                     39
                      A                      A                      A
 Frequencies --   1288.9262              1310.9240              1343.9223
 Red. masses --      3.9067                 2.2625                 5.0975
 Frc consts  --      3.8240                 2.2908                 5.4244
 IR Inten    --     52.3828                34.9591                12.3036

                     40                     41                     42
                      A                      A                      A
 Frequencies --   1360.9442              1391.8620              1453.2391
 Red. masses --      6.4408                 3.4808                 1.1923
 Frc consts  --      7.0287                 3.9730                 1.4836
 IR Inten    --    124.1986                 7.9538                11.7176

                     43                     44                     45
                      A                      A                      A
 Frequencies --   1484.1260              1499.5823              1516.3680
 Red. masses --      2.8576                 2.3784                 1.0712
 Frc consts  --      3.7085                 3.1512                 1.4513
 IR Inten    --     26.6428                 7.3799                11.8891

                     46                     47                     48
                      A                      A                      A
 Frequencies --   1522.9741              1533.6387              1593.1964
 Red. masses --      1.3262                 1.0783                 7.5026
 Frc consts  --      1.8124                 1.4943                11.2202
 IR Inten    --     16.0474                10.5452                17.6717

                     49                     50                     51
                      A                      A                      A
 Frequencies --   1623.0213              1650.3264              1735.6183
 Red. masses --      7.4404                 6.4784                 6.1945
 Frc consts  --     11.5477                10.3957                10.9943
 IR Inten    --      0.1698                42.5795                43.9807

                     52                     53                     54
                      A                      A                      A
 Frequencies --   1756.0297              3067.4048              3075.2515
 Red. masses --     11.8055                 1.0600                 1.0389
 Frc consts  --     21.4486                 5.8760                 5.7889
 IR Inten    --    388.4442                28.7142                42.5688

                     55                     56                     57
                      A                      A                      A
 Frequencies --   3147.9587              3175.9472              3184.9265
 Red. masses --      1.1002                 1.0898                 1.1116
 Frc consts  --      6.4237                 6.4768                 6.6433
 IR Inten    --     15.4480                24.1515                27.7701

                     58                     59                     60
                      A                      A                      A
 Frequencies --   3206.7817              3214.4915              3233.3176
 Red. masses --      1.1028                 1.0910                 1.0952
 Frc consts  --      6.6820                 6.6419                 6.7456
 IR Inten    --      0.2042                10.7950                 5.4673

 - Thermochemistry -
 -------------------
 Temperature   298.150 Kelvin.  Pressure   1.00000 Atm.
 Atom     1 has atomic number  6 and mass  12.00000

 Molecular mass:   188.06981 amu.
 Principal axes and moments of inertia in atomic units:
                           1         2         3
     Eigenvalues --  2015.865182307.367614276.19180
           X            1.00000   0.00180  -0.00253
           Y           -0.00181   0.99998  -0.00628
           Z            0.00252   0.00629   0.99998
 This molecule is an asymmetric top.
 Rotational symmetry number  1.
 Warning -- assumption of classical behavior for rotation
           may cause significant error
 Rotational temperatures (Kelvin)      0.04297     0.03754     0.02025
 Rotational constants (GHZ):           0.89527     0.78216     0.42204
    1 imaginary frequencies ignored.
 Zero-point vibrational energy     435991.8 (Joules/Mol)
                                  104.20453 (Kcal/Mol)
 Warning -- explicit consideration of  16 degrees of freedom as
           vibrations may cause significant error
 Vibrational temperatures:    108.36   137.88   187.44   206.97   337.35
          (Kelvin)            349.38   387.37   476.66   538.33   599.72
                              628.20   650.84   669.16   709.99   807.11
                              871.07   946.59  1013.96  1039.21  1076.17
                             1097.34  1190.90  1209.29  1237.14  1408.54
                             1420.88  1458.11  1532.38  1541.58  1549.06
                             1603.90  1646.11  1673.36  1761.46  1770.19
                             1854.48  1886.13  1933.60  1958.10  2002.58
                             2090.89  2135.33  2157.56  2181.72  2191.22
                             2206.56  2292.25  2335.17  2374.45  2497.17
                             2526.54  4413.31  4424.60  4529.21  4569.48
                             4582.40  4613.84  4624.94  4652.02

 Zero-point correction=                           0.166060 (Hartree/Particle)
 Thermal correction to Energy=                    0.176697
 Thermal correction to Enthalpy=                  0.177642
 Thermal correction to Gibbs Free Energy=         0.129378
 Sum of electronic and zero-point Energies=           -641.851651
 Sum of electronic and thermal Energies=              -641.841014
 Sum of electronic and thermal Enthalpies=            -641.840070
 Sum of electronic and thermal Free Energies=         -641.888333

                     E (Thermal)             CV                S
                      KCal/Mol        Cal/Mol-Kelvin    Cal/Mol-Kelvin
 Total                  110.879             41.274            101.578
 Electronic               0.000              0.000              0.000
 Translational            0.889              2.981             41.601
 Rotational               0.889              2.981             31.365
 Vibrational            109.102             35.312             28.613
 Vibration     1          0.599              1.965              4.010
 Vibration     2          0.603              1.952              3.537
 Vibration     3          0.612              1.923              2.942
 Vibration     4          0.616              1.909              2.752
 Vibration     5          0.654              1.788              1.844
 Vibration     6          0.659              1.775              1.782
 Vibration     7          0.674              1.730              1.601
 Vibration     8          0.714              1.613              1.254
 Vibration     9          0.745              1.525              1.063
 Vibration    10          0.780              1.434              0.903
 Vibration    11          0.797              1.390              0.837
 Vibration    12          0.811              1.356              0.789
 Vibration    13          0.823              1.327              0.751
 Vibration    14          0.849              1.265              0.675
 Vibration    15          0.917              1.116              0.522
 Vibration    16          0.964              1.020              0.440

                           ! Non-Optimized Parameters !
 Normal termination of Gaussian 16 at Mon Dec 14 13:17:48 2020.

 ----------------------------------------------------------------------
 # B3LYP/6-311++G(d,p) empiricaldispersion=gd3bj scf=xqc pop=npa geom=c
 heck
 ----------------------------------------------------------------------

 ---------------------------------------
 CID_145029035_JID_4142_Energie_neutraal
 ---------------------------------------
 Structure from the checkpoint file:  "JID_4142.chk"
 Charge =  0 Multiplicity = 1

 SCF Done:  E(RB3LYP) =  -642.185700195     A.U. after   16 cycles
 Normal termination of Gaussian 16 at Mon Dec 14 13:20:11 2020.

 ----------------------------------------------------------------------
 # B3LYP/6-311++G(d,p) empiricaldispersion=gd3bj scf=xqc pop=npa geom=c
 heck
 ----------------------------------------------------------------------

 -------------------------------------
 CID_145029035_JID_4142_Energie_kation
 -------------------------------------
 Structure from the checkpoint file:  "JID_4142.chk"
 Charge =  1 Multiplicity = 2

 SCF Done:  E(UB3LYP) =  -641.882177370     A.U. after   26 cycles
 Normal termination of Gaussian 16 at Mon Dec 14 13:25:31 2020.
 Gaussian 16:  ES64L-G16RevA.03 25-Dec-2016

 ----------------------------------------------------------------------
 # B3LYP/6-311++G(d,p) empiricaldispersion=gd3bj scf=xqc pop=npa geom=c
 heck
 ----------------------------------------------------------------------

 ------------------------------------
 CID_145029035_JID_4142_Energie_anion
 ------------------------------------
 Structure from the checkpoint file:  "JID_4142.chk"
 Charge = -1 Multiplicity = 2

                         Standard orientation:
 ---------------------------------------------------------------------
 Center     Atomic      Atomic             Coordinates (Angstroms)
 Number     Number       Type             X           Y           Z
 ---------------------------------------------------------------------
      1          6           0        2.852573   -1.691341    0.060215
      2          7           0        1.596199   -0.949548    0.023760
      3          6           0        0.389446   -1.645184   -0.029407
      4          8           0        0.344207   -2.871803   -0.080186
      5          6           0       -0.795886   -0.776028   -0.015664
      6          6           0       -0.667814    0.620606    0.079229
      7          6           0        0.682377    1.157348    0.137201
      8          7           0        1.740726    0.398002    0.100880
      9          7           0        0.851743    2.539456    0.300226
     10          6           0        1.768373    3.121654   -0.360910
     11          7           0       -1.724062    1.459031    0.090914
     12          6           0       -2.930806    0.908825    0.018160
     13          6           0       -3.166733   -0.475716   -0.072057
     14          6           0       -2.080010   -1.331901   -0.089702
     15          1           0        3.560978   -1.215582   -0.620411
     16          1           0        2.645909   -2.715281   -0.245508
     17          1           0        3.265975   -1.684907    1.073971
     18          1           0        2.396973    2.609431   -1.099323
     19          1           0        1.949202    4.182365   -0.185487
     20          1           0       -3.770349    1.601774    0.031272
     21          1           0       -4.183299   -0.851719   -0.127247
     22          1           0       -2.180396   -2.409826   -0.158637
 ---------------------------------------------------------------------

 SCF Done:  E(UB3LYP) =  -642.210302837     A.U. after   25 cycles

 The electronic state is 2-A.
 Alpha  occ. eigenvalues --  -18.94961 -14.24814 -14.17838 -14.16946 -14.15333
 Alpha  occ. eigenvalues --  -10.13301 -10.08097 -10.07353 -10.07144 -10.06920
 Alpha  occ. eigenvalues --  -10.06279 -10.04873 -10.04016 -10.03627  -0.91624
 Alpha  occ. eigenvalues --   -0.86811  -0.80694  -0.78714  -0.69511  -0.67201
 Alpha  occ. eigenvalues --   -0.63994  -0.58782  -0.54425  -0.50867  -0.49144
 Alpha  occ. eigenvalues --   -0.45680  -0.41269  -0.39676  -0.37319  -0.35142
 Alpha  occ. eigenvalues --   -0.34128  -0.33482  -0.32037  -0.30371  -0.29159
 Alpha  occ. eigenvalues --   -0.28376  -0.28134  -0.26041  -0.25034  -0.24689
 Alpha  occ. eigenvalues --   -0.23253  -0.18997  -0.16902  -0.15657  -0.14606
 Alpha  occ. eigenvalues --   -0.13042  -0.11770  -0.11103  -0.08562   0.03435
 Alpha virt. eigenvalues --    0.08392   0.08937   0.09128   0.09744   0.10055
 Alpha virt. eigenvalues --    0.11268   0.12140   0.12609   0.13098   0.14583
 Alpha virt. eigenvalues --    0.15414   0.15767   0.16499   0.17584   0.17753

  Beta  occ. eigenvalues --  -18.94910 -14.24837 -14.17277 -14.16911 -14.14942
  Beta  occ. eigenvalues --  -10.13236 -10.08097 -10.07214 -10.07192 -10.06868
  Beta  occ. eigenvalues --  -10.06066 -10.04918 -10.03813 -10.03446  -0.91401
  Beta  occ. eigenvalues --   -0.86440  -0.80255  -0.78417  -0.69137  -0.66772
  Beta  occ. eigenvalues --   -0.63596  -0.58629  -0.53869  -0.50785  -0.48662
  Beta  occ. eigenvalues --   -0.45406  -0.41116  -0.39382  -0.37125  -0.34749
  Beta  occ. eigenvalues --   -0.33962  -0.33323  -0.31908  -0.30128  -0.29006
  Beta  occ. eigenvalues --   -0.28190  -0.27847  -0.25828  -0.24522  -0.24189
  Beta  occ. eigenvalues --   -0.22090  -0.18070  -0.16475  -0.14434  -0.13768
  Beta  occ. eigenvalues --   -0.12518  -0.11447  -0.10711  -0.07332
  Beta virt. eigenvalues --    0.08799   0.08886   0.09088   0.09271   0.09998
  Beta virt. eigenvalues --    0.11197   0.11257   0.12128   0.12617   0.13068
  Beta virt. eigenvalues --    0.14575   0.15401   0.15902   0.16750   0.17780

 Mulliken charges and spin densities:
               1          2
     1  C   -0.278641  -0.001188
     2  N    0.228759  -0.033537
     3  C   -0.417864   0.050643
     4  O   -0.400478   0.024612
     5  C    1.197161  -0.027196
     6  C   -0.975750   0.016946
     7  C   -0.401400   0.068395
     8  N   -0.387550   0.271387
     9  N    0.001757  -0.009605
    10  C   -0.199670   0.204866
    11  N    0.011274   0.183134
    12  C    0.097368  -0.029419
    13  C   -0.347033   0.175005
    14  C   -0.197171   0.147059
    15  H    0.137503   0.000224
    16  H    0.168592  -0.000551
    17  H    0.141847   0.005999
    18  H    0.061926  -0.012870
    19  H    0.119539  -0.008926
    20  H    0.146123   0.000625
    21  H    0.126613  -0.010004
    22  H    0.167096  -0.015600
 Sum of Mulliken charges =  -1.00000   1.00000

 Dipole moment (field-independent basis, Debye):
    X=              0.7922    Y=             -1.2629    Z=             -0.9236  Tot=              1.7537
 Quadrupole moment (field-independent basis, Debye-Ang):
   XX=            -95.2988   YY=           -115.5549   ZZ=            -87.7789
   XY=             -0.9670   XZ=             -1.2235   YZ=             -3.1350

 Summary of Natural Population Analysis:

                                       Natural Population
                Natural  -----------------------------------------------
    Atom  No    Charge         Core      Valence    Rydberg      Total
 -----------------------------------------------------------------------
      C    1   -0.17507      0.99965     2.16830    0.00712     3.17507
      N    2   -0.14325      0.99966     2.63093    0.01266     3.64325
      C    3    0.32860      0.99958     1.65181    0.02000     2.67140
      O    4   -0.34118      0.99988     3.33547    0.00583     4.34118
      C    5   -0.08520      0.99944     2.07662    0.00914     3.08520
      C    6    0.09292      0.99946     1.89532    0.01231     2.90708
      C    7    0.18087      0.99952     1.80377    0.01584     2.81913
      N    8   -0.07935      0.99963     2.56347    0.01625     3.57935
      N    9   -0.21158      0.99966     2.69950    0.01242     3.71158
      C   10    0.02150      0.99967     1.96720    0.01162     2.97850
      N   11   -0.17039      0.99968     2.65999    0.01072     3.67039
      C   12    0.02041      0.99961     1.96484    0.01513     2.97959
      C   13   -0.10029      0.99957     2.09193    0.00879     3.10029
      C   14   -0.03766      0.99954     2.02876    0.00936     3.03766
      H   15    0.09541      0.00000     0.40354    0.00104     0.40459
      H   16    0.10804      0.00000     0.39094    0.00102     0.39196
      H   17    0.09045      0.00000     0.40828    0.00127     0.40955
      H   18    0.06529      0.00000     0.43243    0.00228     0.43471
      H   19    0.06660      0.00000     0.43187    0.00152     0.43340
      H   20    0.07911      0.00000     0.41958    0.00132     0.42089
      H   21    0.09083      0.00000     0.40798    0.00118     0.40917
      H   22    0.10392      0.00000     0.39493    0.00116     0.39608
 =======================================================================
   * Total *   -0.00000     13.99457    34.82747    0.17795    49.00000

 Normal termination of Gaussian 16 at Mon Dec 14 13:30:46 2020.
