 Gaussian 16, Revision A.03,

 -----------------------------------------------------------
 # opt freq B3LYP/6-31G(d) empiricaldispersion=gd3bj scf=xqc
 -----------------------------------------------------------

 -------------------------------
 CID_107389188_JID_6563_neutraal
 -------------------------------
 Symbolic Z-matrix:
 Charge =  0 Multiplicity = 1

 SCF Done:  E(RB3LYP) =  -767.636724247     A.U. after   14 cycles
 SCF Done:  E(RB3LYP) =  -767.640522680     A.U. after   12 cycles
 SCF Done:  E(RB3LYP) =  -767.638401585     A.U. after   13 cycles
 SCF Done:  E(RB3LYP) =  -767.642347148     A.U. after   12 cycles
 SCF Done:  E(RB3LYP) =  -767.641932733     A.U. after   12 cycles
 SCF Done:  E(RB3LYP) =  -767.644307828     A.U. after   12 cycles
 SCF Done:  E(RB3LYP) =  -767.644699224     A.U. after   11 cycles
 SCF Done:  E(RB3LYP) =  -767.644887652     A.U. after   11 cycles
 SCF Done:  E(RB3LYP) =  -767.644992304     A.U. after   11 cycles
 SCF Done:  E(RB3LYP) =  -767.645125315     A.U. after   12 cycles
 SCF Done:  E(RB3LYP) =  -767.647829868     A.U. after    8 cycles
 SCF Done:  E(RB3LYP) =  -767.647831638     A.U. after    9 cycles
 SCF Done:  E(RB3LYP) =  -767.647832410     A.U. after    8 cycles
 SCF Done:  E(RB3LYP) =  -767.647832994     A.U. after    8 cycles
 SCF Done:  E(RB3LYP) =  -767.647833095     A.U. after    7 cycles
 Optimization completed.
    -- Stationary point found.
 Normal termination of Gaussian 16 at Fri Dec 11 00:11:15 2020.

 --------------------------------------------------------------------
 #N Geom=AllCheck Guess=TCheck SCRF=Check GenChk RB3LYP/6-31G(d) Freq
 --------------------------------------------------------------------

 Structure from the checkpoint file:  "JID_6563.chk"
 -------------------------------
 CID_107389188_JID_6563_neutraal
 -------------------------------
 Charge =  0 Multiplicity = 1

 SCF Done:  E(RB3LYP) =  -767.647833095     A.U. after    1 cycles

  Exact polarizability: 156.028   7.061 137.540  -7.222   0.363 115.746
 Approx polarizability: 196.420  13.592 190.295 -12.900  -3.085 178.782

                      1                      2                      3
                      A                      A                      A
 Frequencies --     31.4469                32.8079                45.3108
 Red. masses --      3.3240                 6.7740                 3.4447
 Frc consts  --      0.0019                 0.0043                 0.0042
 IR Inten    --      0.2782                 2.1146                 0.6449

                      4                      5                      6
                      A                      A                      A
 Frequencies --     54.0522                67.7463                96.6875
 Red. masses --      3.6261                 4.3873                 2.9047
 Frc consts  --      0.0062                 0.0119                 0.0160
 IR Inten    --      0.5844                 0.6843                 1.5352

                      7                      8                      9
                      A                      A                      A
 Frequencies --    150.2353               166.3176               200.6899
 Red. masses --      3.3396                 1.8461                 2.5238
 Frc consts  --      0.0444                 0.0301                 0.0599
 IR Inten    --      0.1857                 1.5271                 3.0366

                     10                     11                     12
                      A                      A                      A
 Frequencies --    208.1357               212.9487               245.0427
 Red. masses --      1.8506                 1.2155                 2.6391
 Frc consts  --      0.0472                 0.0325                 0.0934
 IR Inten    --      0.9701                 0.0401                 5.2161

                     13                     14                     15
                      A                      A                      A
 Frequencies --    256.2883               264.4509               269.7980
 Red. masses --      2.7084                 1.3951                 1.0747
 Frc consts  --      0.1048                 0.0575                 0.0461
 IR Inten    --      4.2364                 0.3333                 0.1578

                     16                     17                     18
                      A                      A                      A
 Frequencies --    286.0803               294.3163               324.3273
 Red. masses --      1.4590                 2.7414                 2.3238
 Frc consts  --      0.0704                 0.1399                 0.1440
 IR Inten    --      1.5535                 0.2061                 2.8860

                     19                     20                     21
                      A                      A                      A
 Frequencies --    347.2405               351.3122               383.8913
 Red. masses --      2.8271                 2.7617                 3.2235
 Frc consts  --      0.2008                 0.2008                 0.2799
 IR Inten    --      0.9303                 2.1887                 0.4987

                     22                     23                     24
                      A                      A                      A
 Frequencies --    424.4131               439.2594               466.0036
 Red. masses --      3.1051                 3.3346                 2.4885
 Frc consts  --      0.3295                 0.3791                 0.3184
 IR Inten    --      6.3967                 7.1290                 1.5145

                     25                     26                     27
                      A                      A                      A
 Frequencies --    515.4082               570.6520               629.9639
 Red. masses --      3.6863                 2.9657                 2.9716
 Frc consts  --      0.5770                 0.5690                 0.6948
 IR Inten    --      7.5545                31.1681                11.3547

                     28                     29                     30
                      A                      A                      A
 Frequencies --    650.6946               681.1266               704.2978
 Red. masses --      4.2131                 3.4694                 2.7776
 Frc consts  --      1.0510                 0.9483                 0.8118
 IR Inten    --      2.2997                 2.7734                16.3290

                     31                     32                     33
                      A                      A                      A
 Frequencies --    732.3272               772.4272               805.6403
 Red. masses --      2.3367                 2.5337                 2.2021
 Frc consts  --      0.7384                 0.8907                 0.8421
 IR Inten    --     44.4429                50.7908                50.3888

                     34                     35                     36
                      A                      A                      A
 Frequencies --    809.0057               862.1857               878.9288
 Red. masses --      2.3195                 2.5297                 2.5638
 Frc consts  --      0.8944                 1.1079                 1.1669
 IR Inten    --     56.7571                44.0050                11.8749

                     37                     38                     39
                      A                      A                      A
 Frequencies --    919.0753               938.7282               945.6698
 Red. masses --      2.1404                 1.5215                 1.7138
 Frc consts  --      1.0652                 0.7900                 0.9030
 IR Inten    --      2.2060                 1.5579                 4.8798

                     40                     41                     42
                      A                      A                      A
 Frequencies --    960.2813               988.7240               993.7397
 Red. masses --      1.4610                 1.5580                 1.9561
 Frc consts  --      0.7938                 0.8974                 1.1381
 IR Inten    --      9.2803                12.4765                 3.1941

                     43                     44                     45
                      A                      A                      A
 Frequencies --   1020.9698              1056.9190              1078.4685
 Red. masses --      1.3164                 1.8185                 1.5469
 Frc consts  --      0.8085                 1.1969                 1.0600
 IR Inten    --      0.8684                25.2407                 6.4191

                     46                     47                     48
                      A                      A                      A
 Frequencies --   1089.0474              1104.5954              1111.2800
 Red. masses --      5.3271                 2.6713                 3.4548
 Frc consts  --      3.7225                 1.9203                 2.5137
 IR Inten    --     13.2469                62.8534               147.5846

                     49                     50                     51
                      A                      A                      A
 Frequencies --   1129.9725              1131.6320              1170.2994
 Red. masses --      2.4328                 3.2275                 2.8899
 Frc consts  --      1.8302                 2.4352                 2.3320
 IR Inten    --      5.9827                52.9164                 6.5801

                     52                     53                     54
                      A                      A                      A
 Frequencies --   1176.4562              1184.4371              1197.5362
 Red. masses --      1.5022                 2.2432                 1.9969
 Frc consts  --      1.2249                 1.8541                 1.6873
 IR Inten    --      0.4163                15.2949                32.2620

                     55                     56                     57
                      A                      A                      A
 Frequencies --   1229.0088              1244.5590              1252.0669
 Red. masses --      1.9964                 2.2980                 1.4535
 Frc consts  --      1.7767                 2.0972                 1.3425
 IR Inten    --     21.0232                47.7167                38.9328

                     58                     59                     60
                      A                      A                      A
 Frequencies --   1298.2662              1303.4671              1310.7696
 Red. masses --      2.1406                 1.6142                 1.2492
 Frc consts  --      2.1257                 1.6159                 1.2645
 IR Inten    --    140.2952                14.9836                 8.1805

                     61                     62                     63
                      A                      A                      A
 Frequencies --   1349.0734              1351.4999              1370.5456
 Red. masses --      1.3469                 1.2055                 1.5408
 Frc consts  --      1.4443                 1.2974                 1.7053
 IR Inten    --      4.6722                 0.4365                27.5807

                     64                     65                     66
                      A                      A                      A
 Frequencies --   1375.5819              1395.9357              1409.0205
 Red. masses --      1.4164                 1.5666                 1.2718
 Frc consts  --      1.5791                 1.7986                 1.4876
 IR Inten    --      6.6497                44.3332                 6.9232

                     67                     68                     69
                      A                      A                      A
 Frequencies --   1419.7276              1430.9030              1434.6446
 Red. masses --      1.5154                 1.3563                 1.3844
 Frc consts  --      1.7996                 1.6362                 1.6788
 IR Inten    --     19.9380                18.1688                60.9850

                     70                     71                     72
                      A                      A                      A
 Frequencies --   1440.5772              1445.1011              1484.5016
 Red. masses --      1.3446                 1.3279                 1.1800
 Frc consts  --      1.6440                 1.6338                 1.5321
 IR Inten    --     34.8295                 7.8408                 1.7342

                     73                     74                     75
                      A                      A                      A
 Frequencies --   1501.7273              1508.7982              1509.7648
 Red. masses --      1.2184                 1.0641                 1.0595
 Frc consts  --      1.6189                 1.4272                 1.4229
 IR Inten    --     15.2703                 0.2215                 3.4340

                     76                     77                     78
                      A                      A                      A
 Frequencies --   1514.9877              1518.7649              1527.9469
 Red. masses --      1.4266                 1.1025                 1.0561
 Frc consts  --      1.9291                 1.4984                 1.4527
 IR Inten    --     34.3917                 0.5724                 4.7881

                     79                     80                     81
                      A                      A                      A
 Frequencies --   1529.1622              1530.5879              1534.5368
 Red. masses --      1.0814                 1.0808                 1.0603
 Frc consts  --      1.4898                 1.4918                 1.4711
 IR Inten    --      2.3792                 1.9928                 2.9681

                     82                     83                     84
                      A                      A                      A
 Frequencies --   1541.2545              1543.5322              1548.6107
 Red. masses --      1.0531                 1.0711                 1.0721
 Frc consts  --      1.4739                 1.5035                 1.5148
 IR Inten    --     11.8869                 9.7821                 2.3600

                     85                     86                     87
                      A                      A                      A
 Frequencies --   1557.7285              1756.1396              2947.4860
 Red. masses --      1.0796                 7.0347                 1.0747
 Frc consts  --      1.5434                12.7824                 5.5011
 IR Inten    --      4.3158               320.1590                78.9958

                     88                     89                     90
                      A                      A                      A
 Frequencies --   2975.0847              3007.3124              3034.2947
 Red. masses --      1.0575                 1.0855                 1.0687
 Frc consts  --      5.5148                 5.7841                 5.7975
 IR Inten    --    116.2022                56.8847                52.6319

                     91                     92                     93
                      A                      A                      A
 Frequencies --   3050.9569              3054.2136              3060.1934
 Red. masses --      1.0429                 1.0791                 1.0392
 Frc consts  --      5.7198                 5.9310                 5.7337
 IR Inten    --     22.5456                16.2509                22.2033

                     94                     95                     96
                      A                      A                      A
 Frequencies --   3061.3484              3070.3093              3071.6193
 Red. masses --      1.0651                 1.0868                 1.0349
 Frc consts  --      5.8814                 6.0359                 5.7527
 IR Inten    --     30.3118                24.2041                14.6796

                     97                     98                     99
                      A                      A                      A
 Frequencies --   3080.9776              3113.1996              3130.7346
 Red. masses --      1.0781                 1.1014                 1.1017
 Frc consts  --      6.0293                 6.2896                 6.3620
 IR Inten    --     31.9593                34.4736                28.8270

                    100                    101                    102
                      A                      A                      A
 Frequencies --   3133.0149              3136.0392              3143.2791
 Red. masses --      1.1032                 1.0965                 1.1032
 Frc consts  --      6.3800                 6.3535                 6.4221
 IR Inten    --      7.2077                25.5502                 8.4583

                    103                    104                    105
                      A                      A                      A
 Frequencies --   3146.3970              3155.8309              3158.5583
 Red. masses --      1.1030                 1.1038                 1.0990
 Frc consts  --      6.4335                 6.4772                 6.4601
 IR Inten    --     26.6152                17.9436                 9.3350

                    106                    107                    108
                      A                      A                      A
 Frequencies --   3171.9588              3513.4207              3542.4985
 Red. masses --      1.0972                 1.0739                 1.0740
 Frc consts  --      6.5042                 7.8104                 7.9413
 IR Inten    --     26.5073                 0.5421                 9.6976

 - Thermochemistry -
 -------------------
 Temperature   298.150 Kelvin.  Pressure   1.00000 Atm.
 Atom     1 has atomic number  6 and mass  12.00000

 Molecular mass:   230.16304 amu.
 Principal axes and moments of inertia in atomic units:
                           1         2         3
     Eigenvalues --  2403.221935184.275816275.20129
           X            0.99986  -0.01569  -0.00497
           Y            0.01568   0.99987  -0.00302
           Z            0.00502   0.00294   0.99998
 This molecule is an asymmetric top.
 Rotational symmetry number  1.
 Warning -- assumption of classical behavior for rotation
           may cause significant error
 Rotational temperatures (Kelvin)      0.03604     0.01671     0.01380
 Rotational constants (GHZ):           0.75097     0.34812     0.28760
 Zero-point vibrational energy     887370.8 (Joules/Mol)
                                  212.08671 (Kcal/Mol)
 Warning -- explicit consideration of  26 degrees of freedom as
           vibrations may cause significant error
 Vibrational temperatures:     45.25    47.20    65.19    77.77    97.47
          (Kelvin)            139.11   216.16   239.29   288.75   299.46
                              306.39   352.56   368.74   380.49   388.18
                              411.61   423.46   466.63   499.60   505.46
                              552.33   610.64   632.00   670.48   741.56
                              821.04   906.38   936.20   979.99  1013.33
                             1053.66  1111.35  1159.14  1163.98  1240.49
                             1264.58  1322.34  1350.62  1360.61  1381.63
                             1422.55  1429.77  1468.95  1520.67  1551.68
                             1566.90  1589.27  1598.88  1625.78  1628.17
                             1683.80  1692.66  1704.14  1722.99  1768.27
                             1790.64  1801.44  1867.92  1875.40  1885.91
                             1941.02  1944.51  1971.91  1979.16  2008.44
                             2027.27  2042.67  2058.75  2064.13  2072.67
                             2079.18  2135.87  2160.65  2170.82  2172.21
                             2179.73  2185.16  2198.37  2200.12  2202.17
                             2207.86  2217.52  2220.80  2228.11  2241.22
                             2526.69  4240.77  4280.48  4326.85  4365.67
                             4389.65  4394.33  4402.94  4404.60  4417.49
                             4419.38  4432.84  4479.20  4504.43  4507.71
                             4512.06  4522.48  4526.96  4540.54  4544.46
                             4563.74  5055.03  5096.87

 Zero-point correction=                           0.337982 (Hartree/Particle)
 Thermal correction to Energy=                    0.355813
 Thermal correction to Enthalpy=                  0.356757
 Thermal correction to Gibbs Free Energy=         0.291444
 Sum of electronic and zero-point Energies=           -767.309851
 Sum of electronic and thermal Energies=              -767.292020
 Sum of electronic and thermal Enthalpies=            -767.291076
 Sum of electronic and thermal Free Energies=         -767.356389

                     E (Thermal)             CV                S
                      KCal/Mol        Cal/Mol-Kelvin    Cal/Mol-Kelvin
 Total                  223.276             66.465            137.464
 Electronic               0.000              0.000              0.000
 Translational            0.889              2.981             42.203
 Rotational               0.889              2.981             32.725
 Vibrational            221.499             60.503             62.537
 Vibration     1          0.594              1.983              5.736
 Vibration     2          0.594              1.983              5.652
 Vibration     3          0.595              1.979              5.012
 Vibration     4          0.596              1.976              4.663
 Vibration     5          0.598              1.970              4.218
 Vibration     6          0.603              1.952              3.520
 Vibration     7          0.618              1.902              2.669
 Vibration     8          0.624              1.884              2.477
 Vibration     9          0.638              1.839              2.127
 Vibration    10          0.641              1.828              2.060
 Vibration    11          0.644              1.821              2.018
 Vibration    12          0.660              1.771              1.766
 Vibration    13          0.666              1.752              1.687
 Vibration    14          0.671              1.738              1.632
 Vibration    15          0.674              1.729              1.598
 Vibration    16          0.684              1.700              1.497
 Vibration    17          0.689              1.684              1.449
 Vibration    18          0.709              1.627              1.288
 Vibration    19          0.725              1.581              1.179
 Vibration    20          0.728              1.573              1.160
 Vibration    21          0.753              1.505              1.024
 Vibration    22          0.786              1.417              0.877
 Vibration    23          0.799              1.385              0.829
 Vibration    24          0.823              1.325              0.749
 Vibration    25          0.870              1.216              0.621
 Vibration    26          0.927              1.095              0.503

 Optimization completed.
    -- Stationary point found.
 Normal termination of Gaussian 16 at Fri Dec 11 00:25:01 2020.

 ----------------------------------------------------------------------
 # B3LYP/6-311++G(d,p) empiricaldispersion=gd3bj scf=xqc pop=npa geom=c
 heck
 ----------------------------------------------------------------------

 ---------------------------------------
 CID_107389188_JID_6563_Energie_neutraal
 ---------------------------------------
 Structure from the checkpoint file:  "JID_6563.chk"
 Charge =  0 Multiplicity = 1

 SCF Done:  E(RB3LYP) =  -767.876343986     A.U. after   15 cycles
 Normal termination of Gaussian 16 at Fri Dec 11 00:31:11 2020.

 ----------------------------------------------------------------------
 # B3LYP/6-311++G(d,p) empiricaldispersion=gd3bj scf=xqc pop=npa geom=c
 heck
 ----------------------------------------------------------------------

 -------------------------------------
 CID_107389188_JID_6563_Energie_kation
 -------------------------------------
 Structure from the checkpoint file:  "JID_6563.chk"
 Charge =  1 Multiplicity = 2

 SCF Done:  E(UB3LYP) =  -767.568362259     A.U. after   26 cycles
 Normal termination of Gaussian 16 at Fri Dec 11 00:45:29 2020.
 Gaussian 16:  ES64L-G16RevA.03 25-Dec-2016

 ----------------------------------------------------------------------
 # B3LYP/6-311++G(d,p) empiricaldispersion=gd3bj scf=xqc pop=npa geom=c
 heck
 ----------------------------------------------------------------------

 ------------------------------------
 CID_107389188_JID_6563_Energie_anion
 ------------------------------------
 Structure from the checkpoint file:  "JID_6563.chk"
 Charge = -1 Multiplicity = 2

                         Standard orientation:
 ---------------------------------------------------------------------
 Center     Atomic      Atomic             Coordinates (Angstroms)
 Number     Number       Type             X           Y           Z
 ---------------------------------------------------------------------
      1          6           0       -2.755523    0.115733    1.789316
      2          6           0       -2.865354    0.040305    0.256377
      3          6           0       -2.452506    1.349072   -0.438965
      4          7           0       -1.227546    1.951241    0.086528
      5          6           0       -0.865717    3.179057   -0.615449
      6          6           0       -2.321326   -1.322218   -0.222115
      7          8           0       -2.919416   -2.326742    0.155146
      8          7           0       -1.286088   -1.454002   -1.115755
      9          6           0       -0.123511   -0.612518   -1.371687
     10          6           0        1.125734   -1.190040   -0.702244
     11          6           0        1.055733   -1.176557    0.835546
     12          8           0        2.373294   -0.821441    1.226038
     13          6           0        2.866330    0.056814    0.221189
     14          8           0        2.254479   -0.373777   -1.006508
     15          6           0        2.458742    1.503431    0.507904
     16          6           0        4.369399   -0.133869    0.116480
     17          1           0       -1.712825    0.192288    2.116651
     18          1           0       -3.181994   -0.787790    2.229347
     19          1           0       -3.303295    0.983825    2.175393
     20          1           0       -3.932274   -0.079792    0.031132
     21          1           0       -2.309517    1.172745   -1.512159
     22          1           0       -3.304608    2.049222   -0.357212
     23          1           0       -1.355170    2.154308    1.074852
     24          1           0       -1.680460    3.923400   -0.658526
     25          1           0        0.000760    3.636735   -0.129417
     26          1           0       -0.581375    2.934348   -1.645380
     27          1           0       -1.162536   -2.437323   -1.340044
     28          1           0        0.044874   -0.530109   -2.451769
     29          1           0       -0.290577    0.381486   -0.960743
     30          1           0        1.321144   -2.207001   -1.074728
     31          1           0        0.815088   -2.146701    1.274749
     32          1           0        0.321172   -0.436724    1.183998
     33          1           0        2.792732    2.153807   -0.306633
     34          1           0        1.370627    1.584034    0.585296
     35          1           0        2.911491    1.846679    1.443712
     36          1           0        4.587816   -1.184131   -0.091744
     37          1           0        4.771644    0.483057   -0.692206
     38          1           0        4.853850    0.153375    1.054501
 ---------------------------------------------------------------------

 SCF Done:  E(UB3LYP) =  -767.865105870     A.U. after   33 cycles
 SCF Done:  E(UB3LYP) =  -767.865105870     a.u. after    1 cycles

 The electronic state is 2-A.
 Alpha  occ. eigenvalues --  -19.04629 -19.04135 -18.99485 -14.24997 -14.20803
 Alpha  occ. eigenvalues --  -10.18959 -10.18317 -10.14298 -10.13458 -10.11322
 Alpha  occ. eigenvalues --  -10.10224 -10.09559 -10.08795 -10.07725 -10.07050
 Alpha  occ. eigenvalues --  -10.06599  -1.00706  -0.94868  -0.91312  -0.83412
 Alpha  occ. eigenvalues --   -0.81541  -0.72073  -0.69882  -0.65193  -0.61220
 Alpha  occ. eigenvalues --   -0.60171  -0.59938  -0.56508  -0.53241  -0.52518
 Alpha  occ. eigenvalues --   -0.49399  -0.47971  -0.43037  -0.41425  -0.40771
 Alpha  occ. eigenvalues --   -0.39663  -0.38121  -0.37645  -0.36838  -0.36632
 Alpha  occ. eigenvalues --   -0.35470  -0.34330  -0.33011  -0.32684  -0.32466
 Alpha  occ. eigenvalues --   -0.31016  -0.30539  -0.30191  -0.29590  -0.29146
 Alpha  occ. eigenvalues --   -0.29071  -0.27929  -0.27461  -0.26660  -0.25837
 Alpha  occ. eigenvalues --   -0.25533  -0.24778  -0.23941  -0.19142  -0.18341
 Alpha  occ. eigenvalues --   -0.16759  -0.16109  -0.14017   0.04214
 Alpha virt. eigenvalues --    0.06103   0.06530   0.07234   0.07903   0.08525
 Alpha virt. eigenvalues --    0.09143   0.09355   0.09565   0.10155   0.10531
 Alpha virt. eigenvalues --    0.10863   0.11184   0.12073   0.12233   0.12980

  Beta  occ. eigenvalues --  -19.04626 -19.04130 -18.99475 -14.24994 -14.20781
  Beta  occ. eigenvalues --  -10.18957 -10.18307 -10.14291 -10.13452 -10.11311
  Beta  occ. eigenvalues --  -10.10197 -10.09553 -10.08749 -10.07709 -10.07017
  Beta  occ. eigenvalues --  -10.06576  -1.00701  -0.94850  -0.91305  -0.83398
  Beta  occ. eigenvalues --   -0.81506  -0.72059  -0.69847  -0.65172  -0.61187
  Beta  occ. eigenvalues --   -0.60114  -0.59906  -0.56426  -0.53214  -0.52451
  Beta  occ. eigenvalues --   -0.49377  -0.47940  -0.43015  -0.41405  -0.40727
  Beta  occ. eigenvalues --   -0.39642  -0.38081  -0.37597  -0.36804  -0.36596
  Beta  occ. eigenvalues --   -0.35438  -0.34302  -0.32990  -0.32657  -0.32409
  Beta  occ. eigenvalues --   -0.30973  -0.30516  -0.30163  -0.29567  -0.29119
  Beta  occ. eigenvalues --   -0.29027  -0.27882  -0.27436  -0.26625  -0.25815
  Beta  occ. eigenvalues --   -0.25525  -0.24751  -0.23904  -0.19129  -0.18328
  Beta  occ. eigenvalues --   -0.16745  -0.16083  -0.13968
  Beta virt. eigenvalues --    0.06097   0.06850   0.07100   0.07785   0.08360
  Beta virt. eigenvalues --    0.09042   0.09439   0.09633   0.09940   0.10356
  Beta virt. eigenvalues --    0.10724   0.11259   0.11401   0.12458   0.12699

 Mulliken charges and spin densities:
               1          2
     1  C    0.676610  -1.328225
     2  C    0.233214   0.460726
     3  C   -0.018483  -0.702044
     4  N   -0.351161   0.077518
     5  C    1.023432  -1.387089
     6  C   -0.402384   0.014972
     7  O   -0.324887   0.010508
     8  N   -0.127104   0.031070
     9  C   -0.766883   0.365794
    10  C    0.120514  -0.363604
    11  C   -0.295548   0.039535
    12  O    0.029644   0.005038
    13  C   -0.635491  -0.179497
    14  O    0.037601   0.007374
    15  C   -0.160025  -0.084374
    16  C   -0.039334  -0.314612
    17  H   -0.221863   0.323134
    18  H    0.172028   0.004856
    19  H   -0.372642   0.542298
    20  H   -0.023158   0.249935
    21  H   -0.032978   0.212533
    22  H   -0.446872   0.622396
    23  H   -0.104561   0.371572
    24  H   -0.651039   0.791269
    25  H   -0.559673   0.703135
    26  H   -0.172777   0.309785
    27  H    0.242139   0.043389
    28  H   -0.258998   0.464034
    29  H    1.672667  -1.182249
    30  H    0.045803   0.109585
    31  H    0.067555   0.132722
    32  H    0.494872  -0.162811
    33  H    0.116663   0.056131
    34  H    0.193320  -0.036583
    35  H   -0.178468   0.339817
    36  H    0.013934   0.138212
    37  H   -0.039616   0.200508
    38  H    0.043950   0.113241
 Sum of Mulliken charges =  -1.00000   1.00000

 Dipole moment (field-independent basis, Debye):
    X=              4.2383    Y=             -6.1741    Z=             -1.6216  Tot=              7.6624
 Quadrupole moment (field-independent basis, Debye-Ang):
   XX=           -172.3857   YY=           -165.5884   ZZ=           -136.8828
   XY=              6.1969   XZ=              4.3399   YZ=             -0.8635

 Summary of Natural Population Analysis:

                                       Natural Population
                Natural  -----------------------------------------------
    Atom  No    Charge         Core      Valence    Rydberg      Total
 -----------------------------------------------------------------------
      C    1   -0.28592      0.99964     2.28006    0.00622     3.28592
      C    2   -0.15435      0.99955     2.14261    0.01220     3.15435
      C    3   -0.08799      0.99961     2.07620    0.01218     3.08799
      N    4   -0.35335      0.99975     2.84044    0.01317     3.85335
      C    5   -0.17711      0.99965     2.16843    0.00902     3.17711
      C    6    0.35145      0.99964     1.62592    0.02300     2.64855
      O    7   -0.33138      0.99988     3.32583    0.00567     4.33138
      N    8   -0.31778      0.99967     2.80879    0.00933     3.81778
      C    9   -0.11152      0.99956     2.09969    0.01227     3.11152
      C   10    0.05483      0.99955     1.93193    0.01369     2.94517
      C   11   -0.02549      0.99956     2.01546    0.01047     3.02549
      O   12   -0.30296      0.99987     3.29483    0.00826     4.30296
      C   13    0.29140      0.99959     1.68786    0.02115     2.70860
      O   14   -0.31172      0.99987     3.30315    0.00870     4.31172
      C   15   -0.30960      0.99958     2.30275    0.00727     3.30960
      C   16   -0.29443      0.99958     2.28877    0.00607     3.29443
      H   17    0.09598      0.00000     0.40249    0.00152     0.40402
      H   18    0.11016      0.00000     0.38884    0.00101     0.38984
      H   19    0.10376      0.00000     0.39489    0.00136     0.39624
      H   20    0.11444      0.00000     0.38424    0.00132     0.38556
      H   21    0.09516      0.00000     0.40318    0.00167     0.40484
      H   22    0.09115      0.00000     0.40678    0.00207     0.40885
      H   23    0.18006      0.00000     0.31511    0.00482     0.31994
      H   24    0.08638      0.00000     0.41120    0.00243     0.41362
      H   25    0.09808      0.00000     0.40047    0.00145     0.40192
      H   26    0.09019      0.00000     0.40834    0.00147     0.40981
      H   27    0.18798      0.00000     0.30931    0.00271     0.31202
      H   28    0.09568      0.00000     0.40304    0.00128     0.40432
      H   29    0.12401      0.00000     0.37254    0.00346     0.37599
      H   30    0.08058      0.00000     0.41796    0.00146     0.41942
      H   31    0.09543      0.00000     0.40348    0.00109     0.40457
      H   32    0.08743      0.00000     0.41066    0.00190     0.41257
      H   33    0.10442      0.00000     0.39451    0.00107     0.39558
      H   34    0.11019      0.00000     0.38750    0.00232     0.38981
      H   35    0.10212      0.00000     0.39680    0.00107     0.39788
      H   36    0.10490      0.00000     0.39395    0.00115     0.39510
      H   37    0.10430      0.00000     0.39471    0.00099     0.39570
      H   38    0.10350      0.00000     0.39553    0.00097     0.39650
 =======================================================================
   * Total *   -0.00000     15.99454    46.78823    0.21723    63.00000

 Normal termination of Gaussian 16 at Fri Dec 11 01:03:39 2020.
