 Gaussian 16, Revision A.03,

 -----------------------------------------------------------
 # opt freq B3LYP/6-31G(d) empiricaldispersion=gd3bj scf=xqc
 -----------------------------------------------------------

 ------------------------------
 CID_61428122_JID_3081_neutraal
 ------------------------------
 Symbolic Z-matrix:
 Charge =  0 Multiplicity = 1

 SCF Done:  E(RB3LYP) =  -579.006887587     A.U. after   13 cycles
 SCF Done:  E(RB3LYP) =  -579.012336046     A.U. after   11 cycles
 SCF Done:  E(RB3LYP) =  -579.013086522     A.U. after   11 cycles
 SCF Done:  E(RB3LYP) =  -579.013738650     A.U. after   10 cycles
 SCF Done:  E(RB3LYP) =  -579.014002287     A.U. after   10 cycles
 SCF Done:  E(RB3LYP) =  -579.014081811     A.U. after   10 cycles
 SCF Done:  E(RB3LYP) =  -579.014106687     A.U. after    9 cycles
 SCF Done:  E(RB3LYP) =  -579.014112897     A.U. after    8 cycles
 SCF Done:  E(RB3LYP) =  -579.014117298     A.U. after    8 cycles
 SCF Done:  E(RB3LYP) =  -579.014118956     A.U. after    8 cycles
 SCF Done:  E(RB3LYP) =  -579.014119266     A.U. after    6 cycles
 SCF Done:  E(RB3LYP) =  -579.014119348     A.U. after    6 cycles
 SCF Done:  E(RB3LYP) =  -579.014119382     A.U. after    6 cycles
 SCF Done:  E(RB3LYP) =  -579.014119400     A.U. after    6 cycles
 SCF Done:  E(RB3LYP) =  -579.014119417     A.U. after    6 cycles
 Optimization completed.
    -- Stationary point found.
 Normal termination of Gaussian 16 at Wed Dec  9 22:26:47 2020.

 --------------------------------------------------------------------
 #N Geom=AllCheck Guess=TCheck SCRF=Check GenChk RB3LYP/6-31G(d) Freq
 --------------------------------------------------------------------

 Structure from the checkpoint file:  "JID_3081.chk"
 ------------------------------
 CID_61428122_JID_3081_neutraal
 ------------------------------
 Charge =  0 Multiplicity = 1

 SCF Done:  E(RB3LYP) =  -579.014119417     A.U. after    1 cycles

  Exact polarizability: 137.623  -4.733 120.616  -1.042  -1.332 109.187
 Approx polarizability: 168.448  -2.312 164.443   0.344  -1.402 160.715

                      1                      2                      3
                      A                      A                      A
 Frequencies --     15.9083                27.5894                39.7748
 Red. masses --      4.2407                 3.2756                 2.8803
 Frc consts  --      0.0006                 0.0015                 0.0027
 IR Inten    --      0.1097                 0.1455                 0.7104

                      4                      5                      6
                      A                      A                      A
 Frequencies --     70.9830                96.7529               116.0584
 Red. masses --      2.5102                 3.0376                 2.3724
 Frc consts  --      0.0075                 0.0168                 0.0188
 IR Inten    --      1.3357                 0.4715                 3.9950

                      7                      8                      9
                      A                      A                      A
 Frequencies --    125.9463               138.3923               175.0914
 Red. masses --      2.4100                 2.9105                 1.3169
 Frc consts  --      0.0225                 0.0328                 0.0238
 IR Inten    --      3.1142                 0.0721                 2.7227

                     10                     11                     12
                      A                      A                      A
 Frequencies --    211.6511               240.9418               261.5425
 Red. masses --      1.8356                 1.9089                 2.5956
 Frc consts  --      0.0484                 0.0653                 0.1046
 IR Inten    --      3.9384                 0.2619                 2.3464

                     13                     14                     15
                      A                      A                      A
 Frequencies --    283.8694               298.0026               321.3746
 Red. masses --      1.8465                 3.6899                 2.2070
 Frc consts  --      0.0877                 0.1931                 0.1343
 IR Inten    --      2.0221                 0.5263                 3.9617

                     16                     17                     18
                      A                      A                      A
 Frequencies --    366.9038               395.2998               415.0614
 Red. masses --      2.0490                 2.1787                 2.1024
 Frc consts  --      0.1625                 0.2006                 0.2134
 IR Inten    --      0.3449                 1.3068                 6.9940

                     19                     20                     21
                      A                      A                      A
 Frequencies --    446.4080               470.0450               529.9553
 Red. masses --      2.0457                 2.8973                 2.0848
 Frc consts  --      0.2402                 0.3772                 0.3450
 IR Inten    --      2.1403                 4.3980                 8.4429

                     22                     23                     24
                      A                      A                      A
 Frequencies --    599.2784               767.4193               777.6354
 Red. masses --      2.7492                 1.5522                 1.8840
 Frc consts  --      0.5817                 0.5386                 0.6712
 IR Inten    --      1.0058                30.8814                10.6275

                     25                     26                     27
                      A                      A                      A
 Frequencies --    804.4084               813.5007               845.0932
 Red. masses --      1.3345                 1.3269                 1.9708
 Frc consts  --      0.5088                 0.5174                 0.8293
 IR Inten    --     25.8396                23.8328                11.4677

                     28                     29                     30
                      A                      A                      A
 Frequencies --    853.7744               877.3279               915.8324
 Red. masses --      2.7269                 1.6877                 1.6069
 Frc consts  --      1.1711                 0.7654                 0.7941
 IR Inten    --      5.0522                 3.5222                11.8704

                     31                     32                     33
                      A                      A                      A
 Frequencies --    945.2047               959.4676               978.9314
 Red. masses --      2.3266                 2.2436                 2.6084
 Frc consts  --      1.2247                 1.2169                 1.4727
 IR Inten    --     18.3012                 8.1180                38.7362

                     34                     35                     36
                      A                      A                      A
 Frequencies --   1012.9932              1024.6390              1060.8881
 Red. masses --      2.3313                 2.2868                 1.3364
 Frc consts  --      1.4095                 1.4146                 0.8862
 IR Inten    --     22.2594                 3.9527                10.2093

                     37                     38                     39
                      A                      A                      A
 Frequencies --   1076.1954              1082.8426              1092.9368
 Red. masses --      2.2964                 1.3833                 1.9057
 Frc consts  --      1.5670                 0.9557                 1.3412
 IR Inten    --     54.4942                 2.2229                 6.2991

                     40                     41                     42
                      A                      A                      A
 Frequencies --   1099.1475              1107.6415              1143.8567
 Red. masses --      1.6779                 2.0423                 1.1308
 Frc consts  --      1.1943                 1.4763                 0.8717
 IR Inten    --     20.5738                 3.6304                 0.7016

                     43                     44                     45
                      A                      A                      A
 Frequencies --   1161.6242              1169.0114              1174.8624
 Red. masses --      1.5880                 2.5537                 3.8471
 Frc consts  --      1.2625                 2.0562                 3.1287
 IR Inten    --     23.3400                93.9812                20.0357

                     46                     47                     48
                      A                      A                      A
 Frequencies --   1187.5806              1195.0157              1208.7497
 Red. masses --      1.4573                 1.6998                 1.9182
 Frc consts  --      1.2109                 1.4302                 1.6513
 IR Inten    --      9.6126                27.8772                 4.6958

                     49                     50                     51
                      A                      A                      A
 Frequencies --   1211.4989              1221.5875              1236.0209
 Red. masses --      1.3962                 1.4732                 1.9515
 Frc consts  --      1.2074                 1.2953                 1.7566
 IR Inten    --      0.2892                16.0160                 2.1296

                     52                     53                     54
                      A                      A                      A
 Frequencies --   1249.7456              1271.7850              1317.1260
 Red. masses --      1.5957                 1.4777                 1.4295
 Frc consts  --      1.4684                 1.4082                 1.4611
 IR Inten    --      7.9502                 9.9696                 4.9072

                     55                     56                     57
                      A                      A                      A
 Frequencies --   1330.4408              1344.6129              1357.7597
 Red. masses --      1.2344                 1.2890                 1.4224
 Frc consts  --      1.2874                 1.3731                 1.5450
 IR Inten    --      6.9403                 7.6653                 9.7883

                     58                     59                     60
                      A                      A                      A
 Frequencies --   1379.1163              1398.5769              1413.1059
 Red. masses --      1.2523                 1.3708                 1.3737
 Frc consts  --      1.4034                 1.5797                 1.6162
 IR Inten    --     22.9411                16.6151                26.7736

                     61                     62                     63
                      A                      A                      A
 Frequencies --   1428.3963              1434.1061              1439.3697
 Red. masses --      1.2488                 1.4605                 1.3903
 Frc consts  --      1.5012                 1.7697                 1.6971
 IR Inten    --     10.7934                13.9312                 2.4119

                     64                     65                     66
                      A                      A                      A
 Frequencies --   1479.0406              1493.8814              1495.3422
 Red. masses --      1.1752                 1.0884                 1.1289
 Frc consts  --      1.5147                 1.4311                 1.4873
 IR Inten    --      0.9790                 0.0964                 2.5359

                     67                     68                     69
                      A                      A                      A
 Frequencies --   1503.1337              1505.0766              1513.6823
 Red. masses --      1.0955                 1.0890                 1.0541
 Frc consts  --      1.4583                 1.4534                 1.4230
 IR Inten    --      9.1467                 6.0539                 1.1760

                     70                     71                     72
                      A                      A                      A
 Frequencies --   1518.7169              1524.5615              1527.1753
 Red. masses --      1.1934                 1.0933                 1.1176
 Frc consts  --      1.6217                 1.4972                 1.5358
 IR Inten    --     21.5343                 1.6275                30.0028

                     73                     74                     75
                      A                      A                      A
 Frequencies --   1533.8750              1536.9253              1537.4458
 Red. masses --      1.0965                 1.0661                 1.3062
 Frc consts  --      1.5200                 1.4837                 1.8191
 IR Inten    --      4.3090                 3.3665                 8.8407

                     76                     77                     78
                      A                      A                      A
 Frequencies --   1547.5314              1561.9888              2939.7250
 Red. masses --      1.0578                 1.0752                 1.0718
 Frc consts  --      1.4926                 1.5456                 5.4572
 IR Inten    --      3.4506                11.6214                50.1212

                     79                     80                     81
                      A                      A                      A
 Frequencies --   2948.0997              2984.3873              3001.0137
 Red. masses --      1.0623                 1.0702                 1.0671
 Frc consts  --      5.4400                 5.6159                 5.6621
 IR Inten    --     98.4097                70.3085                55.6779

                     82                     83                     84
                      A                      A                      A
 Frequencies --   3002.8562              3020.7937              3021.1886
 Red. masses --      1.0414                 1.0603                 1.0576
 Frc consts  --      5.5326                 5.7004                 5.6875
 IR Inten    --     49.1578                38.6819                60.2119

                     85                     86                     87
                      A                      A                      A
 Frequencies --   3043.2854              3060.2043              3065.7755
 Red. masses --      1.0923                 1.1030                 1.0982
 Frc consts  --      5.9606                 6.0858                 6.0818
 IR Inten    --     53.1853                35.8271                40.1297

                     88                     89                     90
                      A                      A                      A
 Frequencies --   3067.2886              3075.3474              3096.2720
 Red. masses --      1.1043                 1.0956                 1.0889
 Frc consts  --      6.1215                 6.1048                 6.1506
 IR Inten    --     77.2290                15.5194                43.3621

                     91                     92                     93
                      A                      A                      A
 Frequencies --   3100.9147              3129.7085              3131.4137
 Red. masses --      1.0753                 1.0865                 1.1001
 Frc consts  --      6.0920                 6.2700                 6.3559
 IR Inten    --     38.7804                34.2820                35.4795

                     94                     95                     96
                      A                      A                      A
 Frequencies --   3138.8432              3143.7432              3169.2352
 Red. masses --      1.0510                 1.0609                 1.0989
 Frc consts  --      6.1010                 6.1774                 6.5032
 IR Inten    --     23.7173                 9.4491                 7.5348

                     97                     98                     99
                      A                      A                      A
 Frequencies --   3212.4172              3226.9117              3478.5345
 Red. masses --      1.1190                 1.1158                 1.0730
 Frc consts  --      6.8036                 6.8457                 7.6499
 IR Inten    --      0.4684                26.6933                16.0993

 - Thermochemistry -
 -------------------
 Temperature   298.150 Kelvin.  Pressure   1.00000 Atm.
 Atom     1 has atomic number  6 and mass  12.00000

 Molecular mass:   186.17321 amu.
 Principal axes and moments of inertia in atomic units:
                           1         2         3
     Eigenvalues --  1518.336154809.405995400.87240
           X            0.99997  -0.00613  -0.00427
           Y            0.00605   0.99980  -0.01914
           Z            0.00439   0.01912   0.99981
 This molecule is an asymmetric top.
 Rotational symmetry number  1.
 Warning -- assumption of classical behavior for rotation
           may cause significant error
 Rotational temperatures (Kelvin)      0.05705     0.01801     0.01604
 Rotational constants (GHZ):           1.18863     0.37525     0.33416
 Zero-point vibrational energy     845478.7 (Joules/Mol)
                                  202.07425 (Kcal/Mol)
 Warning -- explicit consideration of  22 degrees of freedom as
           vibrations may cause significant error
 Vibrational temperatures:     22.89    39.70    57.23   102.13   139.21
          (Kelvin)            166.98   181.21   199.12   251.92   304.52
                              346.66   376.30   408.42   428.76   462.39
                              527.89   568.75   597.18   642.28   676.29
                              762.49   862.23  1104.15  1118.84  1157.36
                             1170.45  1215.90  1228.39  1262.28  1317.68
                             1359.94  1380.46  1408.46  1457.47  1474.23
                             1526.38  1548.41  1557.97  1572.49  1581.43
                             1593.65  1645.75  1671.32  1681.95  1690.37
                             1708.66  1719.36  1739.12  1743.08  1757.59
                             1778.36  1798.11  1829.81  1895.05  1914.21
                             1934.60  1953.51  1984.24  2012.24  2033.14
                             2055.14  2063.36  2070.93  2128.01  2149.36
                             2151.46  2162.67  2165.47  2177.85  2185.09
                             2193.50  2197.26  2206.90  2211.29  2212.04
                             2226.55  2247.35  4229.61  4241.66  4293.87
                             4317.79  4320.44  4346.25  4346.82  4378.61
                             4402.95  4410.97  4413.14  4424.74  4454.84
                             4461.52  4502.95  4505.41  4516.10  4523.15
                             4559.82  4621.95  4642.81  5004.84

 Zero-point correction=                           0.322026 (Hartree/Particle)
 Thermal correction to Energy=                    0.337558
 Thermal correction to Enthalpy=                  0.338503
 Thermal correction to Gibbs Free Energy=         0.276971
 Sum of electronic and zero-point Energies=           -578.692094
 Sum of electronic and thermal Energies=              -578.676561
 Sum of electronic and thermal Enthalpies=            -578.675617
 Sum of electronic and thermal Free Energies=         -578.737148

                     E (Thermal)             CV                S
                      KCal/Mol        Cal/Mol-Kelvin    Cal/Mol-Kelvin
 Total                  211.821             56.319            129.504
 Electronic               0.000              0.000              0.000
 Translational            0.889              2.981             41.571
 Rotational               0.889              2.981             32.045
 Vibrational            210.044             50.358             55.888
 Vibration     1          0.593              1.986              7.089
 Vibration     2          0.593              1.984              5.996
 Vibration     3          0.594              1.981              5.270
 Vibration     4          0.598              1.968              4.126
 Vibration     5          0.603              1.951              3.519
 Vibration     6          0.608              1.936              3.165
 Vibration     7          0.611              1.927              3.007
 Vibration     8          0.614              1.915              2.826
 Vibration     9          0.627              1.873              2.380
 Vibration    10          0.643              1.823              2.029
 Vibration    11          0.658              1.778              1.796
 Vibration    12          0.669              1.743              1.651
 Vibration    13          0.682              1.704              1.510
 Vibration    14          0.691              1.677              1.428
 Vibration    15          0.707              1.633              1.303
 Vibration    16          0.740              1.540              1.093
 Vibration    17          0.762              1.480              0.980
 Vibration    18          0.778              1.438              0.909
 Vibration    19          0.806              1.369              0.807
 Vibration    20          0.827              1.317              0.737
 Vibration    21          0.885              1.184              0.587
 Vibration    22          0.957              1.033              0.451

                           ! Non-Optimized Parameters !
 Normal termination of Gaussian 16 at Wed Dec  9 22:36:05 2020.

 ----------------------------------------------------------------------
 # B3LYP/6-311++G(d,p) empiricaldispersion=gd3bj scf=xqc pop=npa geom=c
 heck
 ----------------------------------------------------------------------

 --------------------------------------
 CID_61428122_JID_3081_Energie_neutraal
 --------------------------------------
 Structure from the checkpoint file:  "JID_3081.chk"
 Charge =  0 Multiplicity = 1

 SCF Done:  E(RB3LYP) =  -579.184002276     A.U. after   13 cycles
 Normal termination of Gaussian 16 at Wed Dec  9 22:40:47 2020.

 ----------------------------------------------------------------------
 # B3LYP/6-311++G(d,p) empiricaldispersion=gd3bj scf=xqc pop=npa geom=c
 heck
 ----------------------------------------------------------------------

 ------------------------------------
 CID_61428122_JID_3081_Energie_kation
 ------------------------------------
 Structure from the checkpoint file:  "JID_3081.chk"
 Charge =  1 Multiplicity = 2

 SCF Done:  E(UB3LYP) =  -578.905489031     A.U. after   18 cycles
 Normal termination of Gaussian 16 at Wed Dec  9 22:50:35 2020.
 Gaussian 16:  ES64L-G16RevA.03 25-Dec-2016

 ----------------------------------------------------------------------
 # B3LYP/6-311++G(d,p) empiricaldispersion=gd3bj scf=xqc pop=npa geom=c
 heck
 ----------------------------------------------------------------------

 -----------------------------------
 CID_61428122_JID_3081_Energie_anion
 -----------------------------------
 Structure from the checkpoint file:  "JID_3081.chk"
 Charge = -1 Multiplicity = 2

                         Standard orientation:
 ---------------------------------------------------------------------
 Center     Atomic      Atomic             Coordinates (Angstroms)
 Number     Number       Type             X           Y           Z
 ---------------------------------------------------------------------
      1          6           0        1.074636   -0.342393    1.642742
      2          7           0        1.316757   -0.828798    0.286219
      3          6           0        0.515111   -2.013293   -0.030697
      4          6           0       -0.964493   -1.659037   -0.175359
      5          7           0       -1.113962   -0.661209   -1.228190
      6          6           0       -2.402129    0.021301   -1.269522
      7          6           0       -2.779714    0.831100   -0.037555
      8          6           0       -4.215851    1.240789    0.177454
      9          6           0       -3.582678    0.214427    1.083169
     10          6           0        2.747809   -0.986229    0.015362
     11          6           0        3.366300    0.258721   -0.619113
     12          8           0        3.251390    1.418816    0.197007
     13          6           0        2.243778    2.320430   -0.222477
     14          1           0        1.243289   -1.127665    2.404577
     15          1           0        0.045129    0.014076    1.744261
     16          1           0        1.750583    0.488074    1.848983
     17          1           0        0.865644   -2.407518   -0.989972
     18          1           0        0.633180   -2.809897    0.729061
     19          1           0       -1.520011   -2.565823   -0.452485
     20          1           0       -1.364406   -1.334283    0.798207
     21          1           0       -0.361016    0.015547   -1.106390
     22          1           0       -2.393241    0.683801   -2.145457
     23          1           0       -3.185269   -0.727920   -1.456664
     24          1           0       -2.025935    1.561357    0.258441
     25          1           0       -4.420080    2.229587    0.578038
     26          1           0       -4.951042    0.895658   -0.546007
     27          1           0       -3.893910   -0.821101    0.968960
     28          1           0       -3.354082    0.497779    2.107090
     29          1           0        3.302524   -1.248737    0.932116
     30          1           0        2.894110   -1.814806   -0.688072
     31          1           0        4.438180    0.080956   -0.782492
     32          1           0        2.898245    0.434308   -1.597857
     33          1           0        2.436542    2.691636   -1.241058
     34          1           0        1.245703    1.863221   -0.199826
     35          1           0        2.268571    3.166376    0.470262
 ---------------------------------------------------------------------

 SCF Done:  E(UB3LYP) =  -579.166188379     A.U. after   30 cycles

 The electronic state is 2-A.
 Alpha  occ. eigenvalues --  -19.02808 -14.21145 -14.19175 -10.11930 -10.11214
 Alpha  occ. eigenvalues --  -10.09878 -10.09632 -10.09575 -10.08981 -10.08475
 Alpha  occ. eigenvalues --  -10.07764 -10.07484 -10.07374  -0.93918  -0.83348
 Alpha  occ. eigenvalues --   -0.80183  -0.75716  -0.66863  -0.64168  -0.59648
 Alpha  occ. eigenvalues --   -0.58083  -0.54877  -0.51141  -0.50498  -0.47931
 Alpha  occ. eigenvalues --   -0.47447  -0.40418  -0.40304  -0.39790  -0.39285
 Alpha  occ. eigenvalues --   -0.37379  -0.36966  -0.36157  -0.35616  -0.34064
 Alpha  occ. eigenvalues --   -0.32189  -0.31457  -0.30481  -0.28907  -0.27399
 Alpha  occ. eigenvalues --   -0.27186  -0.27039  -0.26698  -0.26356  -0.25284
 Alpha  occ. eigenvalues --   -0.24692  -0.22341  -0.20560  -0.19035  -0.16862
 Alpha  occ. eigenvalues --   -0.12964  -0.11875   0.04585
 Alpha virt. eigenvalues --    0.06396   0.06615   0.07354   0.07919   0.08581
 Alpha virt. eigenvalues --    0.08911   0.09510   0.09759   0.10349   0.10850
 Alpha virt. eigenvalues --    0.11348   0.11701   0.11923   0.12868   0.12913

  Beta  occ. eigenvalues --  -19.02798 -14.21131 -14.19171 -10.11914 -10.11186
  Beta  occ. eigenvalues --  -10.09863 -10.09618 -10.09566 -10.08972 -10.08455
  Beta  occ. eigenvalues --  -10.07751 -10.07465 -10.07353  -0.93899  -0.83324
  Beta  occ. eigenvalues --   -0.80167  -0.75692  -0.66835  -0.64141  -0.59607
  Beta  occ. eigenvalues --   -0.58049  -0.54839  -0.51095  -0.50438  -0.47882
  Beta  occ. eigenvalues --   -0.47400  -0.40389  -0.40265  -0.39753  -0.39254
  Beta  occ. eigenvalues --   -0.37353  -0.36928  -0.36127  -0.35582  -0.34034
  Beta  occ. eigenvalues --   -0.32159  -0.31426  -0.30450  -0.28880  -0.27372
  Beta  occ. eigenvalues --   -0.27159  -0.27007  -0.26668  -0.26333  -0.25262
  Beta  occ. eigenvalues --   -0.24664  -0.22304  -0.20532  -0.19009  -0.16831
  Beta  occ. eigenvalues --   -0.12922  -0.11829
  Beta virt. eigenvalues --    0.06645   0.07195   0.07304   0.07869   0.08435
  Beta virt. eigenvalues --    0.08975   0.09243   0.09916   0.10180   0.10741
  Beta virt. eigenvalues --    0.11121   0.11677   0.11939   0.12200   0.13081

 Mulliken charges and spin densities:
               1          2
     1  C    0.274447  -0.720313
     2  N    0.065354   0.109773
     3  C   -0.078057  -0.310300
     4  C   -0.390356  -0.075365
     5  N    0.001666  -0.020647
     6  C    0.207591  -0.916605
     7  C   -0.749779   1.205225
     8  C    0.455510  -0.902474
     9  C    0.484481  -0.946214
    10  C    0.039105  -0.195830
    11  C   -0.026746  -0.354912
    12  O   -0.183327   0.050512
    13  C    0.714107  -1.089026
    14  H   -0.328235   0.447722
    15  H    0.188261  -0.036426
    16  H    0.055668   0.079145
    17  H    0.053355   0.116125
    18  H   -0.097932   0.219627
    19  H   -0.272038   0.426174
    20  H    0.124586   0.006077
    21  H    0.552745  -0.302713
    22  H   -0.007114   0.165432
    23  H   -0.008847   0.161332
    24  H   -0.059997   0.259381
    25  H   -0.350938   0.513470
    26  H    0.018387   0.094882
    27  H   -0.059396   0.204586
    28  H   -0.226010   0.375841
    29  H    0.188283  -0.033480
    30  H   -0.474038   0.592097
    31  H   -0.361791   0.526457
    32  H    0.131989  -0.016233
    33  H   -0.190217   0.316173
    34  H   -0.487677   0.699896
    35  H   -0.203043   0.350609
 Sum of Mulliken charges =  -1.00000   1.00000

 Dipole moment (field-independent basis, Debye):
    X=             -0.0854    Y=             -2.1047    Z=             -1.2990  Tot=              2.4747
 Quadrupole moment (field-independent basis, Debye-Ang):
   XX=           -159.2985   YY=           -134.7995   ZZ=           -123.4804
   XY=              5.1663   XZ=              8.3494   YZ=             -4.6600

 Summary of Natural Population Analysis:

                                       Natural Population
                Natural  -----------------------------------------------
    Atom  No    Charge         Core      Valence    Rydberg      Total
 -----------------------------------------------------------------------
      C    1   -0.18210      0.99963     2.17373    0.00874     3.18210
      N    2   -0.29494      0.99972     2.78225    0.01296     3.79494
      C    3   -0.08171      0.99961     2.07104    0.01107     3.08171
      C    4   -0.09242      0.99962     2.08229    0.01051     3.09242
      N    5   -0.34352      0.99975     2.83185    0.01192     3.84352
      C    6   -0.08290      0.99961     2.07235    0.01094     3.08290
      C    7   -0.12819      0.99959     2.11715    0.01144     3.12819
      C    8   -0.19946      0.99962     2.19059    0.00926     3.19946
      C    9   -0.20007      0.99962     2.19074    0.00971     3.20007
      C   10   -0.09096      0.99960     2.08023    0.01114     3.09096
      C   11   -0.00883      0.99956     1.99662    0.01264     3.00883
      O   12   -0.30522      0.99989     3.29522    0.01012     4.30522
      C   13   -0.09799      0.99961     2.08838    0.01000     3.09799
      H   14    0.08106      0.00000     0.41764    0.00130     0.41894
      H   15    0.09667      0.00000     0.40164    0.00169     0.40333
      H   16    0.10520      0.00000     0.39325    0.00155     0.39480
      H   17    0.09735      0.00000     0.40103    0.00162     0.40265
      H   18    0.08295      0.00000     0.41582    0.00123     0.41705
      H   19    0.09076      0.00000     0.40804    0.00120     0.40924
      H   20    0.08476      0.00000     0.41302    0.00222     0.41524
      H   21    0.17652      0.00000     0.31828    0.00520     0.32348
      H   22    0.09413      0.00000     0.40475    0.00113     0.40587
      H   23    0.08752      0.00000     0.41103    0.00144     0.41248
      H   24    0.10383      0.00000     0.39404    0.00212     0.39617
      H   25    0.10469      0.00000     0.39406    0.00125     0.39531
      H   26    0.09793      0.00000     0.40118    0.00089     0.40207
      H   27    0.09916      0.00000     0.39975    0.00109     0.40084
      H   28    0.10528      0.00000     0.39326    0.00146     0.39472
      H   29    0.08532      0.00000     0.41324    0.00144     0.41468
      H   30    0.09787      0.00000     0.40038    0.00175     0.40213
      H   31    0.08556      0.00000     0.41305    0.00139     0.41444
      H   32    0.08092      0.00000     0.41706    0.00202     0.41908
      H   33    0.07777      0.00000     0.42090    0.00133     0.42223
      H   34    0.08292      0.00000     0.41451    0.00257     0.41708
      H   35    0.09013      0.00000     0.40859    0.00127     0.40987
 =======================================================================
   * Total *   -0.00000     12.99541    38.82695    0.17763    52.00000

 Normal termination of Gaussian 16 at Wed Dec  9 23:05:15 2020.
