 Gaussian 16, Revision A.03,

 -----------------------------------------------------------
 # opt freq B3LYP/6-31G(d) empiricaldispersion=gd3bj scf=xqc
 -----------------------------------------------------------

 -------------------------------
 CID_152687405_JID_4504_neutraal
 -------------------------------
 Symbolic Z-matrix:
 Charge =  0 Multiplicity = 1

 SCF Done:  E(RB3LYP) =  -597.284529739     A.U. after   14 cycles
 SCF Done:  E(RB3LYP) =  -597.284824967     A.U. after   13 cycles
 SCF Done:  E(RB3LYP) =  -597.286777692     A.U. after   14 cycles
 SCF Done:  E(RB3LYP) =  -597.286872140     A.U. after   12 cycles
 SCF Done:  E(RB3LYP) =  -597.286906014     A.U. after   11 cycles
 SCF Done:  E(RB3LYP) =  -597.286949341     A.U. after   10 cycles
 SCF Done:  E(RB3LYP) =  -597.286974272     A.U. after   10 cycles
 SCF Done:  E(RB3LYP) =  -597.287016390     A.U. after   12 cycles
 SCF Done:  E(RB3LYP) =  -597.286923033     A.U. after   14 cycles
 SCF Done:  E(RB3LYP) =  -597.287058446     A.U. after   12 cycles
 SCF Done:  E(RB3LYP) =  -597.287124287     A.U. after   10 cycles
 SCF Done:  E(RB3LYP) =  -597.287124485     A.U. after    9 cycles
 SCF Done:  E(RB3LYP) =  -597.287124522     A.U. after    7 cycles
 SCF Done:  E(RB3LYP) =  -597.287124535     A.U. after    7 cycles
 SCF Done:  E(RB3LYP) =  -597.287124535     A.U. after    6 cycles
 Optimization completed.
    -- Stationary point found.
 Normal termination of Gaussian 16 at Thu Dec 10 10:06:10 2020.

 --------------------------------------------------------------------
 #N Geom=AllCheck Guess=TCheck SCRF=Check GenChk RB3LYP/6-31G(d) Freq
 --------------------------------------------------------------------

 Structure from the checkpoint file:  "JID_4504.chk"
 -------------------------------
 CID_152687405_JID_4504_neutraal
 -------------------------------
 Charge =  0 Multiplicity = 1

 SCF Done:  E(RB3LYP) =  -597.287124535     A.U. after    1 cycles

  Exact polarizability: 154.932   9.065 131.444   9.471   8.320 118.589
 Approx polarizability: 200.448  21.037 182.985  33.658  24.470 212.168

                      1                      2                      3
                      A                      A                      A
 Frequencies --     27.1558                37.5917                49.5188
 Red. masses --      6.6312                 3.1454                 3.6639
 Frc consts  --      0.0029                 0.0026                 0.0053
 IR Inten    --      0.2419                 0.0915                 0.4323

                      4                      5                      6
                      A                      A                      A
 Frequencies --     54.3960                64.7481                82.0089
 Red. masses --      4.5459                 2.9390                 3.0637
 Frc consts  --      0.0079                 0.0073                 0.0121
 IR Inten    --      0.1916                 0.1259                 0.0742

                      7                      8                      9
                      A                      A                      A
 Frequencies --    110.9521               150.0203               176.5560
 Red. masses --      2.6846                 2.8755                 1.8903
 Frc consts  --      0.0195                 0.0381                 0.0347
 IR Inten    --      0.7819                 0.2188                 0.1686

                     10                     11                     12
                      A                      A                      A
 Frequencies --    206.6470               239.3630               242.6886
 Red. masses --      2.3976                 1.8999                 1.1255
 Frc consts  --      0.0603                 0.0641                 0.0391
 IR Inten    --      0.7476                 1.8521                 0.0363

                     13                     14                     15
                      A                      A                      A
 Frequencies --    258.5338               269.3344               288.9137
 Red. masses --      2.1821                 1.3200                 2.1286
 Frc consts  --      0.0859                 0.0564                 0.1047
 IR Inten    --      2.9805                 0.3144                 0.0788

                     16                     17                     18
                      A                      A                      A
 Frequencies --    304.1834               313.4845               370.9793
 Red. masses --      2.2209                 2.9293                 2.0998
 Frc consts  --      0.1211                 0.1696                 0.1703
 IR Inten    --      0.1319                 0.9947                 0.5871

                     19                     20                     21
                      A                      A                      A
 Frequencies --    384.0677               402.4423               427.0229
 Red. masses --      1.9893                 2.1075                 1.9101
 Frc consts  --      0.1729                 0.2011                 0.2052
 IR Inten    --      0.2583                 0.2890                 0.1425

                     22                     23                     24
                      A                      A                      A
 Frequencies --    448.8708               538.8194               563.9621
 Red. masses --      2.1637                 2.2696                13.1429
 Frc consts  --      0.2569                 0.3882                 2.4629
 IR Inten    --      2.7687                 0.8130                10.7581

                     25                     26                     27
                      A                      A                      A
 Frequencies --    609.3815               682.3792               720.5755
 Red. masses --      3.5257                 4.4707                 1.4841
 Frc consts  --      0.7714                 1.2265                 0.4540
 IR Inten    --      3.1172                11.5550                10.6923

                     28                     29                     30
                      A                      A                      A
 Frequencies --    774.0939               785.7094               829.1772
 Red. masses --      1.7192                 2.1883                 2.2536
 Frc consts  --      0.6070                 0.7959                 0.9129
 IR Inten    --      0.2105                 0.2915                 1.9081

                     31                     32                     33
                      A                      A                      A
 Frequencies --    865.4847               879.5827               890.1402
 Red. masses --      1.7269                 1.5461                 1.9299
 Frc consts  --      0.7621                 0.7048                 0.9010
 IR Inten    --      6.9808                 0.3366                 0.3971

                     34                     35                     36
                      A                      A                      A
 Frequencies --    924.5296               942.5016               944.7659
 Red. masses --      2.6340                 1.5536                 1.7532
 Frc consts  --      1.3265                 0.8131                 0.9220
 IR Inten    --     16.1668                 2.3475                 3.3077

                     37                     38                     39
                      A                      A                      A
 Frequencies --    965.4177               978.4371               990.7712
 Red. masses --      1.5326                 1.5784                 1.7446
 Frc consts  --      0.8416                 0.8903                 1.0090
 IR Inten    --      0.1451                 1.4722                 0.9303

                     40                     41                     42
                      A                      A                      A
 Frequencies --   1028.7218              1038.9555              1054.7847
 Red. masses --      2.0443                 1.6638                 1.6699
 Frc consts  --      1.2746                 1.0581                 1.0947
 IR Inten    --      3.0502                 2.2039                 0.9413

                     43                     44                     45
                      A                      A                      A
 Frequencies --   1081.1140              1105.5693              1122.8759
 Red. masses --      1.8387                 1.4206                 2.1203
 Frc consts  --      1.2662                 1.0231                 1.5751
 IR Inten    --      0.1381                 0.4531                 0.2019

                     46                     47                     48
                      A                      A                      A
 Frequencies --   1152.0359              1174.2048              1190.1272
 Red. masses --      2.3388                 2.3226                 1.9277
 Frc consts  --      1.8289                 1.8867                 1.6087
 IR Inten    --      2.1606                 0.0906                 1.0368

                     49                     50                     51
                      A                      A                      A
 Frequencies --   1206.0028              1234.4408              1239.3908
 Red. masses --      1.8001                 1.4032                 1.3557
 Frc consts  --      1.5426                 1.2598                 1.2269
 IR Inten    --      4.7233                 1.6795                 7.2315

                     52                     53                     54
                      A                      A                      A
 Frequencies --   1275.9546              1300.1331              1309.3394
 Red. masses --      1.3934                 1.2438                 1.2453
 Frc consts  --      1.3366                 1.2388                 1.2578
 IR Inten    --      6.5039                 3.4717                 2.3414

                     55                     56                     57
                      A                      A                      A
 Frequencies --   1328.2627              1338.1013              1353.8493
 Red. masses --      1.5353                 1.2089                 1.3817
 Frc consts  --      1.5959                 1.2753                 1.4921
 IR Inten    --     42.8552                 3.0357                41.1182

                     58                     59                     60
                      A                      A                      A
 Frequencies --   1367.2893              1380.3889              1390.6074
 Red. masses --      1.5383                 1.5032                 1.3625
 Frc consts  --      1.6944                 1.6876                 1.5524
 IR Inten    --     13.8639                32.8557                 2.1259

                     61                     62                     63
                      A                      A                      A
 Frequencies --   1395.7162              1400.4584              1408.4374
 Red. masses --      1.3514                 1.4536                 1.4235
 Frc consts  --      1.5511                 1.6797                 1.6638
 IR Inten    --      0.7960                 2.1559                 3.8783

                     64                     65                     66
                      A                      A                      A
 Frequencies --   1417.4234              1425.2335              1430.8783
 Red. masses --      1.3848                 1.3711                 1.2752
 Frc consts  --      1.6392                 1.6409                 1.5383
 IR Inten    --      2.6087                 0.2288                 3.6249

                     67                     68                     69
                      A                      A                      A
 Frequencies --   1437.5197              1444.6985              1451.9505
 Red. masses --      1.4677                 1.2699                 1.2423
 Frc consts  --      1.7870                 1.5617                 1.5430
 IR Inten    --      1.0188                 6.2511                 3.6351

                     70                     71                     72
                      A                      A                      A
 Frequencies --   1507.4061              1512.7967              1519.7768
 Red. masses --      1.0770                 1.0685                 1.0746
 Frc consts  --      1.4418                 1.4407                 1.4624
 IR Inten    --      2.9354                 1.6049                 4.6797

                     73                     74                     75
                      A                      A                      A
 Frequencies --   1520.7512              1523.3117              1525.9931
 Red. masses --      1.0718                 1.0587                 1.0627
 Frc consts  --      1.4604                 1.4475                 1.4581
 IR Inten    --      0.8950                 3.8483                 4.1826

                     76                     77                     78
                      A                      A                      A
 Frequencies --   1530.7128              1532.5626              1536.3873
 Red. masses --      1.0731                 1.0605                 1.0600
 Frc consts  --      1.4815                 1.4675                 1.4743
 IR Inten    --      4.4175                 9.9634                 3.2809

                     79                     80                     81
                      A                      A                      A
 Frequencies --   1537.0925              1544.5755              1544.8397
 Red. masses --      1.0604                 1.0522                 1.0795
 Frc consts  --      1.4761                 1.4790                 1.5179
 IR Inten    --      5.1228                 8.2324                 4.4465

                     82                     83                     84
                      A                      A                      A
 Frequencies --   2258.2518              3016.1183              3028.1747
 Red. masses --     13.6622                 1.0661                 1.0622
 Frc consts  --     41.0503                 5.7139                 5.7389
 IR Inten    --    510.7238                17.5341                16.1536

                     85                     86                     87
                      A                      A                      A
 Frequencies --   3032.8050              3036.6782              3037.9905
 Red. masses --      1.0772                 1.0701                 1.0373
 Frc consts  --      5.8374                 5.8138                 5.6409
 IR Inten    --      9.5796                11.6668                36.7527

                     88                     89                     90
                      A                      A                      A
 Frequencies --   3038.8819              3044.0927              3044.6924
 Red. masses --      1.0654                 1.0454                 1.0402
 Frc consts  --      5.7967                 5.7074                 5.6813
 IR Inten    --     15.8198                16.7581                40.5626

                     91                     92                     93
                      A                      A                      A
 Frequencies --   3047.8935              3051.4595              3059.2358
 Red. masses --      1.0670                 1.0641                 1.0981
 Frc consts  --      5.8400                 5.8378                 6.0552
 IR Inten    --      8.8524                17.4041                17.7007

                     94                     95                     96
                      A                      A                      A
 Frequencies --   3062.7494              3070.1601              3072.2826
 Red. masses --      1.0948                 1.1002                 1.0612
 Frc consts  --      6.0506                 6.1099                 5.9018
 IR Inten    --     37.3085                31.9198                86.5290

                     97                     98                     99
                      A                      A                      A
 Frequencies --   3080.0745              3091.3325              3101.2101
 Red. masses --      1.0996                 1.0980                 1.1013
 Frc consts  --      6.1461                 6.1822                 6.2404
 IR Inten    --     44.4113                80.8115                 6.2142

                    100                    101                    102
                      A                      A                      A
 Frequencies --   3106.9869              3109.7985              3113.2274
 Red. masses --      1.1010                 1.1014                 1.1023
 Frc consts  --      6.2619                 6.2759                 6.2944
 IR Inten    --     56.6725                54.8114                44.1990

                    103                    104                    105
                      A                      A                      A
 Frequencies --   3116.9610              3118.6727              3131.0896
 Red. masses --      1.1019                 1.1046                 1.1022
 Frc consts  --      6.3075                 6.3298                 6.3665
 IR Inten    --     40.7114                27.8619                41.3032

 - Thermochemistry -
 -------------------
 Temperature   298.150 Kelvin.  Pressure   1.00000 Atm.
 Atom     1 has atomic number  6 and mass  12.00000

 Molecular mass:   197.18920 amu.
 Principal axes and moments of inertia in atomic units:
                           1         2         3
     Eigenvalues --  2599.078134055.237275897.91505
           X            0.99792  -0.06452  -0.00084
           Y            0.06452   0.99792  -0.00018
           Z            0.00085   0.00013   1.00000
 This molecule is an asymmetric top.
 Rotational symmetry number  1.
 Warning -- assumption of classical behavior for rotation
           may cause significant error
 Rotational temperatures (Kelvin)      0.03332     0.02136     0.01469
 Rotational constants (GHZ):           0.69438     0.44504     0.30600
 Zero-point vibrational energy     888147.7 (Joules/Mol)
                                  212.27239 (Kcal/Mol)
 Warning -- explicit consideration of  25 degrees of freedom as
           vibrations may cause significant error
 Vibrational temperatures:     39.07    54.09    71.25    78.26    93.16
          (Kelvin)            117.99   159.64   215.85   254.02   297.32
                              344.39   349.17   371.97   387.51   415.68
                              437.65   451.03   533.76   552.59   579.02
                              614.39   645.82   775.24   811.42   876.76
                              981.79  1036.75  1113.75  1130.46  1193.00
                             1245.24  1265.52  1280.71  1330.19  1356.05
                             1359.31  1389.02  1407.75  1425.50  1480.10
                             1494.83  1517.60  1555.48  1590.67  1615.57
                             1657.52  1689.42  1712.33  1735.17  1776.08
                             1783.21  1835.81  1870.60  1883.85  1911.07
                             1925.23  1947.89  1967.22  1986.07  2000.77
                             2008.12  2014.95  2026.43  2039.36  2050.59
                             2058.71  2068.27  2078.60  2089.03  2168.82
                             2176.58  2186.62  2188.02  2191.71  2195.56
                             2202.35  2205.02  2210.52  2211.53  2222.30
                             2222.68  3249.12  4339.52  4356.87  4363.53
                             4369.10  4370.99  4372.27  4379.77  4380.63
                             4385.24  4390.37  4401.56  4406.61  4417.28
                             4420.33  4431.54  4447.74  4461.95  4470.26
                             4474.31  4479.24  4484.61  4487.07  4504.94

 Zero-point correction=                           0.338278 (Hartree/Particle)
 Thermal correction to Energy=                    0.355206
 Thermal correction to Enthalpy=                  0.356150
 Thermal correction to Gibbs Free Energy=         0.292248
 Sum of electronic and zero-point Energies=           -596.948847
 Sum of electronic and thermal Energies=              -596.931919
 Sum of electronic and thermal Enthalpies=            -596.930974
 Sum of electronic and thermal Free Energies=         -596.994876

                     E (Thermal)             CV                S
                      KCal/Mol        Cal/Mol-Kelvin    Cal/Mol-Kelvin
 Total                  222.895             61.696            134.492
 Electronic               0.000              0.000              0.000
 Translational            0.889              2.981             41.742
 Rotational               0.889              2.981             32.497
 Vibrational            221.118             55.735             60.253
 Vibration     1          0.593              1.984              6.027
 Vibration     2          0.594              1.982              5.382
 Vibration     3          0.595              1.978              4.837
 Vibration     4          0.596              1.976              4.651
 Vibration     5          0.597              1.971              4.307
 Vibration     6          0.600              1.961              3.842
 Vibration     7          0.607              1.940              3.252
 Vibration     8          0.618              1.903              2.672
 Vibration     9          0.628              1.871              2.365
 Vibration    10          0.641              1.830              2.073
 Vibration    11          0.657              1.780              1.808
 Vibration    12          0.659              1.775              1.783
 Vibration    13          0.667              1.748              1.672
 Vibration    14          0.674              1.730              1.600
 Vibration    15          0.685              1.694              1.480
 Vibration    16          0.695              1.666              1.394
 Vibration    17          0.701              1.648              1.344
 Vibration    18          0.743              1.532              1.076
 Vibration    19          0.753              1.504              1.023
 Vibration    20          0.768              1.465              0.954
 Vibration    21          0.789              1.411              0.868
 Vibration    22          0.808              1.363              0.799
 Vibration    23          0.894              1.164              0.568
 Vibration    24          0.920              1.109              0.516
 Vibration    25          0.968              1.012              0.434

 Optimization completed.
    -- Stationary point found.
 Normal termination of Gaussian 16 at Thu Dec 10 10:17:21 2020.

 ----------------------------------------------------------------------
 # B3LYP/6-311++G(d,p) empiricaldispersion=gd3bj scf=xqc pop=npa geom=c
 heck
 ----------------------------------------------------------------------

 ---------------------------------------
 CID_152687405_JID_4504_Energie_neutraal
 ---------------------------------------
 Structure from the checkpoint file:  "JID_4504.chk"
 Charge =  0 Multiplicity = 1

 SCF Done:  E(RB3LYP) =  -597.452906531     A.U. after   14 cycles
 Normal termination of Gaussian 16 at Thu Dec 10 10:22:10 2020.

 ----------------------------------------------------------------------
 # B3LYP/6-311++G(d,p) empiricaldispersion=gd3bj scf=xqc pop=npa geom=c
 heck
 ----------------------------------------------------------------------

 -------------------------------------
 CID_152687405_JID_4504_Energie_kation
 -------------------------------------
 Structure from the checkpoint file:  "JID_4504.chk"
 Charge =  1 Multiplicity = 2

 SCF Done:  E(UB3LYP) =  -597.117355497     A.U. after   27 cycles
 Normal termination of Gaussian 16 at Thu Dec 10 10:37:59 2020.
 Gaussian 16:  ES64L-G16RevA.03 25-Dec-2016

 ----------------------------------------------------------------------
 # B3LYP/6-311++G(d,p) empiricaldispersion=gd3bj scf=xqc pop=npa geom=c
 heck
 ----------------------------------------------------------------------

 ------------------------------------
 CID_152687405_JID_4504_Energie_anion
 ------------------------------------
 Structure from the checkpoint file:  "JID_4504.chk"
 Charge = -1 Multiplicity = 2

                         Standard orientation:
 ---------------------------------------------------------------------
 Center     Atomic      Atomic             Coordinates (Angstroms)
 Number     Number       Type             X           Y           Z
 ---------------------------------------------------------------------
      1          6           0        3.718480   -1.584847    0.560171
      2          6           0        2.781406   -1.565793   -0.651039
      3          6           0        1.449711   -2.296824   -0.419267
      4          6           0        0.601167   -1.752703    0.742257
      5          6           0        0.306978   -0.246568    0.671193
      6          6           0       -0.404679    0.213118   -0.611691
      7          6           0       -1.783705   -0.451595   -0.830378
      8          6           0       -2.780251   -0.520685    0.343481
      9          6           0       -3.226558    0.852372    0.862689
     10          6           0       -4.003004   -1.345927   -0.082871
     11          6           0       -0.453884    1.748250   -0.704162
     12          7           0        0.898162    2.309880   -0.958703
     13          7           0        1.491054    2.759755    0.023637
     14          7           0        2.134773    3.212476    0.853646
     15          1           0        3.292489   -1.043065    1.412001
     16          1           0        4.679913   -1.116817    0.322229
     17          1           0        3.918111   -2.612687    0.888092
     18          1           0        2.588694   -0.526424   -0.947379
     19          1           0        3.287634   -2.032439   -1.506082
     20          1           0        0.863625   -2.266647   -1.347464
     21          1           0        1.654271   -3.359417   -0.228466
     22          1           0       -0.340381   -2.315146    0.781588
     23          1           0        1.110395   -1.957235    1.692235
     24          1           0       -0.292120    0.043764    1.544430
     25          1           0        1.253529    0.297965    0.763877
     26          1           0        0.213672   -0.091230   -1.466019
     27          1           0       -2.279494    0.042525   -1.679413
     28          1           0       -1.598559   -1.482163   -1.159423
     29          1           0       -2.297080   -1.053220    1.174016
     30          1           0       -3.608001    1.477613    0.045164
     31          1           0       -4.030923    0.744321    1.599404
     32          1           0       -2.411595    1.394897    1.350762
     33          1           0       -3.711362   -2.345935   -0.424199
     34          1           0       -4.709059   -1.464715    0.746804
     35          1           0       -4.536707   -0.854972   -0.906893
     36          1           0       -1.063554    2.050180   -1.560616
     37          1           0       -0.885393    2.203285    0.192999
 ---------------------------------------------------------------------

 SCF Done:  E(UB3LYP) =  -597.443053361     A.U. after   33 cycles
 SCF Done:  E(UB3LYP) =  -597.443053361     a.u. after    1 cycles

 The electronic state is 2-A.
 Alpha  occ. eigenvalues --  -14.34897 -14.24957 -14.23879 -10.10401 -10.07523
 Alpha  occ. eigenvalues --  -10.07353 -10.06781 -10.06638 -10.06575 -10.06572
 Alpha  occ. eigenvalues --  -10.06498 -10.06367 -10.05992 -10.05750  -1.01583
 Alpha  occ. eigenvalues --   -0.85874  -0.73238  -0.70477  -0.68148  -0.64345
 Alpha  occ. eigenvalues --   -0.60096  -0.58760  -0.58136  -0.53521  -0.49550
 Alpha  occ. eigenvalues --   -0.46315  -0.43864  -0.43245  -0.39897  -0.39655
 Alpha  occ. eigenvalues --   -0.37995  -0.36779  -0.35921  -0.34861  -0.33478
 Alpha  occ. eigenvalues --   -0.33011  -0.32683  -0.31962  -0.30581  -0.29943
 Alpha  occ. eigenvalues --   -0.28858  -0.28791  -0.28003  -0.26539  -0.26084
 Alpha  occ. eigenvalues --   -0.24998  -0.24516  -0.23269  -0.22874  -0.22610
 Alpha  occ. eigenvalues --   -0.21762  -0.21289  -0.20473  -0.18644  -0.13740
 Alpha  occ. eigenvalues --    0.04365
 Alpha virt. eigenvalues --    0.06348   0.06456   0.07676   0.07958   0.08633
 Alpha virt. eigenvalues --    0.08812   0.09455   0.10205   0.10548   0.10900
 Alpha virt. eigenvalues --    0.11194   0.11813   0.12134   0.12266   0.12682

  Beta  occ. eigenvalues --  -14.34684 -14.24669 -14.23928 -10.10329 -10.07516
  Beta  occ. eigenvalues --  -10.07347 -10.06771 -10.06628 -10.06562 -10.06557
  Beta  occ. eigenvalues --  -10.06492 -10.06346 -10.05962 -10.05715  -1.01171
  Beta  occ. eigenvalues --   -0.85673  -0.73203  -0.70452  -0.68096  -0.64287
  Beta  occ. eigenvalues --   -0.59987  -0.58703  -0.58083  -0.53469  -0.49480
  Beta  occ. eigenvalues --   -0.46259  -0.43794  -0.43132  -0.39548  -0.39205
  Beta  occ. eigenvalues --   -0.37856  -0.36665  -0.35884  -0.34688  -0.33282
  Beta  occ. eigenvalues --   -0.32684  -0.32620  -0.31800  -0.30491  -0.29838
  Beta  occ. eigenvalues --   -0.28819  -0.28744  -0.27969  -0.26485  -0.26060
  Beta  occ. eigenvalues --   -0.24958  -0.24463  -0.23228  -0.22833  -0.22580
  Beta  occ. eigenvalues --   -0.21729  -0.21255  -0.20417  -0.18189  -0.13663
  Beta virt. eigenvalues --    0.06451   0.07045   0.07662   0.08142   0.08900
  Beta virt. eigenvalues --    0.09083   0.09197   0.09781   0.10551   0.10814
  Beta virt. eigenvalues --    0.11230   0.11378   0.11972   0.12261   0.12490

 Mulliken charges and spin densities:
               1          2
     1  C    0.081007  -0.692949
     2  C   -0.350686   0.134767
     3  C    0.139975  -0.383872
     4  C   -0.121137  -0.326239
     5  C   -0.110652  -0.125605
     6  C   -0.436810   1.237930
     7  C    0.280396  -1.379787
     8  C   -1.396100   1.926373
     9  C    0.405757  -1.098658
    10  C    0.800149  -1.463526
    11  C    0.756042  -1.522829
    12  N   -0.246984   0.064065
    13  N    0.408788   0.068709
    14  N   -0.302096   0.164182
    15  H    0.138370   0.003890
    16  H   -0.015092   0.146564
    17  H    0.034733   0.096453
    18  H    0.012901   0.142466
    19  H   -0.090595   0.242513
    20  H   -0.147609   0.287333
    21  H   -0.321921   0.482746
    22  H    0.093510   0.057618
    23  H   -0.015752   0.172474
    24  H    0.118669   0.033592
    25  H    0.076738   0.078066
    26  H    0.011884   0.223061
    27  H   -0.096607   0.257802
    28  H    0.327441  -0.173064
    29  H   -0.023807   0.173049
    30  H   -0.018444   0.175680
    31  H   -0.303397   0.441611
    32  H    0.071493   0.052128
    33  H   -0.357580   0.493434
    34  H   -0.223212   0.364788
    35  H   -0.128336   0.259629
    36  H   -0.218496   0.423809
    37  H    0.167460  -0.038203
 Sum of Mulliken charges =  -1.00000   1.00000

 Dipole moment (field-independent basis, Debye):
    X=              1.8790    Y=              0.2076    Z=              1.0897  Tot=              2.1821
 Quadrupole moment (field-independent basis, Debye-Ang):
   XX=           -164.6416   YY=           -145.2144   ZZ=           -121.5867
   XY=             -8.7617   XZ=              1.1042   YZ=             -2.3865

 Summary of Natural Population Analysis:

                                       Natural Population
                Natural  -----------------------------------------------
    Atom  No    Charge         Core      Valence    Rydberg      Total
 -----------------------------------------------------------------------
      C    1   -0.28632      0.99967     2.28243    0.00422     3.28632
      C    2   -0.19614      0.99964     2.18843    0.00807     3.19614
      C    3   -0.18999      0.99963     2.18186    0.00850     3.18999
      C    4   -0.19131      0.99963     2.18283    0.00886     3.19131
      C    5   -0.19373      0.99961     2.18659    0.00753     3.19373
      C    6   -0.11954      0.99958     2.10856    0.01140     3.11954
      C    7   -0.18758      0.99959     2.17798    0.01000     3.18758
      C    8   -0.11827      0.99961     2.10950    0.00915     3.11827
      C    9   -0.28540      0.99965     2.27993    0.00583     3.28540
      C   10   -0.28118      0.99965     2.27582    0.00571     3.28118
      C   11   -0.08301      0.99955     2.07183    0.01163     3.08301
      N   12   -0.20079      0.99970     2.68701    0.01408     3.70079
      N   13    0.13054      0.99970     2.35474    0.01502     3.36946
      N   14   -0.03154      0.99982     2.51837    0.01336     3.53154
      H   15    0.09666      0.00000     0.40241    0.00094     0.40334
      H   16    0.09793      0.00000     0.40124    0.00083     0.40207
      H   17    0.09344      0.00000     0.40556    0.00100     0.40656
      H   18    0.09884      0.00000     0.39948    0.00168     0.40116
      H   19    0.09462      0.00000     0.40435    0.00103     0.40538
      H   20    0.09748      0.00000     0.40120    0.00132     0.40252
      H   21    0.09529      0.00000     0.40363    0.00108     0.40471
      H   22    0.09825      0.00000     0.40045    0.00130     0.40175
      H   23    0.09478      0.00000     0.40425    0.00097     0.40522
      H   24    0.09749      0.00000     0.40139    0.00112     0.40251
      H   25    0.09968      0.00000     0.39817    0.00215     0.40032
      H   26    0.10234      0.00000     0.39544    0.00221     0.39766
      H   27    0.09764      0.00000     0.40111    0.00125     0.40236
      H   28    0.10211      0.00000     0.39655    0.00134     0.39789
      H   29    0.09251      0.00000     0.40557    0.00192     0.40749
      H   30    0.09716      0.00000     0.40194    0.00090     0.40284
      H   31    0.09937      0.00000     0.39974    0.00089     0.40063
      H   32    0.09687      0.00000     0.40216    0.00098     0.40313
      H   33    0.09986      0.00000     0.39898    0.00116     0.40014
      H   34    0.09831      0.00000     0.40064    0.00105     0.40169
      H   35    0.09590      0.00000     0.40299    0.00111     0.40410
      H   36    0.09795      0.00000     0.40064    0.00141     0.40205
      H   37    0.08979      0.00000     0.40880    0.00141     0.41021
 =======================================================================
   * Total *    0.00000     13.99502    40.84258    0.16240    55.00000

 Normal termination of Gaussian 16 at Thu Dec 10 10:53:45 2020.
