 Gaussian 16, Revision A.03,

 -----------------------------------------------------------
 # opt freq B3LYP/6-31G(d) empiricaldispersion=gd3bj scf=xqc
 -----------------------------------------------------------

 -------------------------------
 CID_135144531_JID_6089_neutraal
 -------------------------------
 Symbolic Z-matrix:
 Charge =  0 Multiplicity = 1

 SCF Done:  E(RB3LYP) =  -745.532203913     A.U. after   15 cycles
 SCF Done:  E(RB3LYP) =  -745.537430362     A.U. after   12 cycles
 SCF Done:  E(RB3LYP) =  -745.536906861     A.U. after   12 cycles
 SCF Done:  E(RB3LYP) =  -745.538399318     A.U. after   12 cycles
 SCF Done:  E(RB3LYP) =  -745.538728709     A.U. after   12 cycles
 SCF Done:  E(RB3LYP) =  -745.539007154     A.U. after   12 cycles
 SCF Done:  E(RB3LYP) =  -745.539078719     A.U. after   12 cycles
 SCF Done:  E(RB3LYP) =  -745.539120065     A.U. after   11 cycles
 SCF Done:  E(RB3LYP) =  -745.539134912     A.U. after   10 cycles
 SCF Done:  E(RB3LYP) =  -745.539138384     A.U. after    9 cycles
 SCF Done:  E(RB3LYP) =  -745.539140922     A.U. after    9 cycles
 SCF Done:  E(RB3LYP) =  -745.539141293     A.U. after    8 cycles
 SCF Done:  E(RB3LYP) =  -745.539142237     A.U. after    8 cycles
 SCF Done:  E(RB3LYP) =  -745.539143552     A.U. after    9 cycles
 SCF Done:  E(RB3LYP) =  -745.539143767     A.U. after    8 cycles
 SCF Done:  E(RB3LYP) =  -745.539143819     A.U. after    7 cycles
 Optimization completed.
    -- Stationary point found.
 Normal termination of Gaussian 16 at Thu Dec 10 21:11:21 2020.

 --------------------------------------------------------------------
 #N Geom=AllCheck Guess=TCheck SCRF=Check GenChk RB3LYP/6-31G(d) Freq
 --------------------------------------------------------------------

 Structure from the checkpoint file:  "JID_6089.chk"
 -------------------------------
 CID_135144531_JID_6089_neutraal
 -------------------------------
 Charge =  0 Multiplicity = 1

 SCF Done:  E(RB3LYP) =  -745.539143819     A.U. after    1 cycles

  Exact polarizability: 233.043   1.986 129.911   4.801   0.736  75.365
 Approx polarizability: 304.572  22.089 233.577  14.515  -0.234 119.024

                      1                      2                      3
                      A                      A                      A
 Frequencies --     19.8785                31.2562                48.6242
 Red. masses --      3.4148                 6.2035                 3.0314
 Frc consts  --      0.0008                 0.0036                 0.0042
 IR Inten    --      3.3100                 0.1860                 1.2593

                      4                      5                      6
                      A                      A                      A
 Frequencies --     50.4215                73.8602                88.8271
 Red. masses --      3.7220                 4.5436                 2.1598
 Frc consts  --      0.0056                 0.0146                 0.0100
 IR Inten    --      5.0018                 0.9534                 2.5646

                      7                      8                      9
                      A                      A                      A
 Frequencies --    120.8644               159.8970               203.8804
 Red. masses --      4.5842                 4.2423                 3.8161
 Frc consts  --      0.0395                 0.0639                 0.0935
 IR Inten    --      2.1011                 1.4868                 0.5297

                     10                     11                     12
                      A                      A                      A
 Frequencies --    222.1129               256.9984               290.5104
 Red. masses --      1.4307                 4.4890                 3.7497
 Frc consts  --      0.0416                 0.1747                 0.1865
 IR Inten    --      0.1339                 2.4307                 0.7950

                     13                     14                     15
                      A                      A                      A
 Frequencies --    372.1992               385.1008               414.1712
 Red. masses --      6.0862                 7.2250                 3.3021
 Frc consts  --      0.4968                 0.6313                 0.3337
 IR Inten    --      8.0977                12.2845                 3.1471

                     16                     17                     18
                      A                      A                      A
 Frequencies --    421.7115               462.5647               499.6069
 Red. masses --      3.3124                 4.4028                 3.6656
 Frc consts  --      0.3471                 0.5550                 0.5391
 IR Inten    --      0.4294                11.0709                 3.9514

                     19                     20                     21
                      A                      A                      A
 Frequencies --    559.6979               566.2591               647.2976
 Red. masses --      2.6969                 4.4606                 6.3082
 Frc consts  --      0.4978                 0.8427                 1.5573
 IR Inten    --      7.9654                 3.0145                 0.8207

                     22                     23                     24
                      A                      A                      A
 Frequencies --    665.5544               720.7063               728.8444
 Red. masses --      4.9721                 3.5811                 4.2771
 Frc consts  --      1.2977                 1.0959                 1.3387
 IR Inten    --     20.7783                 8.5304                 1.5036

                     25                     26                     27
                      A                      A                      A
 Frequencies --    757.1289               806.5933               827.8158
 Red. masses --      3.4065                 1.7880                 1.4420
 Frc consts  --      1.1505                 0.6854                 0.5822
 IR Inten    --      0.2388                 6.1352                 6.2874

                     28                     29                     30
                      A                      A                      A
 Frequencies --    838.9851               859.1465               868.5150
 Red. masses --      1.7098                 2.2443                 1.7572
 Frc consts  --      0.7091                 0.9760                 0.7809
 IR Inten    --      0.5857                18.3389                 9.7140

                     31                     32                     33
                      A                      A                      A
 Frequencies --    882.0236               905.2698               937.1156
 Red. masses --      5.6168                 3.9455                 4.7796
 Frc consts  --      2.5745                 1.9050                 2.4730
 IR Inten    --     25.2970                15.2667                64.2526

                     34                     35                     36
                      A                      A                      A
 Frequencies --    949.8673               962.7960               978.0835
 Red. masses --      1.3298                 5.9430                 1.3022
 Frc consts  --      0.7069                 3.2458                 0.7340
 IR Inten    --      0.6095               217.6013                 0.1183

                     37                     38                     39
                      A                      A                      A
 Frequencies --   1000.3949              1022.3302              1037.6723
 Red. masses --      2.4627                 2.9422                 3.4139
 Frc consts  --      1.4521                 1.8118                 2.1658
 IR Inten    --     51.3388                 4.6811                 3.2088

                     40                     41                     42
                      A                      A                      A
 Frequencies --   1058.1618              1084.2660              1091.2640
 Red. masses --      2.6490                 2.1176                 1.6946
 Frc consts  --      1.7476                 1.4668                 1.1890
 IR Inten    --      0.8644               145.7538                 1.3075

                     43                     44                     45
                      A                      A                      A
 Frequencies --   1108.9896              1146.5829              1198.4796
 Red. masses --      1.6719                 1.2981                 1.1970
 Frc consts  --      1.2115                 1.0055                 1.0130
 IR Inten    --     17.2220                 7.2128                 4.0910

                     46                     47                     48
                      A                      A                      A
 Frequencies --   1205.3135              1231.1872              1250.7990
 Red. masses --      1.2801                 2.6760                 1.2813
 Frc consts  --      1.0957                 2.3899                 1.1811
 IR Inten    --     82.6215               418.2312                29.0972

                     49                     50                     51
                      A                      A                      A
 Frequencies --   1253.3413              1297.0080              1313.2426
 Red. masses --      2.9575                 1.5243                 1.3112
 Frc consts  --      2.7372                 1.5108                 1.3323
 IR Inten    --    187.4656                 2.1623               116.7690

                     52                     53                     54
                      A                      A                      A
 Frequencies --   1342.5027              1354.1211              1366.2539
 Red. masses --      1.4023                 5.0459                 1.5787
 Frc consts  --      1.4890                 5.4514                 1.7362
 IR Inten    --      7.3969                19.0304                22.5598

                     55                     56                     57
                      A                      A                      A
 Frequencies --   1382.1874              1390.3933              1438.2504
 Red. masses --      1.4433                 3.8532                 1.2188
 Frc consts  --      1.6246                 4.3888                 1.4855
 IR Inten    --      3.4694                56.6177                 6.7212

                     58                     59                     60
                      A                      A                      A
 Frequencies --   1464.5575              1504.6659              1515.3725
 Red. masses --      3.1879                 1.0808                 1.1010
 Frc consts  --      4.0287                 1.4417                 1.4897
 IR Inten    --     23.8788                 3.5533                 2.0178

                     61                     62                     63
                      A                      A                      A
 Frequencies --   1529.0340              1538.3637              1546.5218
 Red. masses --      1.0402                 1.0595                 1.1079
 Frc consts  --      1.4328                 1.4774                 1.5612
 IR Inten    --      7.4579                15.4522                 2.5470

                     64                     65                     66
                      A                      A                      A
 Frequencies --   1563.3036              1628.1811              1665.1529
 Red. masses --      2.6360                 7.0487                 7.8758
 Frc consts  --      3.7956                11.0094                12.8663
 IR Inten    --     69.8945                 1.8472                 4.4524

                     67                     68                     69
                      A                      A                      A
 Frequencies --   1671.0784              1846.2600              3056.1708
 Red. masses --      6.6253                11.9098                 1.0658
 Frc consts  --     10.9006                23.9189                 5.8654
 IR Inten    --     40.8234               201.1016                15.4732

                     70                     71                     72
                      A                      A                      A
 Frequencies --   3060.1141              3063.9185              3068.2287
 Red. masses --      1.0679                 1.0393                 1.0610
 Frc consts  --      5.8918                 5.7483                 5.8847
 IR Inten    --     64.4642                15.1152                16.5190

                     73                     74                     75
                      A                      A                      A
 Frequencies --   3107.5671              3128.1758              3134.0950
 Red. masses --      1.0965                 1.0993                 1.1038
 Frc consts  --      6.2386                 6.3382                 6.3880
 IR Inten    --      9.1172                10.8490                32.8947

                     76                     77                     78
                      A                      A                      A
 Frequencies --   3134.6762              3152.3064              3206.0767
 Red. masses --      1.1036                 1.1023                 1.0894
 Frc consts  --      6.3895                 6.4539                 6.5974
 IR Inten    --     17.7496                34.1567                13.5559

                     79                     80                     81
                      A                      A                      A
 Frequencies --   3214.2722              3232.2249              3263.0028
 Red. masses --      1.0891                 1.0942                 1.0930
 Frc consts  --      6.6296                 6.7352                 6.8566
 IR Inten    --      4.0044                 2.2602                 1.5902

 - Thermochemistry -
 -------------------
 Temperature   298.150 Kelvin.  Pressure   1.00000 Atm.
 Atom     1 has atomic number  6 and mass  12.00000

 Molecular mass:   219.08954 amu.
 Principal axes and moments of inertia in atomic units:
                           1         2         3
     Eigenvalues --   881.729299277.811889945.35395
           X            0.99986  -0.01661  -0.00149
           Y            0.01663   0.99974   0.01581
           Z            0.00122  -0.01583   0.99987
 This molecule is an asymmetric top.
 Rotational symmetry number  1.
 Warning -- assumption of classical behavior for rotation
           may cause significant error
 Rotational temperatures (Kelvin)      0.09823     0.00934     0.00871
 Rotational constants (GHZ):           2.04682     0.19452     0.18147
 Zero-point vibrational energy     612788.6 (Joules/Mol)
                                  146.45998 (Kcal/Mol)
 Warning -- explicit consideration of  20 degrees of freedom as
           vibrations may cause significant error
 Vibrational temperatures:     28.60    44.97    69.96    72.55   106.27
          (Kelvin)            127.80   173.90   230.06   293.34   319.57
                              369.76   417.98   535.51   554.07   595.90
                              606.75   665.53   718.82   805.28   814.72
                              931.32   957.58  1036.94  1048.64  1089.34
                             1160.51  1191.04  1207.11  1236.12  1249.60
                             1269.04  1302.48  1348.30  1366.65  1385.25
                             1407.24  1439.35  1470.91  1492.98  1522.46
                             1560.02  1570.09  1595.59  1649.68  1724.34
                             1734.18  1771.40  1799.62  1803.28  1866.11
                             1889.46  1931.56  1948.28  1965.73  1988.66
                             2000.47  2069.32  2107.17  2164.88  2180.28
                             2199.94  2213.36  2225.10  2249.25  2342.59
                             2395.78  2404.31  2656.36  4397.15  4402.82
                             4408.30  4414.50  4471.10  4500.75  4509.26
                             4510.10  4535.47  4612.83  4624.62  4650.45
                             4694.73

 Zero-point correction=                           0.233399 (Hartree/Particle)
 Thermal correction to Energy=                    0.248219
 Thermal correction to Enthalpy=                  0.249163
 Thermal correction to Gibbs Free Energy=         0.188361
 Sum of electronic and zero-point Energies=           -745.305745
 Sum of electronic and thermal Energies=              -745.290925
 Sum of electronic and thermal Enthalpies=            -745.289981
 Sum of electronic and thermal Free Energies=         -745.350783

                     E (Thermal)             CV                S
                      KCal/Mol        Cal/Mol-Kelvin    Cal/Mol-Kelvin
 Total                  155.760             54.236            127.969
 Electronic               0.000              0.000              0.000
 Translational            0.889              2.981             42.056
 Rotational               0.889              2.981             32.764
 Vibrational            153.982             48.275             53.149
 Vibration     1          0.593              1.986              6.646
 Vibration     2          0.594              1.983              5.748
 Vibration     3          0.595              1.978              4.873
 Vibration     4          0.595              1.977              4.801
 Vibration     5          0.599              1.966              4.048
 Vibration     6          0.602              1.957              3.686
 Vibration     7          0.609              1.932              3.087
 Vibration     8          0.622              1.891              2.551
 Vibration     9          0.640              1.834              2.098
 Vibration    10          0.648              1.807              1.942
 Vibration    11          0.667              1.751              1.682
 Vibration    12          0.686              1.691              1.471
 Vibration    13          0.744              1.529              1.071
 Vibration    14          0.754              1.502              1.019
 Vibration    15          0.778              1.439              0.912
 Vibration    16          0.784              1.423              0.886
 Vibration    17          0.820              1.333              0.759
 Vibration    18          0.855              1.251              0.659
 Vibration    19          0.915              1.119              0.524
 Vibration    20          0.922              1.104              0.511

                           ! Non-Optimized Parameters !
 Normal termination of Gaussian 16 at Thu Dec 10 21:19:06 2020.

 ----------------------------------------------------------------------
 # B3LYP/6-311++G(d,p) empiricaldispersion=gd3bj scf=xqc pop=npa geom=c
 heck
 ----------------------------------------------------------------------

 ---------------------------------------
 CID_135144531_JID_6089_Energie_neutraal
 ---------------------------------------
 Structure from the checkpoint file:  "JID_6089.chk"
 Charge =  0 Multiplicity = 1

 SCF Done:  E(RB3LYP) =  -745.742262380     A.U. after   15 cycles
 Normal termination of Gaussian 16 at Thu Dec 10 21:22:12 2020.

 ----------------------------------------------------------------------
 # B3LYP/6-311++G(d,p) empiricaldispersion=gd3bj scf=xqc pop=npa geom=c
 heck
 ----------------------------------------------------------------------

 -------------------------------------
 CID_135144531_JID_6089_Energie_kation
 -------------------------------------
 Structure from the checkpoint file:  "JID_6089.chk"
 Charge =  1 Multiplicity = 2

 SCF Done:  E(UB3LYP) =  -745.450806186     A.U. after   22 cycles
 Normal termination of Gaussian 16 at Thu Dec 10 21:28:37 2020.
 Gaussian 16:  ES64L-G16RevA.03 25-Dec-2016

 ----------------------------------------------------------------------
 # B3LYP/6-311++G(d,p) empiricaldispersion=gd3bj scf=xqc pop=npa geom=c
 heck
 ----------------------------------------------------------------------

 ------------------------------------
 CID_135144531_JID_6089_Energie_anion
 ------------------------------------
 Structure from the checkpoint file:  "JID_6089.chk"
 Charge = -1 Multiplicity = 2

                         Standard orientation:
 ---------------------------------------------------------------------
 Center     Atomic      Atomic             Coordinates (Angstroms)
 Number     Number       Type             X           Y           Z
 ---------------------------------------------------------------------
      1          6           0       -5.334907    1.175116    0.361846
      2          6           0       -4.986208   -0.208697   -0.208847
      3          6           0       -3.567415   -0.621490    0.110503
      4          8           0       -3.236136   -1.554229    0.799516
      5          8           0       -2.690809    0.245238   -0.493473
      6          6           0       -1.315038    0.127558   -0.320635
      7          6           0       -0.620490    1.330590   -0.176476
      8          6           0        0.761761    1.320663   -0.066826
      9          6           0        1.471411    0.106328   -0.097989
     10          6           0        0.751520   -1.087396   -0.249116
     11          6           0       -0.637550   -1.088590   -0.362954
     12          6           0        2.929889    0.084261    0.026825
     13          7           0        3.610091    1.162240    0.208650
     14          8           0        4.965275    0.869015    0.318541
     15          6           0        5.180242   -0.532900   -0.001127
     16          6           0        3.786094   -1.165806    0.014654
     17          1           0       -5.217016    1.190489    1.450442
     18          1           0       -6.373997    1.428550    0.130250
     19          1           0       -4.687598    1.946010   -0.064736
     20          1           0       -5.642812   -0.980264    0.200063
     21          1           0       -5.104073   -0.198357   -1.299075
     22          1           0       -1.179131    2.260512   -0.154939
     23          1           0        1.310996    2.248644    0.046154
     24          1           0        1.276749   -2.036812   -0.277680
     25          1           0       -1.180887   -2.017089   -0.469982
     26          1           0        5.647312   -0.588260   -0.991356
     27          1           0        5.866964   -0.939177    0.744655
     28          1           0        3.596479   -1.796241   -0.859228
     29          1           0        3.593890   -1.771701    0.909063
 ---------------------------------------------------------------------

 SCF Done:  E(UB3LYP) =  -745.746824198     A.U. after   28 cycles

 The electronic state is 2-A.
 Alpha  occ. eigenvalues --  -19.05405 -19.03251 -18.99281 -14.20417 -10.17859
 Alpha  occ. eigenvalues --  -10.11672 -10.09426 -10.08104 -10.07551 -10.07057
 Alpha  occ. eigenvalues --  -10.06755 -10.04732 -10.04654 -10.04497 -10.04362
 Alpha  occ. eigenvalues --  -10.03964  -0.98988  -0.96686  -0.91030  -0.74515
 Alpha  occ. eigenvalues --   -0.71701  -0.68551  -0.67052  -0.62646  -0.62065
 Alpha  occ. eigenvalues --   -0.56151  -0.52347  -0.51979  -0.48227  -0.45651
 Alpha  occ. eigenvalues --   -0.43316  -0.39459  -0.38821  -0.38576  -0.37365
 Alpha  occ. eigenvalues --   -0.35603  -0.34656  -0.34045  -0.33090  -0.30897
 Alpha  occ. eigenvalues --   -0.30599  -0.29987  -0.29134  -0.28356  -0.28280
 Alpha  occ. eigenvalues --   -0.26465  -0.25964  -0.25456  -0.24566  -0.24099
 Alpha  occ. eigenvalues --   -0.22930  -0.22163  -0.20461  -0.16405  -0.16058
 Alpha  occ. eigenvalues --   -0.14695  -0.13271  -0.09374   0.04203
 Alpha virt. eigenvalues --    0.06185   0.07323   0.08867   0.09436   0.09596
 Alpha virt. eigenvalues --    0.09843   0.10161   0.10836   0.11158   0.11704
 Alpha virt. eigenvalues --    0.12024   0.12631   0.13277   0.13754   0.14325

  Beta  occ. eigenvalues --  -19.05448 -19.03171 -18.99154 -14.19897 -10.17691
  Beta  occ. eigenvalues --  -10.11675 -10.09143 -10.08114 -10.07559 -10.07015
  Beta  occ. eigenvalues --  -10.06703 -10.04782 -10.04599 -10.04506 -10.04187
  Beta  occ. eigenvalues --  -10.03861  -0.98850  -0.96341  -0.90854  -0.74144
  Beta  occ. eigenvalues --   -0.71355  -0.68412  -0.66884  -0.62426  -0.61763
  Beta  occ. eigenvalues --   -0.55952  -0.52258  -0.51736  -0.48102  -0.45330
  Beta  occ. eigenvalues --   -0.43102  -0.39311  -0.38642  -0.38389  -0.37233
  Beta  occ. eigenvalues --   -0.35287  -0.34481  -0.33912  -0.32934  -0.30762
  Beta  occ. eigenvalues --   -0.30454  -0.29931  -0.28938  -0.28225  -0.28096
  Beta  occ. eigenvalues --   -0.25992  -0.25462  -0.25105  -0.24430  -0.23539
  Beta  occ. eigenvalues --   -0.22746  -0.21872  -0.20120  -0.16265  -0.15469
  Beta  occ. eigenvalues --   -0.13840  -0.12759  -0.07940
  Beta virt. eigenvalues --    0.06768   0.07258   0.08902   0.08974   0.09381
  Beta virt. eigenvalues --    0.09810   0.10020   0.10309   0.11205   0.11653
  Beta virt. eigenvalues --    0.12007   0.12360   0.12585   0.13295   0.13744

 Mulliken charges and spin densities:
               1          2
     1  C    0.180017  -0.597672
     2  C   -0.611428   0.234747
     3  C    0.231113  -0.133829
     4  O   -0.278946   0.045302
     5  O   -0.056343  -0.018449
     6  C   -0.464523   0.169353
     7  C    0.050129  -0.033290
     8  C   -0.285966   0.112970
     9  C    1.163480   0.036189
    10  C   -0.573296   0.070781
    11  C   -0.551704   0.025373
    12  C    0.229549  -0.010581
    13  N   -0.500691   0.249122
    14  O    0.177746   0.012354
    15  C   -0.511483  -0.002431
    16  C   -0.258284  -0.018127
    17  H    0.079542   0.056723
    18  H   -0.411073   0.557927
    19  H    0.128353   0.023956
    20  H    0.088625   0.062715
    21  H    0.051576   0.113603
    22  H    0.131904   0.002738
    23  H    0.198538  -0.006346
    24  H    0.110407  -0.002139
    25  H    0.199947  -0.004162
    26  H    0.137215   0.008869
    27  H    0.139171   0.003626
    28  H    0.094635   0.020861
    29  H    0.111793   0.019819
 Sum of Mulliken charges =  -1.00000   1.00000

 Dipole moment (field-independent basis, Debye):
    X=              1.9153    Y=             -2.8548    Z=             -1.2348  Tot=              3.6528
 Quadrupole moment (field-independent basis, Debye-Ang):
   XX=           -180.8751   YY=           -111.7416   ZZ=           -106.7058
   XY=            -13.7580   XZ=             -0.7202   YZ=              2.4937

 Summary of Natural Population Analysis:

                                       Natural Population
                Natural  -----------------------------------------------
    Atom  No    Charge         Core      Valence    Rydberg      Total
 -----------------------------------------------------------------------
      C    1   -0.28200      0.99966     2.27719    0.00515     3.28200
      C    2   -0.23668      0.99960     2.22818    0.00890     3.23668
      C    3    0.42748      0.99968     1.54809    0.02474     2.57252
      O    4   -0.29181      0.99987     3.28658    0.00537     4.29181
      O    5   -0.28862      0.99984     3.27971    0.00906     4.28862
      C    6    0.18703      0.99935     1.80252    0.01110     2.81297
      C    7   -0.12988      0.99953     2.12205    0.00830     3.12988
      C    8   -0.06201      0.99955     2.05431    0.00815     3.06201
      C    9   -0.02563      0.99948     2.01482    0.01134     3.02563
      C   10   -0.08282      0.99955     2.07567    0.00760     3.08282
      C   11   -0.12732      0.99953     2.11962    0.00817     3.12732
      C   12    0.08588      0.99959     1.90115    0.01338     2.91412
      N   13    0.01089      0.99961     2.47639    0.01311     3.48911
      O   14   -0.21806      0.99990     3.20677    0.01139     4.21806
      C   15   -0.02160      0.99963     2.01213    0.00983     3.02160
      C   16   -0.22703      0.99962     2.22158    0.00583     3.22703
      H   17    0.09734      0.00000     0.40174    0.00092     0.40266
      H   18    0.09836      0.00000     0.39988    0.00176     0.40164
      H   19    0.10301      0.00000     0.39590    0.00110     0.39699
      H   20    0.10379      0.00000     0.39509    0.00113     0.39621
      H   21    0.10705      0.00000     0.39179    0.00117     0.39295
      H   22    0.09928      0.00000     0.39974    0.00098     0.40072
      H   23    0.10544      0.00000     0.39351    0.00106     0.39456
      H   24    0.09236      0.00000     0.40643    0.00122     0.40764
      H   25    0.10670      0.00000     0.39196    0.00134     0.39330
      H   26    0.07894      0.00000     0.41956    0.00150     0.42106
      H   27    0.08460      0.00000     0.41419    0.00121     0.41540
      H   28    0.10384      0.00000     0.39482    0.00134     0.39616
      H   29    0.10152      0.00000     0.39705    0.00143     0.39848
 =======================================================================
   * Total *    0.00000     15.99399    41.82841    0.17759    58.00000

 Normal termination of Gaussian 16 at Thu Dec 10 21:36:18 2020.
