 Gaussian 16, Revision A.03,

 -----------------------------------------------------------
 # opt freq B3LYP/6-31G(d) empiricaldispersion=gd3bj scf=xqc
 -----------------------------------------------------------

 -----------------------------
 CID_59237753_JID_536_neutraal
 -----------------------------
 Symbolic Z-matrix:
 Charge =  0 Multiplicity = 1

 SCF Done:  E(RB3LYP) =  -451.246871426     A.U. after   14 cycles
 SCF Done:  E(RB3LYP) =  -451.252286259     A.U. after   12 cycles
 SCF Done:  E(RB3LYP) =  -451.253079300     A.U. after   11 cycles
 SCF Done:  E(RB3LYP) =  -451.253154325     A.U. after   11 cycles
 SCF Done:  E(RB3LYP) =  -451.253162877     A.U. after    9 cycles
 Optimization completed.
    -- Stationary point found.
 Normal termination of Gaussian 16 at Tue Dec  8 12:07:08 2020.

 --------------------------------------------------------------------
 #N Geom=AllCheck Guess=TCheck SCRF=Check GenChk RB3LYP/6-31G(d) Freq
 --------------------------------------------------------------------

 Structure from the checkpoint file:  "JID_536.chk"
 -----------------------------
 CID_59237753_JID_536_neutraal
 -----------------------------
 Charge =  0 Multiplicity = 1

 SCF Done:  E(RB3LYP) =  -451.253162877     A.U. after    1 cycles

  Exact polarizability: 143.581   6.851  78.342  -0.000   0.002  37.755
 Approx polarizability: 211.870  22.683 144.822   0.001   0.004  59.085

                      1                      2                      3
                      A                      A                      A
 Frequencies --     93.5220               122.1227               159.6443
 Red. masses --      5.3385                 4.0863                 4.8593
 Frc consts  --      0.0275                 0.0359                 0.0730
 IR Inten    --      2.8063                 8.1799                 4.8364

                      4                      5                      6
                      A                      A                      A
 Frequencies --    301.2529               397.8972               410.2882
 Red. masses --      3.2007                 2.4064                 7.9141
 Frc consts  --      0.1711                 0.2245                 0.7849
 IR Inten    --      3.2377                 1.6360                 0.2955

                      7                      8                      9
                      A                      A                      A
 Frequencies --    472.7525               606.0324               669.3170
 Red. masses --      6.2553                 2.3427                 1.5228
 Frc consts  --      0.8237                 0.5069                 0.4019
 IR Inten    --      9.8686                44.8572                48.3222

                     10                     11                     12
                      A                      A                      A
 Frequencies --    681.0921               740.6935               748.1774
 Red. masses --      5.2519                 1.7487                 1.6308
 Frc consts  --      1.4354                 0.5653                 0.5378
 IR Inten    --      8.4683                 7.0100                23.9288

                     13                     14                     15
                      A                      A                      A
 Frequencies --    812.0748               862.0772               877.7640
 Red. masses --      1.9205                 1.2938                 7.7790
 Frc consts  --      0.7462                 0.5665                 3.5313
 IR Inten    --     11.7119                 9.4794                 1.1371

                     16                     17                     18
                      A                      A                      A
 Frequencies --    894.2858               937.9348               941.3221
 Red. masses --      7.7815                 5.9621                 2.2505
 Frc consts  --      3.6666                 3.0903                 1.1749
 IR Inten    --     10.5997                 1.7489                 1.4301

                     19                     20                     21
                      A                      A                      A
 Frequencies --    964.5376               993.1294              1034.5412
 Red. masses --      4.7338                 1.8446                 3.9423
 Frc consts  --      2.5948                 1.0719                 2.4860
 IR Inten    --     25.5302                 5.7197                15.6905

                     22                     23                     24
                      A                      A                      A
 Frequencies --   1094.9609              1119.3786              1165.2149
 Red. masses --      1.8488                 1.4226                 1.1399
 Frc consts  --      1.3060                 1.0502                 0.9119
 IR Inten    --     43.9950                51.7441                 0.1284

                     25                     26                     27
                      A                      A                      A
 Frequencies --   1166.4772              1208.2197              1267.0509
 Red. masses --      4.0179                 2.0815                 2.1716
 Frc consts  --      3.2210                 1.7903                 2.0541
 IR Inten    --     52.3524                 8.4154                30.5707

                     28                     29                     30
                      A                      A                      A
 Frequencies --   1309.2736              1327.3314              1428.5464
 Red. masses --      1.8373                 1.9448                 2.6096
 Frc consts  --      1.8556                 2.0188                 3.1377
 IR Inten    --     69.3776                 3.5111                13.3532

                     31                     32                     33
                      A                      A                      A
 Frequencies --   1443.3450              1446.9985              1491.2781
 Red. masses --      1.5345                 2.4700                 3.9118
 Frc consts  --      1.8835                 3.0471                 5.1255
 IR Inten    --      0.0259                20.1569                88.3569

                     34                     35                     36
                      A                      A                      A
 Frequencies --   1565.2888              1634.2460              1697.6013
 Red. masses --      4.4123                 8.0862                10.0677
 Frc consts  --      6.3695                12.7242                17.0943
 IR Inten    --     10.9216                 0.1443               189.9709

                     37                     38                     39
                      A                      A                      A
 Frequencies --   3041.8011              3069.4473              3209.5010
 Red. masses --      1.0602                 1.1011                 1.0951
 Frc consts  --      5.7797                 6.1124                 6.6466
 IR Inten    --     11.2142                 3.7317                13.9600

                     40                     41                     42
                      A                      A                      A
 Frequencies --   3262.8718              3296.2160              3641.5956
 Red. masses --      1.0931                 1.1023                 1.0812
 Frc consts  --      6.8569                 7.0564                 8.4477
 IR Inten    --      9.2989                 2.7343                75.2071

 - Thermochemistry -
 -------------------
 Temperature   298.150 Kelvin.  Pressure   1.00000 Atm.
 Atom     1 has atomic number  6 and mass  12.00000

 Molecular mass:   134.05925 amu.
 Principal axes and moments of inertia in atomic units:
                           1         2         3
     Eigenvalues --   400.366192001.377172390.58426
           X            0.99997   0.00737  -0.00000
           Y           -0.00737   0.99997   0.00000
           Z            0.00000  -0.00000   1.00000
 This molecule is an asymmetric top.
 Rotational symmetry number  1.
 Rotational temperatures (Kelvin)      0.21634     0.04328     0.03623
 Rotational constants (GHZ):           4.50773     0.90175     0.75494
 Zero-point vibrational energy     320641.7 (Joules/Mol)
                                   76.63520 (Kcal/Mol)
 Warning -- explicit consideration of   8 degrees of freedom as
           vibrations may cause significant error
 Vibrational temperatures:    134.56   175.71   229.69   433.44   572.49
          (Kelvin)            590.31   680.19   871.95   963.00   979.94
                             1065.69  1076.46  1168.39  1240.34  1262.91
                             1286.68  1349.48  1354.35  1387.75  1428.89
                             1488.47  1575.40  1610.54  1676.48  1678.30
                             1738.36  1823.00  1883.75  1909.73  2055.36
                             2076.65  2081.91  2145.62  2252.10  2351.32
                             2442.47  4376.47  4416.25  4617.76  4694.54
                             4742.52  5239.44

 Zero-point correction=                           0.122126 (Hartree/Particle)
 Thermal correction to Energy=                    0.129521
 Thermal correction to Enthalpy=                  0.130465
 Thermal correction to Gibbs Free Energy=         0.089557
 Sum of electronic and zero-point Energies=           -451.131037
 Sum of electronic and thermal Energies=              -451.123642
 Sum of electronic and thermal Enthalpies=            -451.122698
 Sum of electronic and thermal Free Energies=         -451.163605

                     E (Thermal)             CV                S
                      KCal/Mol        Cal/Mol-Kelvin    Cal/Mol-Kelvin
 Total                   81.275             28.319             86.097
 Electronic               0.000              0.000              0.000
 Translational            0.889              2.981             40.592
 Rotational               0.889              2.981             29.039
 Vibrational             79.498             22.357             16.466
 Vibration     1          0.603              1.954              3.585
 Vibration     2          0.610              1.931              3.067
 Vibration     3          0.622              1.892              2.554
 Vibration     4          0.693              1.671              1.410
 Vibration     5          0.764              1.475              0.970
 Vibration     6          0.774              1.448              0.926
 Vibration     7          0.830              1.310              0.730
 Vibration     8          0.965              1.019              0.439

                           ! Non-Optimized Parameters !
 Normal termination of Gaussian 16 at Tue Dec  8 12:09:29 2020.

 ----------------------------------------------------------------------
 # B3LYP/6-311++G(d,p) empiricaldispersion=gd3bj scf=xqc pop=npa geom=c
 heck
 ----------------------------------------------------------------------

 -------------------------------------
 CID_59237753_JID_536_Energie_neutraal
 -------------------------------------
 Structure from the checkpoint file:  "JID_536.chk"
 Charge =  0 Multiplicity = 1

 SCF Done:  E(RB3LYP) =  -451.375490111     A.U. after   14 cycles
 Normal termination of Gaussian 16 at Tue Dec  8 12:10:24 2020.

 ----------------------------------------------------------------------
 # B3LYP/6-311++G(d,p) empiricaldispersion=gd3bj scf=xqc pop=npa geom=c
 heck
 ----------------------------------------------------------------------

 -----------------------------------
 CID_59237753_JID_536_Energie_kation
 -----------------------------------
 Structure from the checkpoint file:  "JID_536.chk"
 Charge =  1 Multiplicity = 2

 SCF Done:  E(UB3LYP) =  -451.066191060     A.U. after   20 cycles
 Normal termination of Gaussian 16 at Tue Dec  8 12:13:15 2020.
 Gaussian 16:  ES64L-G16RevA.03 25-Dec-2016

 ----------------------------------------------------------------------
 # B3LYP/6-311++G(d,p) empiricaldispersion=gd3bj scf=xqc pop=npa geom=c
 heck
 ----------------------------------------------------------------------

 ----------------------------------
 CID_59237753_JID_536_Energie_anion
 ----------------------------------
 Structure from the checkpoint file:  "JID_536.chk"
 Charge = -1 Multiplicity = 2

                         Standard orientation:
 ---------------------------------------------------------------------
 Center     Atomic      Atomic             Coordinates (Angstroms)
 Number     Number       Type             X           Y           Z
 ---------------------------------------------------------------------
      1          6           0       -2.840208   -0.619973    0.000139
      2          6           0       -2.600138    0.864989   -0.000206
      3          7           0       -1.341829    1.133516   -0.000081
      4          6           0       -0.714496   -0.168436   -0.000028
      5          7           0       -1.501409   -1.190558    0.000085
      6          6           0        0.736142   -0.174600   -0.000009
      7          7           0        1.570562   -1.204930    0.000019
      8          6           0        2.822998   -0.655363   -0.000265
      9          6           0        2.755862    0.725605    0.000233
     10          7           0        1.418834    1.017466    0.000064
     11          1           0       -3.408875   -0.953234   -0.880164
     12          1           0       -3.408701   -0.952901    0.880688
     13          1           0       -3.358455    1.643747   -0.000249
     14          1           0        3.709177   -1.275220   -0.000457
     15          1           0        3.514461    1.493303    0.000436
     16          1           0        0.968329    1.922526   -0.000041
 ---------------------------------------------------------------------

 SCF Done:  E(UB3LYP) =  -451.382140179     A.U. after   23 cycles

 The electronic state is 2-A.
 Alpha  occ. eigenvalues --  -14.21006 -14.13699 -14.13345 -14.09945 -10.07034
 Alpha  occ. eigenvalues --  -10.05847 -10.04479 -10.03887 -10.03188 -10.02064
 Alpha  occ. eigenvalues --   -0.86796  -0.80670  -0.72372  -0.67456  -0.61639
 Alpha  occ. eigenvalues --   -0.55372  -0.47079  -0.46256  -0.43040  -0.41208
 Alpha  occ. eigenvalues --   -0.34573  -0.31225  -0.30308  -0.29833  -0.29012
 Alpha  occ. eigenvalues --   -0.28523  -0.24603  -0.22664  -0.18808  -0.14489
 Alpha  occ. eigenvalues --   -0.12691  -0.12283  -0.12256  -0.08941  -0.07757
 Alpha  occ. eigenvalues --    0.05969
 Alpha virt. eigenvalues --    0.08870   0.10122   0.11033   0.12110   0.13000
 Alpha virt. eigenvalues --    0.13243   0.14138   0.16738   0.16963   0.16988
 Alpha virt. eigenvalues --    0.17435   0.18901   0.20032   0.20050   0.20410

  Beta  occ. eigenvalues --  -14.20828 -14.13546 -14.13335 -14.09298 -10.07024
  Beta  occ. eigenvalues --  -10.05810 -10.04510 -10.03736 -10.03281 -10.01550
  Beta  occ. eigenvalues --   -0.86576  -0.80054  -0.72075  -0.66672  -0.61343
  Beta  occ. eigenvalues --   -0.54914  -0.46824  -0.46016  -0.42819  -0.40478
  Beta  occ. eigenvalues --   -0.34226  -0.30880  -0.29756  -0.29297  -0.28891
  Beta  occ. eigenvalues --   -0.27746  -0.24200  -0.22313  -0.17498  -0.13624
  Beta  occ. eigenvalues --   -0.12406  -0.12038  -0.10593  -0.08328  -0.05956
  Beta virt. eigenvalues --    0.08834   0.10087   0.10997   0.12142   0.12553
  Beta virt. eigenvalues --    0.13216   0.13290   0.15369   0.16955   0.16983
  Beta virt. eigenvalues --    0.17397   0.17584   0.18888   0.19999   0.20358

 Mulliken charges and spin densities:
               1          2
     1  C   -0.106923  -0.093769
     2  C   -0.069331   0.393495
     3  N   -0.225397  -0.014423
     4  C   -0.404431   0.112801
     5  N   -0.195193   0.317945
     6  C   -0.326477  -0.001505
     7  N   -0.178289   0.068428
     8  C    0.129732  -0.017328
     9  C   -0.212665   0.059186
    10  N   -0.136427   0.049296
    11  H    0.061761   0.078135
    12  H    0.061568   0.078376
    13  H    0.097332  -0.025342
    14  H    0.123610   0.001074
    15  H    0.105060  -0.002660
    16  H    0.276068  -0.003706
 Sum of Mulliken charges =  -1.00000   1.00000

 Dipole moment (field-independent basis, Debye):
    X=              2.0434    Y=              3.8290    Z=             -0.0001  Tot=              4.3401
 Quadrupole moment (field-independent basis, Debye-Ang):
   XX=            -76.4105   YY=            -73.7353   ZZ=            -65.9001
   XY=              2.7191   XZ=              0.0008   YZ=              0.0026

 Summary of Natural Population Analysis:

                                       Natural Population
                Natural  -----------------------------------------------
    Atom  No    Charge         Core      Valence    Rydberg      Total
 -----------------------------------------------------------------------
      C    1   -0.15135      0.99965     2.14093    0.01077     3.15135
      C    2    0.14146      0.99967     1.84208    0.01678     2.85854
      N    3   -0.28207      0.99970     2.77114    0.01123     3.78207
      C    4    0.17125      0.99957     1.80958    0.01960     2.82875
      N    5   -0.14054      0.99968     2.62989    0.01098     3.64054
      C    6    0.17017      0.99958     1.81133    0.01892     2.82983
      N    7   -0.22631      0.99970     2.71591    0.01070     3.72631
      C    8   -0.05334      0.99961     2.03816    0.01557     3.05334
      C    9   -0.05542      0.99962     2.04254    0.01327     3.05542
      N   10   -0.24319      0.99962     2.73527    0.00830     3.74319
      H   11    0.10774      0.00000     0.39062    0.00165     0.39226
      H   12    0.10775      0.00000     0.39060    0.00165     0.39225
      H   13    0.06864      0.00000     0.42999    0.00137     0.43136
      H   14    0.08622      0.00000     0.41268    0.00110     0.41378
      H   15    0.09151      0.00000     0.40736    0.00112     0.40849
      H   16    0.20775      0.00000     0.28993    0.00232     0.29225
 =======================================================================
   * Total *    0.00027      9.99640    24.85801    0.14532    34.99973

 Normal termination of Gaussian 16 at Tue Dec  8 12:17:06 2020.
