 Gaussian 16, Revision A.03,

 -----------------------------------------------------------
 # opt freq B3LYP/6-31G(d) empiricaldispersion=gd3bj scf=xqc
 -----------------------------------------------------------

 ------------------------------
 CID_85554456_JID_5276_neutraal
 ------------------------------
 Symbolic Z-matrix:
 Charge =  0 Multiplicity = 1

 SCF Done:  E(RB3LYP) =  -640.477929813     A.U. after   15 cycles
 SCF Done:  E(RB3LYP) =  -640.481123939     A.U. after   12 cycles
 SCF Done:  E(RB3LYP) =  -640.481666876     A.U. after   13 cycles
 SCF Done:  E(RB3LYP) =  -640.482468827     A.U. after   12 cycles
 SCF Done:  E(RB3LYP) =  -640.482540991     A.U. after   11 cycles
 SCF Done:  E(RB3LYP) =  -640.482650442     A.U. after   11 cycles
 SCF Done:  E(RB3LYP) =  -640.482663708     A.U. after   11 cycles
 SCF Done:  E(RB3LYP) =  -640.482673105     A.U. after    9 cycles
 SCF Done:  E(RB3LYP) =  -640.482673341     A.U. after    8 cycles
 SCF Done:  E(RB3LYP) =  -640.482673301     A.U. after    7 cycles
 Optimization completed.
    -- Stationary point found.
 Normal termination of Gaussian 16 at Thu Dec 10 15:19:43 2020.

 --------------------------------------------------------------------
 #N Geom=AllCheck Guess=TCheck SCRF=Check GenChk RB3LYP/6-31G(d) Freq
 --------------------------------------------------------------------

 Structure from the checkpoint file:  "JID_5276.chk"
 ------------------------------
 CID_85554456_JID_5276_neutraal
 ------------------------------
 Charge =  0 Multiplicity = 1

 SCF Done:  E(RB3LYP) =  -640.482673301     A.U. after    1 cycles

  Exact polarizability: 186.842  -2.226 131.384   7.656   3.443 119.554
 Approx polarizability: 221.057  -3.242 196.944  17.573  -0.815 185.069

                      1                      2                      3
                      A                      A                      A
 Frequencies --     22.0051                34.0081                39.5509
 Red. masses --      3.6134                 3.2273                 3.7198
 Frc consts  --      0.0010                 0.0022                 0.0034
 IR Inten    --      0.5170                 0.0611                 0.4617

                      4                      5                      6
                      A                      A                      A
 Frequencies --     63.7650                68.9245                85.7890
 Red. masses --      3.0529                 3.6104                 3.1212
 Frc consts  --      0.0073                 0.0101                 0.0135
 IR Inten    --      0.1955                 0.0454                 1.2177

                      7                      8                      9
                      A                      A                      A
 Frequencies --     93.9070               110.4832               118.7905
 Red. masses --      3.3314                 3.8775                 2.8280
 Frc consts  --      0.0173                 0.0279                 0.0235
 IR Inten    --      0.5329                 6.1250                 0.8073

                     10                     11                     12
                      A                      A                      A
 Frequencies --    141.0217               178.5579               190.0708
 Red. masses --      2.2766                 1.8630                 1.1243
 Frc consts  --      0.0267                 0.0350                 0.0239
 IR Inten    --      0.5602                 1.6863                 0.1269

                     13                     14                     15
                      A                      A                      A
 Frequencies --    236.8918               247.3622               300.8308
 Red. masses --      1.6474                 2.2456                 1.8372
 Frc consts  --      0.0545                 0.0810                 0.0980
 IR Inten    --      0.6230                 0.1838                 1.3198

                     16                     17                     18
                      A                      A                      A
 Frequencies --    316.1449               333.7016               361.1648
 Red. masses --      2.5893                 2.3558                 2.1860
 Frc consts  --      0.1525                 0.1546                 0.1680
 IR Inten    --      4.3684                 0.3172                 3.2498

                     19                     20                     21
                      A                      A                      A
 Frequencies --    375.9295               399.1239               420.2120
 Red. masses --      2.0330                 1.9742                 2.3252
 Frc consts  --      0.1693                 0.1853                 0.2419
 IR Inten    --      0.6860                 1.8631                 6.3351

                     22                     23                     24
                      A                      A                      A
 Frequencies --    447.7349               462.6688               519.6358
 Red. masses --      2.1864                 2.0528                 2.2195
 Frc consts  --      0.2582                 0.2589                 0.3531
 IR Inten    --      4.3072                 2.5769                 1.5293

                     25                     26                     27
                      A                      A                      A
 Frequencies --    561.3692               578.0827               602.8521
 Red. masses --      2.4186                 2.4220                 3.0137
 Frc consts  --      0.4491                 0.4769                 0.6453
 IR Inten    --      0.6177                 1.0897                 8.6314

                     28                     29                     30
                      A                      A                      A
 Frequencies --    651.5314               715.4555               739.1497
 Red. masses --      2.0977                 1.2845                 1.6167
 Frc consts  --      0.5246                 0.3874                 0.5204
 IR Inten    --     17.1217                21.5752                 1.6504

                     31                     32                     33
                      A                      A                      A
 Frequencies --    774.2060               788.3694               821.5668
 Red. masses --      2.7142                 1.7071                 2.4688
 Frc consts  --      0.9585                 0.6251                 0.9818
 IR Inten    --      2.4538                 3.4461                 1.9563

                     34                     35                     36
                      A                      A                      A
 Frequencies --    854.4838               886.7928               917.9334
 Red. masses --      1.6294                 2.0779                 1.6691
 Frc consts  --      0.7010                 0.9628                 0.8286
 IR Inten    --      3.6607                 1.1063                 2.2842

                     37                     38                     39
                      A                      A                      A
 Frequencies --    927.2120               946.6092               951.5589
 Red. masses --      1.5890                 1.4618                 2.0032
 Frc consts  --      0.8049                 0.7717                 1.0687
 IR Inten    --      7.7525                26.5127                10.8635

                     40                     41                     42
                      A                      A                      A
 Frequencies --    970.2322               985.0526              1000.0639
 Red. masses --      1.7639                 1.6510                 1.5844
 Frc consts  --      0.9783                 0.9439                 0.9336
 IR Inten    --      2.7846                 4.8029                12.9848

                     43                     44                     45
                      A                      A                      A
 Frequencies --   1005.7789              1031.5076              1043.9283
 Red. masses --      2.0226                 1.1248                 1.6151
 Frc consts  --      1.2055                 0.7051                 1.0371
 IR Inten    --      0.8434                 7.2293                14.8815

                     46                     47                     48
                      A                      A                      A
 Frequencies --   1060.2766              1066.4899              1075.8939
 Red. masses --      1.5105                 1.7049                 1.9127
 Frc consts  --      1.0005                 1.1425                 1.3045
 IR Inten    --      7.7751                 4.2719                 1.1454

                     49                     50                     51
                      A                      A                      A
 Frequencies --   1089.7956              1118.7577              1140.3771
 Red. masses --      1.5549                 2.1594                 1.8811
 Frc consts  --      1.0881                 1.5924                 1.4413
 IR Inten    --      4.7785                 0.5096                 9.1688

                     52                     53                     54
                      A                      A                      A
 Frequencies --   1151.2111              1173.9096              1197.7678
 Red. masses --      1.9925                 2.0372                 1.8834
 Frc consts  --      1.5558                 1.6541                 1.5920
 IR Inten    --      1.0300                 4.7889                14.2031

                     55                     56                     57
                      A                      A                      A
 Frequencies --   1219.3309              1234.0889              1271.7608
 Red. masses --      1.3703                 1.6143                 1.4986
 Frc consts  --      1.2004                 1.4486                 1.4281
 IR Inten    --      7.5947                 7.3657                52.9085

                     58                     59                     60
                      A                      A                      A
 Frequencies --   1280.5822              1305.9829              1322.8920
 Red. masses --      1.4344                 1.4155                 1.3529
 Frc consts  --      1.3859                 1.4224                 1.3949
 IR Inten    --     30.1732                 2.1739                20.0412

                     61                     62                     63
                      A                      A                      A
 Frequencies --   1330.3808              1334.1643              1356.9649
 Red. masses --      1.2366                 1.1787                 1.1119
 Frc consts  --      1.2895                 1.2362                 1.2063
 IR Inten    --      3.3948                 8.3740                 2.0248

                     64                     65                     66
                      A                      A                      A
 Frequencies --   1375.9499              1383.8881              1389.4588
 Red. masses --      1.3723                 1.3342                 1.4952
 Frc consts  --      1.5307                 1.5055                 1.7007
 IR Inten    --     29.4686                 8.9471                11.5963

                     67                     68                     69
                      A                      A                      A
 Frequencies --   1400.4603              1407.6035              1415.6369
 Red. masses --      1.3404                 1.4483                 1.2899
 Frc consts  --      1.5490                 1.6908                 1.5231
 IR Inten    --      2.6914                 0.7799                 6.3107

                     70                     71                     72
                      A                      A                      A
 Frequencies --   1419.0120              1427.0300              1433.2629
 Red. masses --      1.3436                 1.4254                 1.3931
 Frc consts  --      1.5940                 1.7102                 1.6861
 IR Inten    --      4.9278                11.9319                 1.3402

                     73                     74                     75
                      A                      A                      A
 Frequencies --   1443.3060              1470.0352              1477.9528
 Red. masses --      1.2750                 2.1965                 1.1979
 Frc consts  --      1.5649                 2.7967                 1.5417
 IR Inten    --      6.7474               133.1124                 7.3980

                     76                     77                     78
                      A                      A                      A
 Frequencies --   1500.5151              1505.7706              1512.7420
 Red. masses --      1.0651                 1.0791                 1.0741
 Frc consts  --      1.4129                 1.4415                 1.4482
 IR Inten    --     20.5606                 0.7904                10.5855

                     79                     80                     81
                      A                      A                      A
 Frequencies --   1516.9963              1519.6370              1520.9397
 Red. masses --      1.0929                 1.0496                 1.0698
 Frc consts  --      1.4818                 1.4280                 1.4580
 IR Inten    --      3.4537                 8.2307                 0.3026

                     82                     83                     84
                      A                      A                      A
 Frequencies --   1523.9582              1531.1714              1533.3796
 Red. masses --      1.0678                 1.1544                 1.0844
 Frc consts  --      1.4611                 1.5947                 1.5023
 IR Inten    --      8.7335                21.3100                 4.6390

                     85                     86                     87
                      A                      A                      A
 Frequencies --   1535.4577              1541.9956              1550.0376
 Red. masses --      1.0778                 1.0609                 1.0896
 Frc consts  --      1.4972                 1.4863                 1.5424
 IR Inten    --      4.3155                 0.3608                 3.4742

                     88                     89                     90
                      A                      A                      A
 Frequencies --   1731.1844              1758.4154              3022.5241
 Red. masses --      4.4819                 9.1264                 1.0630
 Frc consts  --      7.9140                16.6263                 5.7215
 IR Inten    --      2.6999               290.4245                21.4818

                     91                     92                     93
                      A                      A                      A
 Frequencies --   3026.8134              3031.3905              3035.4736
 Red. masses --      1.0664                 1.0649                 1.0676
 Frc consts  --      5.7565                 5.7653                 5.7958
 IR Inten    --      7.2920                51.6199                29.6868

                     94                     95                     96
                      A                      A                      A
 Frequencies --   3038.8566              3040.6445              3045.0932
 Red. masses --      1.0656                 1.0608                 1.0429
 Frc consts  --      5.7979                 5.7784                 5.6977
 IR Inten    --      7.0484                66.7966                13.7264

                     97                     98                     99
                      A                      A                      A
 Frequencies --   3047.3311              3055.6561              3059.8571
 Red. masses --      1.0732                 1.0919                 1.0435
 Frc consts  --      5.8718                 6.0065                 5.7561
 IR Inten    --      8.9095                27.3588                 5.1526

                    100                    101                    102
                      A                      A                      A
 Frequencies --   3062.9943              3064.5650              3068.5186
 Red. masses --      1.0656                 1.0966                 1.0979
 Frc consts  --      5.8903                 6.0677                 6.0906
 IR Inten    --     14.4115                38.7483                23.5978

                    103                    104                    105
                      A                      A                      A
 Frequencies --   3073.5856              3080.4042              3107.1182
 Red. masses --      1.0976                 1.0985                 1.0961
 Frc consts  --      6.1091                 6.1414                 6.2350
 IR Inten    --    164.1354                47.2573                15.1071

                    106                    107                    108
                      A                      A                      A
 Frequencies --   3108.2788              3111.5391              3117.8379
 Red. masses --      1.1005                 1.0987                 1.1018
 Frc consts  --      6.2645                 6.2670                 6.3103
 IR Inten    --     47.6935                12.5254                51.2516

                    109                    110                    111
                      A                      A                      A
 Frequencies --   3127.5217              3154.6425              3160.4303
 Red. masses --      1.0972                 1.0605                 1.0910
 Frc consts  --      6.3232                 6.2181                 6.4206
 IR Inten    --      7.9025                16.0767                 8.4502

                    112                    113                    114
                      A                      A                      A
 Frequencies --   3164.0242              3180.8333              3239.3276
 Red. masses --      1.0912                 1.1015                 1.1152
 Frc consts  --      6.4360                 6.5660                 6.8949
 IR Inten    --      5.2499                 5.9540                16.2841

 - Thermochemistry -
 -------------------
 Temperature   298.150 Kelvin.  Pressure   1.00000 Atm.
 Atom     1 has atomic number  6 and mass  12.00000

 Molecular mass:   211.19361 amu.
 Principal axes and moments of inertia in atomic units:
                           1         2         3
     Eigenvalues --  1310.670648143.338388786.22109
           X            1.00000  -0.00172   0.00235
           Y            0.00163   0.99937   0.03550
           Z           -0.00241  -0.03550   0.99937
 This molecule is an asymmetric top.
 Rotational symmetry number  1.
 Warning -- assumption of classical behavior for rotation
           may cause significant error
 Rotational temperatures (Kelvin)      0.06608     0.01064     0.00986
 Rotational constants (GHZ):           1.37696     0.22162     0.20541
 Zero-point vibrational energy     963614.1 (Joules/Mol)
                                  230.30930 (Kcal/Mol)
 Warning -- explicit consideration of  27 degrees of freedom as
           vibrations may cause significant error
 Vibrational temperatures:     31.66    48.93    56.90    91.74    99.17
          (Kelvin)            123.43   135.11   158.96   170.91   202.90
                              256.90   273.47   340.83   355.90   432.83
                              454.86   480.12   519.64   540.88   574.25
                              604.59   644.19   665.68   747.64   807.69
                              831.73   867.37   937.41  1029.38  1063.47
                             1113.91  1134.29  1182.05  1229.41  1275.90
                             1320.70  1334.05  1361.96  1369.08  1395.95
                             1417.27  1438.87  1447.09  1484.11  1501.98
                             1525.50  1534.44  1547.97  1567.97  1609.64
                             1640.75  1656.34  1688.99  1723.32  1754.35
                             1775.58  1829.78  1842.47  1879.02  1903.35
                             1914.12  1919.56  1952.37  1979.69  1991.11
                             1999.12  2014.95  2025.23  2036.79  2041.64
                             2053.18  2062.15  2076.60  2115.05  2126.44
                             2158.91  2166.47  2176.50  2182.62  2186.42
                             2188.29  2192.64  2203.01  2206.19  2209.18
                             2218.59  2230.16  2490.79  2529.97  4348.74
                             4354.91  4361.49  4367.37  4372.24  4374.81
                             4381.21  4384.43  4396.41  4402.45  4406.97
                             4409.23  4414.91  4422.20  4432.01  4470.45
                             4472.12  4476.81  4485.87  4499.81  4538.83
                             4547.15  4552.33  4576.51  4660.67

 Zero-point correction=                           0.367021 (Hartree/Particle)
 Thermal correction to Energy=                    0.385110
 Thermal correction to Enthalpy=                  0.386054
 Thermal correction to Gibbs Free Energy=         0.319064
 Sum of electronic and zero-point Energies=           -640.115652
 Sum of electronic and thermal Energies=              -640.097563
 Sum of electronic and thermal Enthalpies=            -640.096619
 Sum of electronic and thermal Free Energies=         -640.163609

                     E (Thermal)             CV                S
                      KCal/Mol        Cal/Mol-Kelvin    Cal/Mol-Kelvin
 Total                  241.660             66.275            140.992
 Electronic               0.000              0.000              0.000
 Translational            0.889              2.981             41.946
 Rotational               0.889              2.981             32.905
 Vibrational            239.883             60.313             66.140
 Vibration     1          0.593              1.985              6.444
 Vibration     2          0.594              1.983              5.581
 Vibration     3          0.594              1.981              5.281
 Vibration     4          0.597              1.972              4.337
 Vibration     5          0.598              1.969              4.184
 Vibration     6          0.601              1.959              3.754
 Vibration     7          0.603              1.954              3.577
 Vibration     8          0.606              1.941              3.260
 Vibration     9          0.609              1.934              3.120
 Vibration    10          0.615              1.912              2.790
 Vibration    11          0.629              1.869              2.343
 Vibration    12          0.633              1.854              2.227
 Vibration    13          0.656              1.784              1.826
 Vibration    14          0.661              1.767              1.749
 Vibration    15          0.693              1.672              1.412
 Vibration    16          0.703              1.643              1.330
 Vibration    17          0.715              1.608              1.242
 Vibration    18          0.735              1.552              1.117
 Vibration    19          0.747              1.521              1.056
 Vibration    20          0.765              1.472              0.966
 Vibration    21          0.783              1.426              0.891
 Vibration    22          0.807              1.366              0.803
 Vibration    23          0.820              1.333              0.758
 Vibration    24          0.875              1.207              0.611
 Vibration    25          0.917              1.115              0.521
 Vibration    26          0.935              1.079              0.489
 Vibration    27          0.961              1.026              0.445

 Optimization completed.
    -- Stationary point found.
 Normal termination of Gaussian 16 at Thu Dec 10 15:32:45 2020.

 ----------------------------------------------------------------------
 # B3LYP/6-311++G(d,p) empiricaldispersion=gd3bj scf=xqc pop=npa geom=c
 heck
 ----------------------------------------------------------------------

 --------------------------------------
 CID_85554456_JID_5276_Energie_neutraal
 --------------------------------------
 Structure from the checkpoint file:  "JID_5276.chk"
 Charge =  0 Multiplicity = 1

 SCF Done:  E(RB3LYP) =  -640.665705930     A.U. after   14 cycles
 Normal termination of Gaussian 16 at Thu Dec 10 15:43:24 2020.

 ----------------------------------------------------------------------
 # B3LYP/6-311++G(d,p) empiricaldispersion=gd3bj scf=xqc pop=npa geom=c
 heck
 ----------------------------------------------------------------------

 ------------------------------------
 CID_85554456_JID_5276_Energie_kation
 ------------------------------------
 Structure from the checkpoint file:  "JID_5276.chk"
 Charge =  1 Multiplicity = 2

 SCF Done:  E(UB3LYP) =  -640.350865394     A.U. after   29 cycles
 Normal termination of Gaussian 16 at Thu Dec 10 16:15:40 2020.
 Gaussian 16:  ES64L-G16RevA.03 25-Dec-2016

 ----------------------------------------------------------------------
 # B3LYP/6-311++G(d,p) empiricaldispersion=gd3bj scf=xqc pop=npa geom=c
 heck
 ----------------------------------------------------------------------

 -----------------------------------
 CID_85554456_JID_5276_Energie_anion
 -----------------------------------
 Structure from the checkpoint file:  "JID_5276.chk"
 Charge = -1 Multiplicity = 2

                         Standard orientation:
 ---------------------------------------------------------------------
 Center     Atomic      Atomic             Coordinates (Angstroms)
 Number     Number       Type             X           Y           Z
 ---------------------------------------------------------------------
      1          6           0       -5.528810    0.801023    0.326562
      2          6           0       -4.698773   -0.421143    0.730090
      3          6           0       -3.824053   -0.980755   -0.402130
      4          6           0       -2.793653    0.004880   -0.976912
      5          6           0       -1.813216    0.597626    0.046871
      6          6           0       -1.007850   -0.437144    0.849854
      7          6           0       -0.191795   -1.427152    0.008228
      8          6           0        0.890621   -0.781283   -0.867442
      9          7           0        1.893524   -0.040568   -0.098887
     10          6           0        2.908259   -0.826127    0.604063
     11          6           0        4.146249   -1.062000   -0.223452
     12          6           0        5.388594   -0.833700    0.200723
     13          6           0        1.938019    1.331243   -0.195233
     14          8           0        1.132887    1.965721   -0.872047
     15          6           0        3.024270    2.042419    0.596651
     16          1           0       -4.892477    1.654127    0.067151
     17          1           0       -6.189094    1.117788    1.141725
     18          1           0       -6.156688    0.579487   -0.545569
     19          1           0       -4.069166   -0.164206    1.592061
     20          1           0       -5.372538   -1.216545    1.075513
     21          1           0       -3.307556   -1.878425   -0.036158
     22          1           0       -4.476887   -1.320578   -1.218645
     23          1           0       -2.232443   -0.503873   -1.772351
     24          1           0       -3.316390    0.831898   -1.473822
     25          1           0       -1.119801    1.269702   -0.469059
     26          1           0       -2.366507    1.223755    0.759273
     27          1           0       -0.326034    0.097419    1.523974
     28          1           0       -1.682101   -1.013808    1.496296
     29          1           0        0.270620   -2.165948    0.677680
     30          1           0       -0.853236   -2.000530   -0.653631
     31          1           0        1.401815   -1.558425   -1.451623
     32          1           0        0.451288   -0.072970   -1.569849
     33          1           0        3.171497   -0.349157    1.552260
     34          1           0        2.445181   -1.785641    0.862327
     35          1           0        3.974372   -1.440043   -1.231017
     36          1           0        6.254332   -1.026192   -0.426395
     37          1           0        5.587022   -0.451000    1.200148
     38          1           0        2.888664    1.896668    1.674910
     39          1           0        4.022596    1.680665    0.332750
     40          1           0        2.948609    3.106706    0.373394
 ---------------------------------------------------------------------

 SCF Done:  E(UB3LYP) =  -640.653013525     A.U. after   33 cycles
 SCF Done:  E(UB3LYP) =  -640.653013525     a.u. after    1 cycles

 The electronic state is 2-A.
 Alpha  occ. eigenvalues --  -18.99204 -14.24906 -10.17913 -10.12237 -10.10667
 Alpha  occ. eigenvalues --  -10.09277 -10.08145 -10.07998 -10.07550 -10.07297
 Alpha  occ. eigenvalues --  -10.07257 -10.07142 -10.06881 -10.06664 -10.06048
 Alpha  occ. eigenvalues --   -0.94412  -0.84607  -0.72286  -0.70614  -0.69118
 Alpha  occ. eigenvalues --   -0.66164  -0.63989  -0.61314  -0.59979  -0.56923
 Alpha  occ. eigenvalues --   -0.53227  -0.49019  -0.48764  -0.45499  -0.44036
 Alpha  occ. eigenvalues --   -0.40668  -0.39796  -0.38721  -0.37988  -0.37439
 Alpha  occ. eigenvalues --   -0.36533  -0.35217  -0.34351  -0.34017  -0.32039
 Alpha  occ. eigenvalues --   -0.31677  -0.31406  -0.31151  -0.30248  -0.29412
 Alpha  occ. eigenvalues --   -0.28551  -0.27923  -0.27490  -0.26676  -0.26577
 Alpha  occ. eigenvalues --   -0.25019  -0.24623  -0.24230  -0.22206  -0.21570
 Alpha  occ. eigenvalues --   -0.21289  -0.18630  -0.16313  -0.15244   0.04040
 Alpha virt. eigenvalues --    0.05487   0.06494   0.06784   0.07438   0.07658
 Alpha virt. eigenvalues --    0.07850   0.08486   0.09067   0.09495   0.09608
 Alpha virt. eigenvalues --    0.10152   0.10795   0.10885   0.11063   0.11471

  Beta  occ. eigenvalues --  -18.99200 -14.24905 -10.17910 -10.12208 -10.10657
  Beta  occ. eigenvalues --  -10.09264 -10.08110 -10.07976 -10.07536 -10.07275
  Beta  occ. eigenvalues --  -10.07240 -10.07129 -10.06876 -10.06652 -10.06045
  Beta  occ. eigenvalues --   -0.94406  -0.84596  -0.72264  -0.70581  -0.69089
  Beta  occ. eigenvalues --   -0.66140  -0.63957  -0.61272  -0.59940  -0.56891
  Beta  occ. eigenvalues --   -0.53189  -0.48975  -0.48687  -0.45460  -0.43996
  Beta  occ. eigenvalues --   -0.40632  -0.39770  -0.38693  -0.37962  -0.37406
  Beta  occ. eigenvalues --   -0.36484  -0.35175  -0.34324  -0.33979  -0.32016
  Beta  occ. eigenvalues --   -0.31657  -0.31381  -0.31134  -0.30228  -0.29387
  Beta  occ. eigenvalues --   -0.28525  -0.27889  -0.27468  -0.26645  -0.26554
  Beta  occ. eigenvalues --   -0.24991  -0.24597  -0.24204  -0.22190  -0.21546
  Beta  occ. eigenvalues --   -0.21268  -0.18592  -0.16300  -0.15230
  Beta virt. eigenvalues --    0.05862   0.06466   0.07071   0.07378   0.07718
  Beta virt. eigenvalues --    0.07841   0.08231   0.08844   0.09440   0.09812
  Beta virt. eigenvalues --    0.09949   0.10309   0.10949   0.11026   0.11431

 Mulliken charges and spin densities:
               1          2
     1  C    0.272193  -0.916230
     2  C   -0.393937   0.226969
     3  C    0.073517  -0.346339
     4  C   -0.131663  -0.101402
     5  C    0.027765  -0.353475
     6  C    0.102383  -0.183286
     7  C    0.222551  -0.510775
     8  C   -0.656797   0.070870
     9  N    0.218991   0.033464
    10  C    1.605288  -2.162170
    11  C   -1.908095   2.358878
    12  C    1.628272  -2.272936
    13  C   -0.181479   0.197763
    14  O   -0.329059   0.005203
    15  C    0.293363  -0.831484
    16  H    0.052656   0.084129
    17  H   -0.086410   0.218937
    18  H   -0.002860   0.133263
    19  H    0.096532   0.034109
    20  H   -0.285175   0.437335
    21  H    0.050658   0.095395
    22  H   -0.091493   0.239055
    23  H    0.041266   0.107322
    24  H    0.146447   0.008402
    25  H    0.253340  -0.045790
    26  H    0.022044   0.128602
    27  H    0.126476   0.055667
    28  H   -0.087439   0.250946
    29  H   -0.306127   0.459147
    30  H   -0.105967   0.242614
    31  H   -0.099662   0.255537
    32  H    0.091835   0.121201
    33  H   -0.362754   0.532104
    34  H   -0.231480   0.381427
    35  H   -0.410066   0.586181
    36  H   -0.311139   0.451643
    37  H   -0.370659   0.505482
    38  H   -0.165923   0.337739
    39  H    0.023357   0.157507
    40  H    0.169251   0.006997
 Sum of Mulliken charges =  -1.00000   1.00000

 Dipole moment (field-independent basis, Debye):
    X=             -2.8254    Y=              2.1677    Z=             -1.6679  Tot=              3.9324
 Quadrupole moment (field-independent basis, Debye-Ang):
   XX=           -214.0394   YY=           -140.4662   ZZ=           -133.0681
   XY=              4.0022   XZ=             -1.4206   YZ=              3.6737

 Summary of Natural Population Analysis:

                                       Natural Population
                Natural  -----------------------------------------------
    Atom  No    Charge         Core      Valence    Rydberg      Total
 -----------------------------------------------------------------------
      C    1   -0.28673      0.99967     2.28255    0.00451     3.28673
      C    2   -0.19310      0.99964     2.18531    0.00815     3.19310
      C    3   -0.19193      0.99963     2.18314    0.00917     3.19193
      C    4   -0.19156      0.99963     2.18482    0.00711     3.19156
      C    5   -0.20115      0.99962     2.19403    0.00750     3.20115
      C    6   -0.19296      0.99962     2.18434    0.00900     3.19296
      C    7   -0.19606      0.99962     2.18761    0.00883     3.19606
      C    8   -0.08837      0.99959     2.07748    0.01129     3.08837
      N    9   -0.25924      0.99964     2.74733    0.01227     3.75924
      C   10   -0.10552      0.99957     2.09310    0.01285     3.10552
      C   11   -0.09094      0.99955     2.08119    0.01020     3.09094
      C   12   -0.18585      0.99956     2.17894    0.00736     3.18585
      C   13    0.34766      0.99965     1.63008    0.02261     2.65234
      O   14   -0.33020      0.99988     3.32508    0.00525     4.33020
      C   15   -0.33331      0.99962     2.32872    0.00497     3.33331
      H   16    0.09629      0.00000     0.40268    0.00103     0.40371
      H   17    0.09753      0.00000     0.40146    0.00102     0.40247
      H   18    0.09409      0.00000     0.40476    0.00114     0.40591
      H   19    0.09457      0.00000     0.40422    0.00121     0.40543
      H   20    0.09540      0.00000     0.40345    0.00116     0.40460
      H   21    0.09736      0.00000     0.40146    0.00119     0.40264
      H   22    0.09375      0.00000     0.40528    0.00096     0.40625
      H   23    0.09560      0.00000     0.40329    0.00111     0.40440
      H   24    0.09542      0.00000     0.40355    0.00103     0.40458
      H   25    0.11372      0.00000     0.38494    0.00133     0.38628
      H   26    0.09375      0.00000     0.40522    0.00102     0.40625
      H   27    0.09889      0.00000     0.39982    0.00129     0.40111
      H   28    0.09646      0.00000     0.40237    0.00117     0.40354
      H   29    0.09809      0.00000     0.40025    0.00166     0.40191
      H   30    0.09890      0.00000     0.39996    0.00114     0.40110
      H   31    0.09393      0.00000     0.40487    0.00120     0.40607
      H   32    0.11350      0.00000     0.38509    0.00141     0.38650
      H   33    0.10449      0.00000     0.39355    0.00196     0.39551
      H   34    0.10869      0.00000     0.38924    0.00206     0.39131
      H   35    0.09541      0.00000     0.40333    0.00126     0.40459
      H   36    0.09707      0.00000     0.40159    0.00134     0.40293
      H   37    0.09284      0.00000     0.40541    0.00175     0.40716
      H   38    0.10961      0.00000     0.38919    0.00120     0.39039
      H   39    0.11262      0.00000     0.38618    0.00120     0.38738
      H   40    0.11126      0.00000     0.38794    0.00080     0.38874
 =======================================================================
   * Total *   -0.00000     14.99449    43.83281    0.17269    59.00000

 Normal termination of Gaussian 16 at Thu Dec 10 16:50:04 2020.
