 Gaussian 16, Revision A.03,

 -----------------------------------------------------------
 # opt freq B3LYP/6-31G(d) empiricaldispersion=gd3bj scf=xqc
 -----------------------------------------------------------

 -------------------------------
 CID_143839474_JID_6092_neutraal
 -------------------------------
 Symbolic Z-matrix:
 Charge =  0 Multiplicity = 1

 SCF Done:  E(RB3LYP) =  -693.384816238     A.U. after   13 cycles
 SCF Done:  E(RB3LYP) =  -693.389583127     A.U. after   11 cycles
 SCF Done:  E(RB3LYP) =  -693.390259172     A.U. after   11 cycles
 SCF Done:  E(RB3LYP) =  -693.390604413     A.U. after   11 cycles
 SCF Done:  E(RB3LYP) =  -693.390789860     A.U. after   10 cycles
 SCF Done:  E(RB3LYP) =  -693.390953821     A.U. after   10 cycles
 SCF Done:  E(RB3LYP) =  -693.391029959     A.U. after   10 cycles
 SCF Done:  E(RB3LYP) =  -693.391078110     A.U. after    9 cycles
 SCF Done:  E(RB3LYP) =  -693.391254249     A.U. after   11 cycles
 SCF Done:  E(RB3LYP) =  -693.391293880     A.U. after   10 cycles
 SCF Done:  E(RB3LYP) =  -693.392317194     A.U. after    7 cycles
 SCF Done:  E(RB3LYP) =  -693.392317315     A.U. after    7 cycles
 SCF Done:  E(RB3LYP) =  -693.392317386     A.U. after    7 cycles
 SCF Done:  E(RB3LYP) =  -693.392317422     A.U. after    6 cycles
 SCF Done:  E(RB3LYP) =  -693.392317423     A.U. after    6 cycles
 Optimization completed.
    -- Stationary point found.
 Normal termination of Gaussian 16 at Thu Dec 10 21:41:32 2020.

 --------------------------------------------------------------------
 #N Geom=AllCheck Guess=TCheck SCRF=Check GenChk RB3LYP/6-31G(d) Freq
 --------------------------------------------------------------------

 Structure from the checkpoint file:  "JID_6092.chk"
 -------------------------------
 CID_143839474_JID_6092_neutraal
 -------------------------------
 Charge =  0 Multiplicity = 1

 SCF Done:  E(RB3LYP) =  -693.392317423     A.U. after    1 cycles

  Exact polarizability: 163.980 -11.664 135.272   8.903  14.932 145.600
 Approx polarizability: 239.866 -19.043 194.254  17.597  32.232 228.801

                      1                      2                      3
                      A                      A                      A
 Frequencies --     15.9687                24.7763                39.7646
 Red. masses --      2.8170                 3.8549                 4.6215
 Frc consts  --      0.0004                 0.0014                 0.0043
 IR Inten    --      0.6737                 0.1208                 0.5089

                      4                      5                      6
                      A                      A                      A
 Frequencies --     58.7778                70.5656                76.1773
 Red. masses --      3.0379                 3.5917                 2.3079
 Frc consts  --      0.0062                 0.0105                 0.0079
 IR Inten    --      0.5520                 0.0825                 0.9553

                      7                      8                      9
                      A                      A                      A
 Frequencies --     88.8673                93.3335               115.5620
 Red. masses --      2.6172                 2.5514                 2.7320
 Frc consts  --      0.0122                 0.0131                 0.0215
 IR Inten    --      0.9231                 1.5053                 0.2097

                     10                     11                     12
                      A                      A                      A
 Frequencies --    130.3568               163.3383               223.2160
 Red. masses --      2.6674                 1.8675                 1.6603
 Frc consts  --      0.0267                 0.0294                 0.0487
 IR Inten    --      3.6183                 2.7854                 3.3735

                     13                     14                     15
                      A                      A                      A
 Frequencies --    237.6552               265.8076               282.7574
 Red. masses --      3.0758                 1.0373                 2.3988
 Frc consts  --      0.1024                 0.0432                 0.1130
 IR Inten    --      0.4328                 0.5008                 4.2157

                     16                     17                     18
                      A                      A                      A
 Frequencies --    290.9792               333.6424               346.4056
 Red. masses --      1.2350                 2.1429                 3.0835
 Frc consts  --      0.0616                 0.1405                 0.2180
 IR Inten    --      5.3913                 5.3074                 8.2935

                     19                     20                     21
                      A                      A                      A
 Frequencies --    394.7475               415.9553               440.6698
 Red. masses --      2.1292                 3.7076                 2.2754
 Frc consts  --      0.1955                 0.3780                 0.2603
 IR Inten    --      7.8823                 2.0018                 1.7471

                     22                     23                     24
                      A                      A                      A
 Frequencies --    452.2178               477.7956               512.7188
 Red. masses --      3.6514                 3.0124                 3.9052
 Frc consts  --      0.4400                 0.4052                 0.6049
 IR Inten    --      0.9821                 2.4391                 1.5005

                     25                     26                     27
                      A                      A                      A
 Frequencies --    525.8954               615.0238               658.0698
 Red. masses --      4.0901                 2.7999                 3.4841
 Frc consts  --      0.6665                 0.6240                 0.8890
 IR Inten    --      0.7635                 7.5992                 4.8235

                     28                     29                     30
                      A                      A                      A
 Frequencies --    669.1803               746.9529               791.0068
 Red. masses --      3.5077                 2.5550                 1.7612
 Frc consts  --      0.9255                 0.8399                 0.6492
 IR Inten    --      7.6464                 9.1034                32.9415

                     31                     32                     33
                      A                      A                      A
 Frequencies --    801.2712               815.6355               841.4925
 Red. masses --      1.3298                 2.3191                 2.1818
 Frc consts  --      0.5030                 0.9090                 0.9102
 IR Inten    --    135.3757                30.4605                86.5655

                     34                     35                     36
                      A                      A                      A
 Frequencies --    883.1543               906.3875               940.9307
 Red. masses --      2.0594                 1.5334                 2.3545
 Frc consts  --      0.9464                 0.7422                 1.2282
 IR Inten    --      8.1737                 7.0177                 1.8814

                     37                     38                     39
                      A                      A                      A
 Frequencies --    948.9022               960.2543               966.0526
 Red. masses --      2.9178                 2.1320                 1.4042
 Frc consts  --      1.5479                 1.1583                 0.7721
 IR Inten    --     23.4225                 2.9532                 3.1295

                     40                     41                     42
                      A                      A                      A
 Frequencies --    980.5717              1001.4783              1015.5301
 Red. masses --      1.5081                 2.3877                 2.6292
 Frc consts  --      0.8543                 1.4110                 1.5975
 IR Inten    --      8.3770                 8.8733                 5.4254

                     43                     44                     45
                      A                      A                      A
 Frequencies --   1043.9122              1049.6809              1111.9291
 Red. masses --      2.5627                 1.1839                 2.1376
 Frc consts  --      1.6454                 0.7686                 1.5572
 IR Inten    --      8.3849                 7.7821                 7.5988

                     46                     47                     48
                      A                      A                      A
 Frequencies --   1113.4400              1131.4212              1137.6923
 Red. masses --      1.3394                 1.7008                 4.3577
 Frc consts  --      0.9783                 1.2828                 3.3232
 IR Inten    --      0.7984                 0.9047               120.3274

                     49                     50                     51
                      A                      A                      A
 Frequencies --   1160.1331              1185.9235              1191.3489
 Red. masses --      4.1880                 3.4766                 1.2762
 Frc consts  --      3.3210                 2.8809                 1.0672
 IR Inten    --     12.7935                26.8402                 3.0986

                     52                     53                     54
                      A                      A                      A
 Frequencies --   1198.8041              1199.4888              1210.0393
 Red. masses --      1.2621                 1.4674                 1.3726
 Frc consts  --      1.0686                 1.2439                 1.1841
 IR Inten    --      0.9031                10.8079                 0.5909

                     55                     56                     57
                      A                      A                      A
 Frequencies --   1214.0866              1222.0150              1256.7725
 Red. masses --      1.7602                 1.5042                 1.7055
 Frc consts  --      1.5287                 1.3234                 1.5872
 IR Inten    --      2.3887                27.0454                 3.0936

                     58                     59                     60
                      A                      A                      A
 Frequencies --   1265.4696              1282.5746              1288.8484
 Red. masses --      2.3876                 1.5126                 1.6900
 Frc consts  --      2.2528                 1.4660                 1.6540
 IR Inten    --     13.4412                 0.6828                 0.2701

                     61                     62                     63
                      A                      A                      A
 Frequencies --   1318.5956              1340.2030              1364.5343
 Red. masses --      1.5989                 1.4798                 1.8400
 Frc consts  --      1.6379                 1.5660                 2.0185
 IR Inten    --      4.5627                 3.6792                 2.1702

                     64                     65                     66
                      A                      A                      A
 Frequencies --   1376.9315              1390.8426              1413.9494
 Red. masses --      1.4965                 1.4250                 1.2858
 Frc consts  --      1.6717                 1.6242                 1.5145
 IR Inten    --      4.2084                 3.9996                25.8624

                     67                     68                     69
                      A                      A                      A
 Frequencies --   1416.6584              1466.7632              1490.4087
 Red. masses --      1.4368                 1.1619                 1.2702
 Frc consts  --      1.6990                 1.4728                 1.6624
 IR Inten    --     13.6165                 1.8038                 9.7757

                     70                     71                     72
                      A                      A                      A
 Frequencies --   1496.0556              1497.9049              1500.3680
 Red. masses --      1.1811                 1.1739                 1.1902
 Frc consts  --      1.5576                 1.5518                 1.5786
 IR Inten    --      2.5834                 6.3505                 7.4700

                     73                     74                     75
                      A                      A                      A
 Frequencies --   1502.6931              1506.1909              1510.2825
 Red. masses --      1.1652                 1.3164                 1.9248
 Frc consts  --      1.5502                 1.7596                 2.5868
 IR Inten    --      0.9975                 4.0313                 4.7837

                     76                     77                     78
                      A                      A                      A
 Frequencies --   1512.2271              1514.4796              1518.7327
 Red. masses --      1.0907                 1.0658                 1.5269
 Frc consts  --      1.4695                 1.4403                 2.0750
 IR Inten    --      5.3263                 3.6175                 9.7753

                     79                     80                     81
                      A                      A                      A
 Frequencies --   1521.5331              1524.0457              1524.8848
 Red. masses --      1.1617                 1.1055                 1.0969
 Frc consts  --      1.5846                 1.5128                 1.5028
 IR Inten    --      3.4521                 1.3991                15.4944

                     82                     83                     84
                      A                      A                      A
 Frequencies --   1539.9215              1543.2724              1547.0863
 Red. masses --      1.0580                 1.0570                 1.0472
 Frc consts  --      1.4782                 1.4832                 1.4768
 IR Inten    --      9.1153                 6.0986                12.5958

                     85                     86                     87
                      A                      A                      A
 Frequencies --   1644.3984              1657.2252              2921.7415
 Red. masses --      6.4627                 5.8564                 1.0630
 Frc consts  --     10.2962                 9.4765                 5.3467
 IR Inten    --      1.3918                 0.5312                37.4996

                     88                     89                     90
                      A                      A                      A
 Frequencies --   2932.8105              2995.9890              3003.3960
 Red. masses --      1.0634                 1.0527                 1.0638
 Frc consts  --      5.3889                 5.5670                 5.6536
 IR Inten    --    183.3316                35.0064                97.7518

                     91                     92                     93
                      A                      A                      A
 Frequencies --   3017.1935              3040.4536              3043.6104
 Red. masses --      1.0700                 1.0619                 1.0657
 Frc consts  --      5.7390                 5.7840                 5.8163
 IR Inten    --     35.9866                29.2600                33.1779

                     94                     95                     96
                      A                      A                      A
 Frequencies --   3069.5033              3070.8485              3076.8531
 Red. masses --      1.0956                 1.0899                 1.0683
 Frc consts  --      6.0820                 6.0554                 5.9585
 IR Inten    --     20.9291                70.7834                29.5035

                     97                     98                     99
                      A                      A                      A
 Frequencies --   3085.6401              3088.7999              3089.8662
 Red. masses --      1.0682                 1.0930                 1.0935
 Frc consts  --      5.9924                 6.1438                 6.1508
 IR Inten    --     21.8081                21.9742                33.1696

                    100                    101                    102
                      A                      A                      A
 Frequencies --   3094.0823              3123.1280              3132.8625
 Red. masses --      1.1036                 1.1038                 1.1039
 Frc consts  --      6.2246                 6.3437                 6.3835
 IR Inten    --     40.7236                39.2387                17.0309

                    103                    104                    105
                      A                      A                      A
 Frequencies --   3138.7956              3168.0838              3177.8186
 Red. masses --      1.1002                 1.0872                 1.0892
 Frc consts  --      6.3861                 6.4290                 6.4804
 IR Inten    --     32.7835                 7.4388                19.3717

                    106                    107                    108
                      A                      A                      A
 Frequencies --   3202.9051              3461.3700              3496.9459
 Red. masses --      1.0958                 1.0733                 1.0742
 Frc consts  --      6.6230                 7.5766                 7.7393
 IR Inten    --     28.1539                 1.5200                 1.7539

 - Thermochemistry -
 -------------------
 Temperature   298.150 Kelvin.  Pressure   1.00000 Atm.
 Atom     1 has atomic number  6 and mass  12.00000

 Molecular mass:   222.17321 amu.
 Principal axes and moments of inertia in atomic units:
                           1         2         3
     Eigenvalues --  3334.339254360.070855011.61984
           X            1.00000   0.00007   0.00159
           Y           -0.00007   1.00000   0.00283
           Z           -0.00159  -0.00283   0.99999
 This molecule is an asymmetric top.
 Rotational symmetry number  1.
 Warning -- assumption of classical behavior for rotation
           may cause significant error
 Rotational temperatures (Kelvin)      0.02598     0.01987     0.01728
 Rotational constants (GHZ):           0.54126     0.41392     0.36011
 Zero-point vibrational energy     890956.6 (Joules/Mol)
                                  212.94374 (Kcal/Mol)
 Warning -- explicit consideration of  26 degrees of freedom as
           vibrations may cause significant error
 Vibrational temperatures:     22.98    35.65    57.21    84.57   101.53
          (Kelvin)            109.60   127.86   134.29   166.27   187.55
                              235.01   321.16   341.93   382.44   406.82
                              418.65   480.04   498.40   567.95   598.47
                              634.03   650.64   687.44   737.69   756.65
                              884.88   946.82   962.80  1074.70  1138.08
                             1152.85  1173.52  1210.72  1270.66  1304.09
                             1353.79  1365.26  1381.59  1389.93  1410.82
                             1440.90  1461.12  1501.96  1510.26  1599.82
                             1601.99  1627.86  1636.89  1669.17  1706.28
                             1714.09  1724.81  1725.80  1740.98  1746.80
                             1758.21  1808.22  1820.73  1845.34  1854.37
                             1897.16  1928.25  1963.26  1981.10  2001.11
                             2034.36  2038.26  2110.35  2144.37  2152.49
                             2155.15  2158.69  2162.04  2167.07  2172.96
                             2175.76  2179.00  2185.12  2189.15  2192.76
                             2193.97  2215.60  2220.42  2225.91  2365.92
                             2384.38  4203.73  4219.66  4310.56  4321.22
                             4341.07  4374.53  4379.08  4416.33  4418.27
                             4426.91  4439.55  4444.09  4445.63  4451.69
                             4493.48  4507.49  4516.03  4558.17  4572.17
                             4608.27  4980.14  5031.33

 Zero-point correction=                           0.339347 (Hartree/Particle)
 Thermal correction to Energy=                    0.357330
 Thermal correction to Enthalpy=                  0.358274
 Thermal correction to Gibbs Free Energy=         0.290597
 Sum of electronic and zero-point Energies=           -693.052970
 Sum of electronic and thermal Energies=              -693.034987
 Sum of electronic and thermal Enthalpies=            -693.034043
 Sum of electronic and thermal Free Energies=         -693.101720

                     E (Thermal)             CV                S
                      KCal/Mol        Cal/Mol-Kelvin    Cal/Mol-Kelvin
 Total                  224.228             64.821            142.439
 Electronic               0.000              0.000              0.000
 Translational            0.889              2.981             42.098
 Rotational               0.889              2.981             32.655
 Vibrational            222.451             58.860             67.687
 Vibration     1          0.593              1.986              7.081
 Vibration     2          0.593              1.985              6.209
 Vibration     3          0.594              1.981              5.271
 Vibration     4          0.596              1.974              4.498
 Vibration     5          0.598              1.968              4.138
 Vibration     6          0.599              1.965              3.987
 Vibration     7          0.602              1.957              3.685
 Vibration     8          0.602              1.954              3.589
 Vibration     9          0.608              1.936              3.173
 Vibration    10          0.612              1.923              2.941
 Vibration    11          0.623              1.887              2.511
 Vibration    12          0.649              1.806              1.933
 Vibration    13          0.656              1.783              1.820
 Vibration    14          0.672              1.736              1.623
 Vibration    15          0.682              1.706              1.517
 Vibration    16          0.687              1.691              1.468
 Vibration    17          0.715              1.608              1.242
 Vibration    18          0.724              1.583              1.182
 Vibration    19          0.762              1.481              0.982
 Vibration    20          0.779              1.436              0.906
 Vibration    21          0.801              1.381              0.825
 Vibration    22          0.811              1.356              0.789
 Vibration    23          0.834              1.299              0.716
 Vibration    24          0.868              1.222              0.627
 Vibration    25          0.881              1.193              0.596
 Vibration    26          0.975              1.000              0.425

                           ! Non-Optimized Parameters !
 Normal termination of Gaussian 16 at Thu Dec 10 21:56:05 2020.

 ----------------------------------------------------------------------
 # B3LYP/6-311++G(d,p) empiricaldispersion=gd3bj scf=xqc pop=npa geom=c
 heck
 ----------------------------------------------------------------------

 ---------------------------------------
 CID_143839474_JID_6092_Energie_neutraal
 ---------------------------------------
 Structure from the checkpoint file:  "JID_6092.chk"
 Charge =  0 Multiplicity = 1

 SCF Done:  E(RB3LYP) =  -693.589576802     A.U. after   14 cycles
 Normal termination of Gaussian 16 at Thu Dec 10 22:02:21 2020.

 ----------------------------------------------------------------------
 # B3LYP/6-311++G(d,p) empiricaldispersion=gd3bj scf=xqc pop=npa geom=c
 heck
 ----------------------------------------------------------------------

 -------------------------------------
 CID_143839474_JID_6092_Energie_kation
 -------------------------------------
 Structure from the checkpoint file:  "JID_6092.chk"
 Charge =  1 Multiplicity = 2

 SCF Done:  E(UB3LYP) =  -693.299884541     A.U. after   28 cycles
 Normal termination of Gaussian 16 at Thu Dec 10 22:21:12 2020.
 Gaussian 16:  ES64L-G16RevA.03 25-Dec-2016

 ----------------------------------------------------------------------
 # B3LYP/6-311++G(d,p) empiricaldispersion=gd3bj scf=xqc pop=npa geom=c
 heck
 ----------------------------------------------------------------------

 ------------------------------------
 CID_143839474_JID_6092_Energie_anion
 ------------------------------------
 Structure from the checkpoint file:  "JID_6092.chk"
 Charge = -1 Multiplicity = 2

                         Standard orientation:
 ---------------------------------------------------------------------
 Center     Atomic      Atomic             Coordinates (Angstroms)
 Number     Number       Type             X           Y           Z
 ---------------------------------------------------------------------
      1          6           0        1.132922    2.001921   -1.061838
      2          7           0        2.431714    2.596478   -0.784700
      3          6           0        3.326970    1.678473   -0.096849
      4          6           0       -2.671493    1.898318   -1.106422
      5          8           0       -2.892922    0.504285   -1.195562
      6          6           0       -2.951349   -0.126229    0.079245
      7          6           0       -1.616001   -0.197203    0.789671
      8          6           0       -1.439405    0.495862    1.988739
      9          6           0       -0.222885    0.449191    2.670337
     10          6           0        0.823193   -0.299280    2.142302
     11          6           0        0.671785   -0.996380    0.937950
     12          6           0       -0.550866   -0.950058    0.250347
     13          6           0       -0.703031   -1.664715   -1.079550
     14          6           0        0.437499   -2.652773   -1.358325
     15          7           0        1.762772   -2.121360   -1.033493
     16          6           0        1.838880   -1.804367    0.389855
     17          1           0        0.623237    1.786671   -0.117411
     18          1           0        1.178149    1.050045   -1.628606
     19          1           0        0.517826    2.706402   -1.630984
     20          1           0        2.861422    2.892593   -1.658401
     21          1           0        3.497723    0.723542   -0.633151
     22          1           0        4.298543    2.157035    0.064492
     23          1           0        2.901914    1.431418    0.882434
     24          1           0       -2.640182    2.280563   -2.129912
     25          1           0       -1.725034    2.136204   -0.603703
     26          1           0       -3.488782    2.398848   -0.561984
     27          1           0       -3.681739    0.391559    0.721329
     28          1           0       -3.339542   -1.130616   -0.120061
     29          1           0       -2.265540    1.077257    2.391242
     30          1           0       -0.092969    0.997630    3.598941
     31          1           0        1.777978   -0.342452    2.662687
     32          1           0       -0.751305   -0.912468   -1.877452
     33          1           0       -1.667120   -2.187724   -1.123721
     34          1           0        0.423423   -2.958595   -2.410283
     35          1           0        0.300745   -3.562631   -0.758922
     36          1           0        1.910172   -1.262733   -1.565428
     37          1           0        1.907847   -2.755882    0.938184
     38          1           0        2.777893   -1.273325    0.579776
 ---------------------------------------------------------------------

 SCF Done:  E(UB3LYP) =  -693.576434893     A.U. after   33 cycles
 SCF Done:  E(UB3LYP) =  -693.576434893     a.u. after    1 cycles

 The electronic state is 2-A.
 Alpha  occ. eigenvalues --  -19.02952 -14.20251 -14.19578 -10.12301 -10.11102
 Alpha  occ. eigenvalues --  -10.10190 -10.09676 -10.08352 -10.08321 -10.08151
 Alpha  occ. eigenvalues --  -10.07920 -10.07878 -10.07644 -10.07580 -10.07519
 Alpha  occ. eigenvalues --  -10.07088  -0.94046  -0.82236  -0.79872  -0.76131
 Alpha  occ. eigenvalues --   -0.68836  -0.67000  -0.64649  -0.61151  -0.59843
 Alpha  occ. eigenvalues --   -0.55824  -0.55088  -0.53198  -0.52601  -0.48370
 Alpha  occ. eigenvalues --   -0.47289  -0.41313  -0.40048  -0.38925  -0.38845
 Alpha  occ. eigenvalues --   -0.38696  -0.36810  -0.35561  -0.35363  -0.34077
 Alpha  occ. eigenvalues --   -0.33711  -0.33287  -0.32475  -0.31883  -0.30440
 Alpha  occ. eigenvalues --   -0.29122  -0.28950  -0.28538  -0.27828  -0.26748
 Alpha  occ. eigenvalues --   -0.26307  -0.25968  -0.25470  -0.24821  -0.23558
 Alpha  occ. eigenvalues --   -0.22099  -0.16787  -0.15312  -0.14798  -0.13380
 Alpha  occ. eigenvalues --   -0.12494   0.04326
 Alpha virt. eigenvalues --    0.06311   0.06730   0.07080   0.07183   0.07928
 Alpha virt. eigenvalues --    0.08496   0.08715   0.09003   0.09559   0.09792
 Alpha virt. eigenvalues --    0.10817   0.11107   0.11400   0.12064   0.12145

  Beta  occ. eigenvalues --  -19.02944 -14.20238 -14.19556 -10.12289 -10.11073
  Beta  occ. eigenvalues --  -10.10183 -10.09662 -10.08319 -10.08286 -10.08161
  Beta  occ. eigenvalues --  -10.07880 -10.07856 -10.07639 -10.07547 -10.07484
  Beta  occ. eigenvalues --  -10.07080  -0.94031  -0.82210  -0.79837  -0.76069
  Beta  occ. eigenvalues --   -0.68773  -0.66947  -0.64602  -0.61097  -0.59788
  Beta  occ. eigenvalues --   -0.55781  -0.55012  -0.53151  -0.52520  -0.48299
  Beta  occ. eigenvalues --   -0.47245  -0.41264  -0.40007  -0.38857  -0.38802
  Beta  occ. eigenvalues --   -0.38639  -0.36768  -0.35526  -0.35332  -0.34046
  Beta  occ. eigenvalues --   -0.33662  -0.33246  -0.32439  -0.31827  -0.30399
  Beta  occ. eigenvalues --   -0.29093  -0.28915  -0.28509  -0.27789  -0.26696
  Beta  occ. eigenvalues --   -0.26270  -0.25936  -0.25436  -0.24722  -0.23515
  Beta  occ. eigenvalues --   -0.22071  -0.16754  -0.15124  -0.14654  -0.13350
  Beta  occ. eigenvalues --   -0.12458
  Beta virt. eigenvalues --    0.06383   0.07118   0.07251   0.07329   0.07591
  Beta virt. eigenvalues --    0.08236   0.08847   0.09087   0.09426   0.09772
  Beta virt. eigenvalues --    0.10017   0.11189   0.11464   0.11625   0.12261

 Mulliken charges and spin densities:
               1          2
     1  C    0.321481  -0.846940
     2  N   -0.295235   0.197478
     3  C    0.368928  -0.806718
     4  C    0.200570  -0.559398
     5  O   -0.080866   0.038652
     6  C    1.054543  -1.891472
     7  C   -0.559137   1.215560
     8  C   -0.771922   0.329665
     9  C    0.292707  -0.703719
    10  C   -0.279446  -0.042746
    11  C   -0.396089   0.929895
    12  C    0.417281   0.123446
    13  C   -0.252485  -0.113621
    14  C   -0.487777  -0.260397
    15  N   -0.068263   0.091906
    16  C    0.745167  -1.520388
    17  H    0.200043  -0.027263
    18  H   -0.457188   0.583835
    19  H    0.062354   0.092399
    20  H   -0.152405   0.367765
    21  H   -0.312014   0.432650
    22  H   -0.366895   0.514515
    23  H    0.125813   0.017082
    24  H   -0.186959   0.351756
    25  H    0.162716   0.013070
    26  H   -0.094547   0.223731
    27  H   -0.195698   0.326339
    28  H   -0.061965   0.237996
    29  H   -0.405677   0.555936
    30  H   -0.243862   0.407405
    31  H    0.007250   0.140316
    32  H    0.266853  -0.023909
    33  H    0.067833   0.069704
    34  H   -0.273054   0.471723
    35  H    0.108644   0.041980
    36  H    0.170864   0.051428
    37  H    0.082163   0.082098
    38  H    0.286271  -0.111762
 Sum of Mulliken charges =  -1.00000   1.00000

 Dipole moment (field-independent basis, Debye):
    X=             -1.1627    Y=             -3.3992    Z=              2.3330  Tot=              4.2836
 Quadrupole moment (field-independent basis, Debye-Ang):
   XX=           -166.5097   YY=           -146.0611   ZZ=           -146.6916
   XY=             -3.5204   XZ=              7.9479   YZ=             -2.2445

 Summary of Natural Population Analysis:

                                       Natural Population
                Natural  -----------------------------------------------
    Atom  No    Charge         Core      Valence    Rydberg      Total
 -----------------------------------------------------------------------
      C    1   -0.17883      0.99965     2.17012    0.00906     3.17883
      N    2   -0.33437      0.99976     2.82214    0.01246     3.83437
      C    3   -0.17890      0.99966     2.17070    0.00854     3.17890
      C    4   -0.10015      0.99961     2.09112    0.00943     3.10015
      O    5   -0.29693      0.99989     3.28712    0.00992     4.29693
      C    6   -0.01671      0.99954     2.00333    0.01385     3.01671
      C    7   -0.02853      0.99946     2.01878    0.01029     3.02853
      C    8   -0.10083      0.99951     2.09133    0.00998     3.10083
      C    9   -0.09674      0.99956     2.08704    0.01014     3.09674
      C   10   -0.09478      0.99952     2.08569    0.00957     3.09478
      C   11   -0.02650      0.99946     2.01774    0.00930     3.02650
      C   12   -0.00088      0.99943     1.99156    0.00990     3.00088
      C   13   -0.21238      0.99960     2.20392    0.00886     3.21238
      C   14   -0.08555      0.99963     2.07427    0.01164     3.08555
      N   15   -0.33554      0.99977     2.82328    0.01249     3.83554
      C   16   -0.09338      0.99959     2.08310    0.01069     3.09338
      H   17    0.09434      0.00000     0.40285    0.00280     0.40566
      H   18    0.07424      0.00000     0.42325    0.00251     0.42576
      H   19    0.09327      0.00000     0.40538    0.00135     0.40673
      H   20    0.16998      0.00000     0.32660    0.00342     0.33002
      H   21    0.07574      0.00000     0.42237    0.00189     0.42426
      H   22    0.09302      0.00000     0.40587    0.00111     0.40698
      H   23    0.09237      0.00000     0.40606    0.00156     0.40763
      H   24    0.09037      0.00000     0.40845    0.00117     0.40963
      H   25    0.08423      0.00000     0.41384    0.00193     0.41577
      H   26    0.07623      0.00000     0.42239    0.00138     0.42377
      H   27    0.08296      0.00000     0.41551    0.00154     0.41704
      H   28    0.09425      0.00000     0.40421    0.00155     0.40575
      H   29    0.10033      0.00000     0.39841    0.00126     0.39967
      H   30    0.09982      0.00000     0.39929    0.00089     0.40018
      H   31    0.09697      0.00000     0.40152    0.00151     0.40303
      H   32    0.11173      0.00000     0.38609    0.00218     0.38827
      H   33    0.10326      0.00000     0.39562    0.00112     0.39674
      H   34    0.09616      0.00000     0.40294    0.00091     0.40384
      H   35    0.08682      0.00000     0.41204    0.00114     0.41318
      H   36    0.17089      0.00000     0.32495    0.00416     0.32911
      H   37    0.09310      0.00000     0.40570    0.00120     0.40690
      H   38    0.10092      0.00000     0.39785    0.00123     0.39908
 =======================================================================
   * Total *   -0.00000     15.99364    44.80244    0.20393    61.00000

 Normal termination of Gaussian 16 at Thu Dec 10 22:42:49 2020.
