 Gaussian 16, Revision A.03,

 -----------------------------------------------------------
 # opt freq B3LYP/6-31G(d) empiricaldispersion=gd3bj scf=xqc
 -----------------------------------------------------------

 ------------------------------
 CID_13543934_JID_6853_neutraal
 ------------------------------
 Symbolic Z-matrix:
 Charge =  0 Multiplicity = 1

 SCF Done:  E(RB3LYP) =  -712.103812897     A.U. after   15 cycles
 SCF Done:  E(RB3LYP) =  -712.107271558     A.U. after   12 cycles
 SCF Done:  E(RB3LYP) =  -712.107630309     A.U. after   12 cycles
 SCF Done:  E(RB3LYP) =  -712.108941738     A.U. after   12 cycles
 SCF Done:  E(RB3LYP) =  -712.109263836     A.U. after   12 cycles
 SCF Done:  E(RB3LYP) =  -712.109252569     A.U. after   12 cycles
 SCF Done:  E(RB3LYP) =  -712.109551843     A.U. after   12 cycles
 SCF Done:  E(RB3LYP) =  -712.109629243     A.U. after   11 cycles
 SCF Done:  E(RB3LYP) =  -712.109764043     A.U. after   12 cycles
 SCF Done:  E(RB3LYP) =  -712.109809004     A.U. after   11 cycles
 SCF Done:  E(RB3LYP) =  -712.109860501     A.U. after    9 cycles
 SCF Done:  E(RB3LYP) =  -712.109861410     A.U. after    9 cycles
 SCF Done:  E(RB3LYP) =  -712.109861622     A.U. after    8 cycles
 SCF Done:  E(RB3LYP) =  -712.109861770     A.U. after    8 cycles
 SCF Done:  E(RB3LYP) =  -712.109861780     A.U. after    6 cycles
 Optimization completed.
    -- Stationary point found.
 Normal termination of Gaussian 16 at Fri Dec 11 00:06:28 2020.

 --------------------------------------------------------------------
 #N Geom=AllCheck Guess=TCheck SCRF=Check GenChk RB3LYP/6-31G(d) Freq
 --------------------------------------------------------------------

 Structure from the checkpoint file:  "JID_6853.chk"
 ------------------------------
 CID_13543934_JID_6853_neutraal
 ------------------------------
 Charge =  0 Multiplicity = 1

 SCF Done:  E(RB3LYP) =  -712.109861780     A.U. after    1 cycles

  Exact polarizability: 177.522 -15.739 127.963  -4.419 -12.337 128.923
 Approx polarizability: 252.085 -35.434 188.333 -12.989 -29.633 209.424

                      1                      2                      3
                      A                      A                      A
 Frequencies --     18.5523                40.1307                48.3752
 Red. masses --      4.5720                 3.9975                 3.3693
 Frc consts  --      0.0009                 0.0038                 0.0046
 IR Inten    --      0.0752                 0.3560                 0.1209

                      4                      5                      6
                      A                      A                      A
 Frequencies --     79.3043                86.5404               104.7437
 Red. masses --      2.8676                 4.6902                 3.8836
 Frc consts  --      0.0106                 0.0207                 0.0251
 IR Inten    --      0.4625                 2.7329                 2.8737

                      7                      8                      9
                      A                      A                      A
 Frequencies --    127.5634               149.7619               169.1632
 Red. masses --      1.2111                 2.5504                 3.4195
 Frc consts  --      0.0116                 0.0337                 0.0577
 IR Inten    --      0.2642                 2.5761                 0.7035

                     10                     11                     12
                      A                      A                      A
 Frequencies --    235.9093               237.3132               251.5207
 Red. masses --      2.2655                 1.4196                 1.5596
 Frc consts  --      0.0743                 0.0471                 0.0581
 IR Inten    --      0.5275                 0.5984                 0.5866

                     13                     14                     15
                      A                      A                      A
 Frequencies --    279.3310               291.8858               356.8101
 Red. masses --      2.1195                 2.4931                 2.9954
 Frc consts  --      0.0974                 0.1251                 0.2247
 IR Inten    --      0.3237                 1.0518                 5.2667

                     16                     17                     18
                      A                      A                      A
 Frequencies --    364.4668               369.8335               391.2129
 Red. masses --      2.5714                 1.1099                 2.4094
 Frc consts  --      0.2012                 0.0894                 0.2173
 IR Inten    --      3.5168               112.7979                 3.7564

                     19                     20                     21
                      A                      A                      A
 Frequencies --    403.8968               422.9772               455.4723
 Red. masses --      5.0118                 1.9813                 2.9922
 Frc consts  --      0.4817                 0.2088                 0.3657
 IR Inten    --      5.6876                 1.0362                 3.4478

                     22                     23                     24
                      A                      A                      A
 Frequencies --    475.4423               493.4885               536.5940
 Red. masses --      3.1031                 3.7437                 5.9108
 Frc consts  --      0.4133                 0.5372                 1.0027
 IR Inten    --      8.9530                 7.4039                 2.5636

                     25                     26                     27
                      A                      A                      A
 Frequencies --    541.3204               602.1794               624.7753
 Red. masses --      3.0173                 3.1107                 4.2116
 Frc consts  --      0.5209                 0.6646                 0.9686
 IR Inten    --      1.4580                 8.6104                10.3053

                     28                     29                     30
                      A                      A                      A
 Frequencies --    651.6531               708.6508               716.6952
 Red. masses --      4.1712                 5.3282                 2.2923
 Frc consts  --      1.0436                 1.5765                 0.6937
 IR Inten    --      1.4729                 1.9437                20.6959

                     31                     32                     33
                      A                      A                      A
 Frequencies --    771.0645               800.2344               851.8089
 Red. masses --      2.4060                 1.3870                 1.6165
 Frc consts  --      0.8428                 0.5233                 0.6911
 IR Inten    --      4.0913                17.3093                16.3229

                     34                     35                     36
                      A                      A                      A
 Frequencies --    865.6447               887.3621               900.8392
 Red. masses --      2.8185                 1.9415                 1.4944
 Frc consts  --      1.2444                 0.9007                 0.7145
 IR Inten    --     13.3809                 1.2953                 0.3194

                     37                     38                     39
                      A                      A                      A
 Frequencies --    926.3942               948.5194               972.9030
 Red. masses --      2.2498                 1.2149                 1.8192
 Frc consts  --      1.1376                 0.6440                 1.0146
 IR Inten    --      6.0430                 2.7771                 0.3689

                     40                     41                     42
                      A                      A                      A
 Frequencies --    974.3780               983.5138               995.2934
 Red. masses --      1.3002                 1.5652                 1.8660
 Frc consts  --      0.7273                 0.8921                 1.0891
 IR Inten    --      0.4548                 1.5775                30.8361

                     43                     44                     45
                      A                      A                      A
 Frequencies --   1021.0111              1034.8574              1055.5543
 Red. masses --      6.0252                 1.7868                 1.9020
 Frc consts  --      3.7007                 1.1274                 1.2486
 IR Inten    --      8.6914                 6.1397                 2.7403

                     46                     47                     48
                      A                      A                      A
 Frequencies --   1064.3086              1107.2220              1123.1412
 Red. masses --      1.7128                 1.6892                 2.2412
 Frc consts  --      1.1431                 1.2201                 1.6657
 IR Inten    --      4.9214                 5.9470                12.4153

                     49                     50                     51
                      A                      A                      A
 Frequencies --   1164.0827              1174.1960              1191.5152
 Red. masses --      1.8665                 2.1530                 1.1254
 Frc consts  --      1.4902                 1.7489                 0.9414
 IR Inten    --      5.2510                26.0127                 8.1614

                     52                     53                     54
                      A                      A                      A
 Frequencies --   1208.1753              1212.3019              1238.0697
 Red. masses --      1.6449                 1.3521                 1.8431
 Frc consts  --      1.4146                 1.1708                 1.6646
 IR Inten    --     22.8236               128.3569                73.8823

                     55                     56                     57
                      A                      A                      A
 Frequencies --   1284.2767              1296.0101              1340.6361
 Red. masses --      1.7481                 1.4372                 2.3236
 Frc consts  --      1.6987                 1.4223                 2.4606
 IR Inten    --     70.4225                33.2483                92.8744

                     58                     59                     60
                      A                      A                      A
 Frequencies --   1351.3863              1357.7193              1368.3261
 Red. masses --      1.4064                 1.6285                 5.7601
 Frc consts  --      1.5133                 1.7687                 6.3542
 IR Inten    --     32.9809                 8.0324                22.1423

                     61                     62                     63
                      A                      A                      A
 Frequencies --   1385.8141              1406.3359              1413.3905
 Red. masses --      1.4197                 1.6471                 1.3671
 Frc consts  --      1.6064                 1.9194                 1.6090
 IR Inten    --     11.1158                30.5627                14.1575

                     64                     65                     66
                      A                      A                      A
 Frequencies --   1423.0439              1430.2842              1438.5502
 Red. masses --      1.3732                 1.2825                 2.0678
 Frc consts  --      1.6384                 1.5458                 2.5212
 IR Inten    --     11.9069                16.0414               133.6368

                     67                     68                     69
                      A                      A                      A
 Frequencies --   1451.3951              1498.8051              1502.4840
 Red. masses --      1.2341                 1.2106                 1.8196
 Frc consts  --      1.5317                 1.6022                 2.4202
 IR Inten    --     11.8647                 9.0118                25.7724

                     70                     71                     72
                      A                      A                      A
 Frequencies --   1506.1111              1512.2709              1512.7491
 Red. masses --      1.1256                 1.1000                 1.1548
 Frc consts  --      1.5043                 1.4822                 1.5571
 IR Inten    --     14.1876                13.3866                33.7994

                     73                     74                     75
                      A                      A                      A
 Frequencies --   1523.1527              1527.3698              1536.0232
 Red. masses --      1.0592                 1.0522                 1.0579
 Frc consts  --      1.4478                 1.4463                 1.4706
 IR Inten    --      2.6546                 6.8687                 0.4916

                     76                     77                     78
                      A                      A                      A
 Frequencies --   1554.7540              1555.6439              1659.8693
 Red. masses --      1.0631                 2.5562                 6.0420
 Frc consts  --      1.5141                 3.6448                 9.8079
 IR Inten    --      5.9420                43.1661                97.0633

                     79                     80                     81
                      A                      A                      A
 Frequencies --   1662.7554              1763.9684              3019.6047
 Red. masses --      6.1044                 9.4973                 1.0787
 Frc consts  --      9.9438                17.4113                 5.7951
 IR Inten    --    121.3546               297.2090                 8.8876

                     82                     83                     84
                      A                      A                      A
 Frequencies --   3027.9170              3034.4094              3040.7037
 Red. masses --      1.0608                 1.0375                 1.0424
 Frc consts  --      5.7303                 5.6285                 5.6786
 IR Inten    --     18.0650                24.4334                65.2096

                     85                     86                     87
                      A                      A                      A
 Frequencies --   3056.3359              3066.2424              3072.1741
 Red. masses --      1.0707                 1.1020                 1.0373
 Frc consts  --      5.8926                 6.1046                 5.7684
 IR Inten    --     45.8757                33.9230                 5.2782

                     88                     89                     90
                      A                      A                      A
 Frequencies --   3096.2252              3101.2442              3109.2915
 Red. masses --      1.1003                 1.1011                 1.1017
 Frc consts  --      6.2150                 6.2395                 6.2753
 IR Inten    --     11.7411                62.5824                52.3107

                     91                     92                     93
                      A                      A                      A
 Frequencies --   3134.9357              3144.3659              3163.6200
 Red. masses --      1.1000                 1.0991                 1.0927
 Frc consts  --      6.3691                 6.4024                 6.4433
 IR Inten    --      7.3985                 7.6765                 5.2040

                     94                     95                     96
                      A                      A                      A
 Frequencies --   3178.1020              3181.1843              3197.8148
 Red. masses --      1.1029                 1.0910                 1.0875
 Frc consts  --      6.5635                 6.5048                 6.5524
 IR Inten    --     12.5547                 8.3071                 8.2002

                     97                     98                     99
                      A                      A                      A
 Frequencies --   3218.8552              3225.4232              3751.5033
 Red. masses --      1.0917                 1.0956                 1.0660
 Frc consts  --      6.6646                 6.7153                 8.8390
 IR Inten    --      8.6334                 5.2135                43.0189

 - Thermochemistry -
 -------------------
 Temperature   298.150 Kelvin.  Pressure   1.00000 Atm.
 Atom     1 has atomic number  6 and mass  12.00000

 Molecular mass:   221.14158 amu.
 Principal axes and moments of inertia in atomic units:
                           1         2         3
     Eigenvalues --  2257.355755486.498686362.76790
           X            0.99960   0.02808   0.00318
           Y           -0.02809   0.99960   0.00202
           Z           -0.00312  -0.00211   0.99999
 This molecule is an asymmetric top.
 Rotational symmetry number  1.
 Warning -- assumption of classical behavior for rotation
           may cause significant error
 Rotational temperatures (Kelvin)      0.03837     0.01579     0.01361
 Rotational constants (GHZ):           0.79949     0.32894     0.28364
 Zero-point vibrational energy     794266.8 (Joules/Mol)
                                  189.83431 (Kcal/Mol)
 Warning -- explicit consideration of  26 degrees of freedom as
           vibrations may cause significant error
 Vibrational temperatures:     26.69    57.74    69.60   114.10   124.51
          (Kelvin)            150.70   183.54   215.47   243.39   339.42
                              341.44   361.88   401.89   419.96   513.37
                              524.39   532.11   562.87   581.12   608.57
                              655.32   684.06   710.02   772.04   778.84
                              866.40   898.91   937.58  1019.59  1031.16
                             1109.39  1151.36  1225.56  1245.47  1276.72
                             1296.11  1332.87  1364.71  1399.79  1401.91
                             1415.06  1432.01  1469.01  1488.93  1518.71
                             1531.30  1593.05  1615.95  1674.86  1689.41
                             1714.32  1738.29  1744.23  1781.31  1847.79
                             1864.67  1928.88  1944.34  1953.46  1968.72
                             1993.88  2023.40  2033.55  2047.44  2057.86
                             2069.75  2088.23  2156.45  2161.74  2166.96
                             2175.82  2176.51  2191.48  2197.54  2209.99
                             2236.94  2238.22  2388.18  2392.33  2537.96
                             4344.54  4356.50  4365.84  4374.89  4397.39
                             4411.64  4420.17  4454.78  4462.00  4473.58
                             4510.47  4524.04  4551.74  4572.58  4577.01
                             4600.94  4631.21  4640.66  5397.58

 Zero-point correction=                           0.302520 (Hartree/Particle)
 Thermal correction to Energy=                    0.319337
 Thermal correction to Enthalpy=                  0.320281
 Thermal correction to Gibbs Free Energy=         0.256969
 Sum of electronic and zero-point Energies=           -711.807342
 Sum of electronic and thermal Energies=              -711.790525
 Sum of electronic and thermal Enthalpies=            -711.789581
 Sum of electronic and thermal Free Energies=         -711.852892

                     E (Thermal)             CV                S
                      KCal/Mol        Cal/Mol-Kelvin    Cal/Mol-Kelvin
 Total                  200.387             63.391            133.250
 Electronic               0.000              0.000              0.000
 Translational            0.889              2.981             42.084
 Rotational               0.889              2.981             32.733
 Vibrational            198.609             57.430             58.434
 Vibration     1          0.593              1.986              6.783
 Vibration     2          0.594              1.981              5.253
 Vibration     3          0.595              1.978              4.883
 Vibration     4          0.600              1.963              3.908
 Vibration     5          0.601              1.959              3.737
 Vibration     6          0.605              1.945              3.364
 Vibration     7          0.611              1.926              2.982
 Vibration     8          0.618              1.903              2.675
 Vibration     9          0.625              1.880              2.445
 Vibration    10          0.655              1.786              1.834
 Vibration    11          0.656              1.784              1.823
 Vibration    12          0.663              1.760              1.720
 Vibration    13          0.680              1.712              1.538
 Vibration    14          0.687              1.689              1.463
 Vibration    15          0.732              1.561              1.136
 Vibration    16          0.738              1.545              1.103
 Vibration    17          0.742              1.534              1.080
 Vibration    18          0.759              1.489              0.996
 Vibration    19          0.769              1.462              0.948
 Vibration    20          0.785              1.420              0.882
 Vibration    21          0.814              1.349              0.779
 Vibration    22          0.832              1.305              0.722
 Vibration    23          0.849              1.264              0.675
 Vibration    24          0.892              1.169              0.573
 Vibration    25          0.896              1.159              0.562
 Vibration    26          0.960              1.027              0.446

 Optimization completed.
    -- Stationary point found.
 Normal termination of Gaussian 16 at Fri Dec 11 00:19:04 2020.

 ----------------------------------------------------------------------
 # B3LYP/6-311++G(d,p) empiricaldispersion=gd3bj scf=xqc pop=npa geom=c
 heck
 ----------------------------------------------------------------------

 --------------------------------------
 CID_13543934_JID_6853_Energie_neutraal
 --------------------------------------
 Structure from the checkpoint file:  "JID_6853.chk"
 Charge =  0 Multiplicity = 1

 SCF Done:  E(RB3LYP) =  -712.315360064     A.U. after   15 cycles
 Normal termination of Gaussian 16 at Fri Dec 11 00:24:24 2020.

 ----------------------------------------------------------------------
 # B3LYP/6-311++G(d,p) empiricaldispersion=gd3bj scf=xqc pop=npa geom=c
 heck
 ----------------------------------------------------------------------

 ------------------------------------
 CID_13543934_JID_6853_Energie_kation
 ------------------------------------
 Structure from the checkpoint file:  "JID_6853.chk"
 Charge =  1 Multiplicity = 2

 SCF Done:  E(UB3LYP) =  -712.008348745     A.U. after   30 cycles
 Normal termination of Gaussian 16 at Fri Dec 11 00:39:36 2020.
 Gaussian 16:  ES64L-G16RevA.03 25-Dec-2016

 ----------------------------------------------------------------------
 # B3LYP/6-311++G(d,p) empiricaldispersion=gd3bj scf=xqc pop=npa geom=c
 heck
 ----------------------------------------------------------------------

 -----------------------------------
 CID_13543934_JID_6853_Energie_anion
 -----------------------------------
 Structure from the checkpoint file:  "JID_6853.chk"
 Charge = -1 Multiplicity = 2

                         Standard orientation:
 ---------------------------------------------------------------------
 Center     Atomic      Atomic             Coordinates (Angstroms)
 Number     Number       Type             X           Y           Z
 ---------------------------------------------------------------------
      1          6           0       -3.929556   -0.136534   -0.237498
      2          6           0       -2.715262   -1.008298    0.106087
      3          6           0       -3.148041   -2.419483    0.522372
      4          6           0       -1.708477   -1.089317   -1.053124
      5          6           0       -1.052198    0.238105   -1.446500
      6          7           0       -0.265386    0.837017   -0.359518
      7          6           0        0.935966    0.165838    0.026443
      8          6           0        2.072990    0.292387   -0.778048
      9          6           0        3.248741   -0.378063   -0.433633
     10          6           0        3.292814   -1.172483    0.718011
     11          6           0        2.155578   -1.292369    1.509925
     12          6           0        0.971313   -0.634241    1.169940
     13          8           0        4.389842   -0.288957   -1.178058
     14          6           0       -0.729534    1.969296    0.278187
     15          8           0       -1.793309    2.497974   -0.027375
     16          6           0        0.153840    2.539622    1.375784
     17          1           0       -4.440754   -0.518801   -1.131373
     18          1           0       -3.637810    0.901832   -0.414946
     19          1           0       -4.653854   -0.143058    0.585497
     20          1           0       -2.204285   -0.545950    0.963117
     21          1           0       -3.665053   -2.927734   -0.301937
     22          1           0       -2.286564   -3.036361    0.805682
     23          1           0       -3.836298   -2.386840    1.374745
     24          1           0       -0.919510   -1.808766   -0.796510
     25          1           0       -2.214388   -1.490527   -1.943186
     26          1           0       -0.383546    0.074401   -2.300321
     27          1           0       -1.794233    0.983386   -1.732589
     28          1           0        2.030793    0.923397   -1.662856
     29          1           0        4.216991   -1.682117    0.968553
     30          1           0        2.188910   -1.913276    2.400329
     31          1           0        0.078288   -0.737529    1.776595
     32          1           0        4.225557    0.284287   -1.942817
     33          1           0        0.112467    1.912981    2.272748
     34          1           0        1.202619    2.599446    1.070929
     35          1           0       -0.222937    3.533206    1.620750
 ---------------------------------------------------------------------

 SCF Done:  E(UB3LYP) =  -712.307325544     A.U. after   33 cycles
 SCF Done:  E(UB3LYP) =  -712.307325544     a.u. after    1 cycles

 The electronic state is 2-A.
 Alpha  occ. eigenvalues --  -19.05032 -18.98978 -14.24576 -10.17653 -10.14042
 Alpha  occ. eigenvalues --  -10.11612 -10.10563 -10.08270 -10.08219 -10.07468
 Alpha  occ. eigenvalues --  -10.07457 -10.07430 -10.07390 -10.07318 -10.07167
 Alpha  occ. eigenvalues --  -10.06199  -0.96185  -0.94215  -0.84807  -0.75261
 Alpha  occ. eigenvalues --   -0.72081  -0.66329  -0.65420  -0.64478  -0.62047
 Alpha  occ. eigenvalues --   -0.59400  -0.54784  -0.53453  -0.52376  -0.47472
 Alpha  occ. eigenvalues --   -0.46397  -0.43060  -0.40831  -0.39581  -0.38459
 Alpha  occ. eigenvalues --   -0.38014  -0.36973  -0.35560  -0.34503  -0.33661
 Alpha  occ. eigenvalues --   -0.33461  -0.31560  -0.31378  -0.30818  -0.30189
 Alpha  occ. eigenvalues --   -0.29827  -0.29054  -0.28728  -0.28009  -0.27062
 Alpha  occ. eigenvalues --   -0.26333  -0.25589  -0.24432  -0.23801  -0.23437
 Alpha  occ. eigenvalues --   -0.23062  -0.17562  -0.15740  -0.14777  -0.13213
 Alpha  occ. eigenvalues --    0.04215
 Alpha virt. eigenvalues --    0.05981   0.06667   0.07106   0.07921   0.08268
 Alpha virt. eigenvalues --    0.08911   0.09074   0.09358   0.10209   0.10284
 Alpha virt. eigenvalues --    0.11004   0.11361   0.11577   0.11944   0.12004

  Beta  occ. eigenvalues --  -19.04970 -18.98969 -14.24580 -10.17643 -10.14054
  Beta  occ. eigenvalues --  -10.11562 -10.10550 -10.08265 -10.08186 -10.07469
  Beta  occ. eigenvalues --  -10.07449 -10.07375 -10.07362 -10.07266 -10.07155
  Beta  occ. eigenvalues --  -10.06192  -0.96071  -0.94195  -0.84770  -0.75190
  Beta  occ. eigenvalues --   -0.72066  -0.66289  -0.65320  -0.64399  -0.62019
  Beta  occ. eigenvalues --   -0.59380  -0.54724  -0.53361  -0.52308  -0.47436
  Beta  occ. eigenvalues --   -0.46296  -0.42999  -0.40757  -0.39543  -0.38405
  Beta  occ. eigenvalues --   -0.37976  -0.36946  -0.35529  -0.34476  -0.33587
  Beta  occ. eigenvalues --   -0.33430  -0.31537  -0.31303  -0.30791  -0.30152
  Beta  occ. eigenvalues --   -0.29800  -0.29030  -0.28700  -0.27973  -0.27026
  Beta  occ. eigenvalues --   -0.26292  -0.25530  -0.24316  -0.23777  -0.23419
  Beta  occ. eigenvalues --   -0.23042  -0.17401  -0.15694  -0.14668  -0.13083
  Beta virt. eigenvalues --    0.06139   0.07089   0.07351   0.07656   0.08199
  Beta virt. eigenvalues --    0.08737   0.08933   0.09150   0.09505   0.10389
  Beta virt. eigenvalues --    0.10635   0.11011   0.11540   0.11612   0.12019

 Mulliken charges and spin densities:
               1          2
     1  C   -0.493371  -0.234576
     2  C   -0.101778   0.527740
     3  C   -0.123628  -0.454735
     4  C    0.174464  -0.412216
     5  C    0.244727  -0.473174
     6  N    0.657906  -0.281485
     7  C   -0.925176   0.804994
     8  C   -2.568320   2.648404
     9  C    2.009871  -2.614021
    10  C    2.885281  -2.850749
    11  C   -0.194425  -0.172053
    12  C   -1.162143   0.905428
    13  O   -0.299869   0.083092
    14  C    0.334956  -0.143135
    15  O   -0.339629   0.010993
    16  C    0.090444  -0.640714
    17  H    0.077395   0.045021
    18  H    0.155714   0.022387
    19  H    0.058931   0.066981
    20  H    0.141067   0.027826
    21  H    0.054110   0.067596
    22  H    0.026460   0.108526
    23  H   -0.043524   0.179978
    24  H    0.166642  -0.044550
    25  H    0.093767   0.067127
    26  H   -0.175664   0.336391
    27  H    0.199509  -0.017725
    28  H   -1.018954   1.199499
    29  H    0.099906   0.067661
    30  H   -0.411253   0.593717
    31  H   -0.179443   0.305730
    32  H   -0.503786   0.793640
    33  H   -0.097706   0.279403
    34  H   -0.016812   0.201315
    35  H    0.184331  -0.004314
 Sum of Mulliken charges =  -1.00000   1.00000

 Dipole moment (field-independent basis, Debye):
    X=             -5.6419    Y=             -2.4597    Z=              2.4934  Tot=              6.6407
 Quadrupole moment (field-independent basis, Debye-Ang):
   XX=           -173.9025   YY=           -136.5191   ZZ=           -140.2999
   XY=             -0.7420   XZ=             17.6252   YZ=              7.8642

 Summary of Natural Population Analysis:

                                       Natural Population
                Natural  -----------------------------------------------
    Atom  No    Charge         Core      Valence    Rydberg      Total
 -----------------------------------------------------------------------
      C    1   -0.28985      0.99965     2.28522    0.00499     3.28985
      C    2   -0.11989      0.99961     2.11047    0.00981     3.11989
      C    3   -0.28068      0.99965     2.27634    0.00469     3.28068
      C    4   -0.19259      0.99960     2.18546    0.00753     3.19259
      C    5   -0.08382      0.99959     2.07356    0.01067     3.08382
      N    6   -0.26676      0.99961     2.75297    0.01418     3.76676
      C    7    0.08873      0.99946     1.89884    0.01297     2.91127
      C    8   -0.13302      0.99945     2.12205    0.01153     3.13302
      C    9    0.16286      0.99939     1.82378    0.01396     2.83714
      C   10   -0.11823      0.99951     2.10913    0.00959     3.11823
      C   11   -0.08602      0.99957     2.07741    0.00905     3.08602
      C   12   -0.12606      0.99949     2.11615    0.01042     3.12606
      O   13   -0.33933      0.99988     3.33217    0.00728     4.33933
      C   14    0.35181      0.99965     1.62565    0.02289     2.64819
      O   15   -0.33060      0.99988     3.32532    0.00540     4.33060
      C   16   -0.33076      0.99962     2.32679    0.00434     3.33076
      H   17    0.09065      0.00000     0.40847    0.00087     0.40935
      H   18    0.11496      0.00000     0.38407    0.00098     0.38504
      H   19    0.09586      0.00000     0.40335    0.00079     0.40414
      H   20    0.09526      0.00000     0.40263    0.00211     0.40474
      H   21    0.09339      0.00000     0.40568    0.00093     0.40661
      H   22    0.09935      0.00000     0.39968    0.00096     0.40065
      H   23    0.09718      0.00000     0.40192    0.00090     0.40282
      H   24    0.10197      0.00000     0.39678    0.00125     0.39803
      H   25    0.09639      0.00000     0.40271    0.00090     0.40361
      H   26    0.09817      0.00000     0.40084    0.00099     0.40183
      H   27    0.11218      0.00000     0.38651    0.00131     0.38782
      H   28    0.11073      0.00000     0.38537    0.00390     0.38927
      H   29    0.10490      0.00000     0.39422    0.00088     0.39510
      H   30    0.10050      0.00000     0.39853    0.00097     0.39950
      H   31    0.10389      0.00000     0.39393    0.00217     0.39611
      H   32    0.24346      0.00000     0.23505    0.02149     0.25654
      H   33    0.11268      0.00000     0.38600    0.00133     0.38732
      H   34    0.11349      0.00000     0.38539    0.00112     0.38651
      H   35    0.10918      0.00000     0.38994    0.00088     0.39082
 =======================================================================
   * Total *    0.00000     15.99361    43.80239    0.20400    60.00000

 Normal termination of Gaussian 16 at Fri Dec 11 00:57:00 2020.
