 Gaussian 16, Revision A.03,

 -----------------------------------------------------------
 # opt freq B3LYP/6-31G(d) empiricaldispersion=gd3bj scf=xqc
 -----------------------------------------------------------

 --------------------------------
 CID_114533888_JID_10530_neutraal
 --------------------------------
 Symbolic Z-matrix:
 Charge =  0 Multiplicity = 1

 SCF Done:  E(RB3LYP) =  -884.407106695     A.U. after   15 cycles
 SCF Done:  E(RB3LYP) =  -884.413710859     A.U. after   12 cycles
 SCF Done:  E(RB3LYP) =  -884.412445633     A.U. after   13 cycles
 SCF Done:  E(RB3LYP) =  -884.413580294     A.U. after   13 cycles
 SCF Done:  E(RB3LYP) =  -884.414629109     A.U. after    9 cycles
 SCF Done:  E(RB3LYP) =  -884.415030486     A.U. after   12 cycles
 SCF Done:  E(RB3LYP) =  -884.415468737     A.U. after   12 cycles
 SCF Done:  E(RB3LYP) =  -884.415846491     A.U. after   12 cycles
 SCF Done:  E(RB3LYP) =  -884.416042964     A.U. after   12 cycles
 SCF Done:  E(RB3LYP) =  -884.416117195     A.U. after   10 cycles
 SCF Done:  E(RB3LYP) =  -884.416355697     A.U. after    9 cycles
 SCF Done:  E(RB3LYP) =  -884.416355845     A.U. after    7 cycles
 SCF Done:  E(RB3LYP) =  -884.416356040     A.U. after    8 cycles
 SCF Done:  E(RB3LYP) =  -884.416356180     A.U. after    8 cycles
 SCF Done:  E(RB3LYP) =  -884.416356312     A.U. after    8 cycles
 SCF Done:  E(RB3LYP) =  -884.416356415     A.U. after    8 cycles
 Optimization completed.
    -- Stationary point found.
 Normal termination of Gaussian 16 at Sun Dec 13 21:01:05 2020.

 --------------------------------------------------------------------
 #N Geom=AllCheck Guess=TCheck SCRF=Check GenChk RB3LYP/6-31G(d) Freq
 --------------------------------------------------------------------

 Structure from the checkpoint file:  "JID_10530.chk"
 --------------------------------
 CID_114533888_JID_10530_neutraal
 --------------------------------
 Charge =  0 Multiplicity = 1

 SCF Done:  E(RB3LYP) =  -884.416356415     A.U. after    1 cycles

  Exact polarizability: 213.462  15.080 204.752 -30.194   9.267 115.784
 Approx polarizability: 309.460  37.819 360.749 -59.947  18.703 190.048

                      1                      2                      3
                      A                      A                      A
 Frequencies --     21.8352                41.3370                52.7451
 Red. masses --      5.5103                 8.0897                 5.1571
 Frc consts  --      0.0015                 0.0081                 0.0085
 IR Inten    --      0.4040                 1.6193                 0.3787

                      4                      5                      6
                      A                      A                      A
 Frequencies --     65.7610                77.7611               117.6799
 Red. masses --      2.9495                 3.1523                 4.7702
 Frc consts  --      0.0075                 0.0112                 0.0389
 IR Inten    --      0.6858                 2.3032                 1.5274

                      7                      8                      9
                      A                      A                      A
 Frequencies --    144.7413               156.1319               183.3858
 Red. masses --      4.4345                 3.2678                 2.2454
 Frc consts  --      0.0547                 0.0469                 0.0445
 IR Inten    --      0.2155                 0.1405                 0.5135

                     10                     11                     12
                      A                      A                      A
 Frequencies --    191.0069               210.7908               269.1795
 Red. masses --      3.7422                 2.5727                 3.9385
 Frc consts  --      0.0804                 0.0674                 0.1681
 IR Inten    --      1.1307                 0.3439                 1.1989

                     13                     14                     15
                      A                      A                      A
 Frequencies --    285.2647               315.6119               328.1282
 Red. masses --      2.5678                 2.9956                 2.6634
 Frc consts  --      0.1231                 0.1758                 0.1690
 IR Inten    --      0.0975                 2.3312                 1.9982

                     16                     17                     18
                      A                      A                      A
 Frequencies --    352.9366               415.8356               432.3435
 Red. masses --      2.9486                 3.7375                 3.3681
 Frc consts  --      0.2164                 0.3808                 0.3709
 IR Inten    --      0.7319                 5.3181                 8.3802

                     19                     20                     21
                      A                      A                      A
 Frequencies --    451.2294               482.9727               505.5350
 Red. masses --      2.6728                 3.4667                 3.9901
 Frc consts  --      0.3206                 0.4764                 0.6008
 IR Inten    --      1.1205                 0.1943                 4.0089

                     22                     23                     24
                      A                      A                      A
 Frequencies --    515.4067               526.0424               561.1586
 Red. masses --      4.8551                 5.6085                 3.8781
 Frc consts  --      0.7599                 0.9144                 0.7195
 IR Inten    --      1.1060                 2.0502                 3.5995

                     25                     26                     27
                      A                      A                      A
 Frequencies --    572.3311               582.4602               616.2853
 Red. masses --      3.7678                 2.2642                 4.5303
 Frc consts  --      0.7272                 0.4526                 1.0138
 IR Inten    --      9.0898                20.2964                 9.0683

                     28                     29                     30
                      A                      A                      A
 Frequencies --    639.3878               683.3974               709.5834
 Red. masses --      2.3527                 2.5349                 3.2453
 Frc consts  --      0.5667                 0.6975                 0.9627
 IR Inten    --     46.8116                44.2932                11.9855

                     31                     32                     33
                      A                      A                      A
 Frequencies --    726.5789               736.2951               750.8445
 Red. masses --      3.3548                 3.9500                 1.3794
 Frc consts  --      1.0435                 1.2617                 0.4582
 IR Inten    --     19.0870                 4.5760                10.2949

                     34                     35                     36
                      A                      A                      A
 Frequencies --    785.0148               803.2204               808.2147
 Red. masses --      3.3840                 2.0686                 4.3385
 Frc consts  --      1.2287                 0.7863                 1.6697
 IR Inten    --     32.1645                28.5991                 2.8519

                     37                     38                     39
                      A                      A                      A
 Frequencies --    817.2364               828.9478               876.9141
 Red. masses --      1.5805                 2.1467                 2.1869
 Frc consts  --      0.6219                 0.8691                 0.9908
 IR Inten    --     20.3970                10.5605                 4.5840

                     40                     41                     42
                      A                      A                      A
 Frequencies --    881.7757               891.1176               892.5982
 Red. masses --      1.7975                 2.4750                 2.5358
 Frc consts  --      0.8234                 1.1579                 1.1903
 IR Inten    --      2.8373                10.2085                 3.5983

                     43                     44                     45
                      A                      A                      A
 Frequencies --    932.1140               955.6868               976.3827
 Red. masses --      1.3716                 1.3491                 2.1231
 Frc consts  --      0.7021                 0.7260                 1.1925
 IR Inten    --      0.3225                 2.0250                 2.6604

                     46                     47                     48
                      A                      A                      A
 Frequencies --    979.0084               990.2324               998.8120
 Red. masses --      1.3073                 1.2936                 2.2487
 Frc consts  --      0.7382                 0.7473                 1.3218
 IR Inten    --      1.1964                 0.4284                12.2535

                     49                     50                     51
                      A                      A                      A
 Frequencies --   1039.7170              1050.2832              1066.8227
 Red. masses --      4.7028                 3.6654                 2.3171
 Frc consts  --      2.9952                 2.3822                 1.5537
 IR Inten    --      9.8279                 3.2521                 1.8325

                     52                     53                     54
                      A                      A                      A
 Frequencies --   1075.0727              1098.7825              1106.3408
 Red. masses --      1.9131                 2.3543                 3.2534
 Frc consts  --      1.3028                 1.6747                 2.3462
 IR Inten    --      7.3123                 8.2898                52.7209

                     55                     56                     57
                      A                      A                      A
 Frequencies --   1120.7891              1141.3095              1167.6394
 Red. masses --      2.2841                 3.3326                 2.4502
 Frc consts  --      1.6905                 2.5577                 1.9682
 IR Inten    --      7.6097                80.8606                37.2536

                     58                     59                     60
                      A                      A                      A
 Frequencies --   1181.0805              1189.4524              1200.1630
 Red. masses --      1.3407                 1.7752                 1.1293
 Frc consts  --      1.1019                 1.4797                 0.9584
 IR Inten    --      0.3207                22.7945                 2.1915

                     61                     62                     63
                      A                      A                      A
 Frequencies --   1204.2545              1211.9301              1235.3050
 Red. masses --      1.4325                 2.1459                 1.3968
 Frc consts  --      1.2240                 1.8570                 1.2558
 IR Inten    --      6.4558               118.4193                10.0658

                     64                     65                     66
                      A                      A                      A
 Frequencies --   1245.2684              1256.5509              1279.3743
 Red. masses --      1.2731                 1.7953                 1.7153
 Frc consts  --      1.1632                 1.6701                 1.6542
 IR Inten    --      1.4252                 3.3919                 0.8172

                     67                     68                     69
                      A                      A                      A
 Frequencies --   1299.0960              1314.6081              1334.7183
 Red. masses --      1.8043                 1.6323                 1.3363
 Frc consts  --      1.7941                 1.6620                 1.4026
 IR Inten    --      4.0917                 0.7754                 3.2167

                     70                     71                     72
                      A                      A                      A
 Frequencies --   1358.2214              1369.4268              1390.2073
 Red. masses --      1.3089                 1.6450                 1.5043
 Frc consts  --      1.4226                 1.8176                 1.7129
 IR Inten    --     10.8937                 3.2625                 5.5726

                     73                     74                     75
                      A                      A                      A
 Frequencies --   1405.3163              1407.0849              1415.7962
 Red. masses --      2.0170                 1.9091                 3.9705
 Frc consts  --      2.3469                 2.2270                 4.6892
 IR Inten    --      4.0002                 5.3719                 1.3640

                     76                     77                     78
                      A                      A                      A
 Frequencies --   1439.2059              1442.3999              1451.4437
 Red. masses --      1.4690                 1.9615                 1.4888
 Frc consts  --      1.7927                 2.4045                 1.8480
 IR Inten    --     10.5346                10.9915                27.7205

                     79                     80                     81
                      A                      A                      A
 Frequencies --   1495.0558              1512.5077              1517.0976
 Red. masses --      2.0484                 2.0887                 1.1101
 Frc consts  --      2.6976                 2.8153                 1.5054
 IR Inten    --      2.0384                 1.0173                 1.3964

                     82                     83                     84
                      A                      A                      A
 Frequencies --   1521.1032              1528.8685              1532.8411
 Red. masses --      1.1066                 1.1125                 1.0706
 Frc consts  --      1.5085                 1.5321                 1.4821
 IR Inten    --      2.4525                18.1018                 4.1775

                     85                     86                     87
                      A                      A                      A
 Frequencies --   1561.3048              1571.4891              1637.9957
 Red. masses --      1.0953                 3.2733                 6.9297
 Frc consts  --      1.5731                 4.7628                10.9545
 IR Inten    --      0.5063                 6.9243                 0.7169

                     88                     89                     90
                      A                      A                      A
 Frequencies --   1659.9635              1684.7912              1815.6999
 Red. masses --      4.9071                 5.8653                 9.5323
 Frc consts  --      7.9666                 9.8092                18.5154
 IR Inten    --      6.7865                 0.1917               226.0272

                     91                     92                     93
                      A                      A                      A
 Frequencies --   2940.9830              3034.7048              3067.7725
 Red. masses --      1.0822                 1.0635                 1.0690
 Frc consts  --      5.5149                 5.7704                 5.9276
 IR Inten    --     67.9866                94.5909                 2.3705

                     94                     95                     96
                      A                      A                      A
 Frequencies --   3071.7293              3081.4598              3083.8243
 Red. masses --      1.0768                 1.0447                 1.0877
 Frc consts  --      5.9861                 5.8446                 6.0942
 IR Inten    --     22.3351                20.8544                55.7572

                     97                     98                     99
                      A                      A                      A
 Frequencies --   3112.2711              3156.8278              3160.1272
 Red. masses --      1.1014                 1.0973                 1.0923
 Frc consts  --      6.2855                 6.4430                 6.4267
 IR Inten    --     11.0498                 6.1463                11.0343

                    100                    101                    102
                      A                      A                      A
 Frequencies --   3179.5459              3181.5145              3187.8635
 Red. masses --      1.0864                 1.0863                 1.0903
 Frc consts  --      6.4707                 6.4783                 6.5284
 IR Inten    --      1.5094                 0.2644                15.2594

                    103                    104                    105
                      A                      A                      A
 Frequencies --   3192.5360              3195.9267              3206.2910
 Red. masses --      1.0891                 1.1022                 1.0965
 Frc consts  --      6.5403                 6.6332                 6.6415
 IR Inten    --     12.8773                 8.7274                32.3292

                    106                    107                    108
                      A                      A                      A
 Frequencies --   3208.2266              3224.8627              3672.3107
 Red. masses --      1.0948                 1.0924                 1.0638
 Frc consts  --      6.6390                 6.6933                 8.4523
 IR Inten    --     32.0946                17.0001                48.9005

 - Thermochemistry -
 -------------------
 Temperature   298.150 Kelvin.  Pressure   1.00000 Atm.
 Atom     1 has atomic number  6 and mass  12.00000

 Molecular mass:   270.12559 amu.
 Principal axes and moments of inertia in atomic units:
                           1         2         3
     Eigenvalues --  2928.309116774.928638305.23070
           X            0.99991  -0.00706  -0.01103
           Y            0.00713   0.99995   0.00635
           Z            0.01099  -0.00643   0.99992
 This molecule is an asymmetric top.
 Rotational symmetry number  1.
 Warning -- assumption of classical behavior for rotation
           may cause significant error
 Rotational temperatures (Kelvin)      0.02958     0.01278     0.01043
 Rotational constants (GHZ):           0.61631     0.26639     0.21730
 Zero-point vibrational energy     835199.3 (Joules/Mol)
                                  199.61742 (Kcal/Mol)
 Warning -- explicit consideration of  27 degrees of freedom as
           vibrations may cause significant error
 Vibrational temperatures:     31.42    59.47    75.89    94.62   111.88
          (Kelvin)            169.32   208.25   224.64   263.85   274.82
                              303.28   387.29   410.43   454.10   472.10
                              507.80   598.29   622.05   649.22   694.89
                              727.35   741.56   756.86   807.38   823.46
                              838.03   886.70   919.94   983.26  1020.93
                             1045.38  1059.36  1080.30  1129.46  1155.66
                             1162.84  1175.82  1192.67  1261.68  1268.68
                             1282.12  1284.25  1341.10  1375.02  1404.80
                             1408.57  1424.72  1437.07  1495.92  1511.12
                             1534.92  1546.79  1580.90  1591.78  1612.57
                             1642.09  1679.97  1699.31  1711.36  1726.77
                             1732.65  1743.70  1777.33  1791.66  1807.90
                             1840.73  1869.11  1891.43  1920.36  1954.18
                             1970.30  2000.20  2021.94  2024.48  2037.02
                             2070.70  2075.29  2088.30  2151.05  2176.16
                             2182.77  2188.53  2199.70  2205.42  2246.37
                             2261.02  2356.71  2388.32  2424.04  2612.39
                             4231.42  4366.26  4413.84  4419.53  4433.53
                             4436.94  4477.86  4541.97  4546.72  4574.66
                             4577.49  4586.62  4593.35  4598.23  4613.14
                             4615.92  4639.86  5283.64

 Zero-point correction=                           0.318111 (Hartree/Particle)
 Thermal correction to Energy=                    0.335258
 Thermal correction to Enthalpy=                  0.336202
 Thermal correction to Gibbs Free Energy=         0.272089
 Sum of electronic and zero-point Energies=           -884.098246
 Sum of electronic and thermal Energies=              -884.081099
 Sum of electronic and thermal Enthalpies=            -884.080155
 Sum of electronic and thermal Free Energies=         -884.144268

                     E (Thermal)             CV                S
                      KCal/Mol        Cal/Mol-Kelvin    Cal/Mol-Kelvin
 Total                  210.377             67.732            134.937
 Electronic               0.000              0.000              0.000
 Translational            0.889              2.981             42.680
 Rotational               0.889              2.981             33.465
 Vibrational            208.600             61.771             58.791
 Vibration     1          0.593              1.985              6.460
 Vibration     2          0.594              1.981              5.194
 Vibration     3          0.596              1.977              4.712
 Vibration     4          0.597              1.971              4.276
 Vibration     5          0.599              1.964              3.947
 Vibration     6          0.608              1.935              3.138
 Vibration     7          0.616              1.908              2.740
 Vibration     8          0.620              1.896              2.596
 Vibration     9          0.631              1.862              2.294
 Vibration    10          0.634              1.852              2.218
 Vibration    11          0.643              1.824              2.037
 Vibration    12          0.674              1.730              1.601
 Vibration    13          0.683              1.701              1.502
 Vibration    14          0.703              1.644              1.333
 Vibration    15          0.711              1.619              1.269
 Vibration    16          0.729              1.569              1.153
 Vibration    17          0.779              1.436              0.906
 Vibration    18          0.793              1.400              0.851
 Vibration    19          0.810              1.358              0.792
 Vibration    20          0.839              1.288              0.702
 Vibration    21          0.861              1.238              0.644
 Vibration    22          0.870              1.216              0.621
 Vibration    23          0.881              1.192              0.596
 Vibration    24          0.917              1.115              0.522
 Vibration    25          0.929              1.091              0.500
 Vibration    26          0.939              1.069              0.481
 Vibration    27          0.976              0.997              0.422

 Optimization completed.
    -- Stationary point found.
 Normal termination of Gaussian 16 at Sun Dec 13 21:23:31 2020.

 ----------------------------------------------------------------------
 # B3LYP/6-311++G(d,p) empiricaldispersion=gd3bj scf=xqc pop=npa geom=c
 heck
 ----------------------------------------------------------------------

 ----------------------------------------
 CID_114533888_JID_10530_Energie_neutraal
 ----------------------------------------
 Structure from the checkpoint file:  "JID_10530.chk"
 Charge =  0 Multiplicity = 1

 SCF Done:  E(RB3LYP) =  -884.659951096     A.U. after   15 cycles
 Normal termination of Gaussian 16 at Sun Dec 13 21:31:56 2020.

 ----------------------------------------------------------------------
 # B3LYP/6-311++G(d,p) empiricaldispersion=gd3bj scf=xqc pop=npa geom=c
 heck
 ----------------------------------------------------------------------

 --------------------------------------
 CID_114533888_JID_10530_Energie_kation
 --------------------------------------
 Structure from the checkpoint file:  "JID_10530.chk"
 Charge =  1 Multiplicity = 2

 SCF Done:  E(UB3LYP) =  -884.372535110     A.U. after   24 cycles
 Normal termination of Gaussian 16 at Sun Dec 13 21:50:19 2020.
 Gaussian 16:  ES64L-G16RevA.03 25-Dec-2016

 ----------------------------------------------------------------------
 # B3LYP/6-311++G(d,p) empiricaldispersion=gd3bj scf=xqc pop=npa geom=c
 heck
 ----------------------------------------------------------------------

 -------------------------------------
 CID_114533888_JID_10530_Energie_anion
 -------------------------------------
 Structure from the checkpoint file:  "JID_10530.chk"
 Charge = -1 Multiplicity = 2

                         Standard orientation:
 ---------------------------------------------------------------------
 Center     Atomic      Atomic             Coordinates (Angstroms)
 Number     Number       Type             X           Y           Z
 ---------------------------------------------------------------------
      1          6           0        0.780258   -1.389552    1.680703
      2          6           0        1.638561   -1.332500    0.427164
      3          6           0        1.784570   -0.045190   -0.428056
      4          6           0        3.042072   -0.434569   -1.240979
      5          6           0        3.869074   -1.270265   -0.249925
      6          8           0        2.979849   -1.651049    0.804995
      7          6           0        0.610522    0.261986   -1.406125
      8          6           0       -0.682967    0.757028   -0.796961
      9          6           0       -0.815141    2.107390   -0.532610
     10          6           0       -1.980640    2.641915    0.057855
     11          6           0       -3.030986    1.815474    0.375960
     12          6           0       -2.958606    0.425010    0.106125
     13          6           0       -4.042303   -0.437905    0.418578
     14          6           0       -3.977592   -1.785226    0.153856
     15          6           0       -2.816419   -2.327992   -0.443266
     16          6           0       -1.748583   -1.518720   -0.757515
     17          6           0       -1.773391   -0.120949   -0.493668
     18          6           0        2.092874    1.244001    0.334915
     19          8           0        2.733792    2.162816   -0.135088
     20          8           0        1.530293    1.332004    1.556476
     21          1           0        0.725623   -2.429205    2.019183
     22          1           0       -0.232624   -1.034923    1.485051
     23          1           0        1.219357   -0.786021    2.473745
     24          1           0        1.266630   -2.099246   -0.277320
     25          1           0        3.568198    0.445646   -1.612607
     26          1           0        2.733800   -1.041296   -2.099076
     27          1           0        4.688972   -0.694043    0.194080
     28          1           0        4.297116   -2.163056   -0.725051
     29          1           0        0.979278    1.026777   -2.097879
     30          1           0        0.446867   -0.637878   -2.005671
     31          1           0        0.004657    2.775540   -0.783879
     32          1           0       -2.041016    3.708736    0.253185
     33          1           0       -3.934443    2.213192    0.830967
     34          1           0       -4.930392   -0.007188    0.874274
     35          1           0       -4.813825   -2.433508    0.398978
     36          1           0       -2.766829   -3.392313   -0.654645
     37          1           0       -0.868819   -1.962996   -1.207961
     38          1           0        1.758155    2.222003    1.887254
 ---------------------------------------------------------------------

 SCF Done:  E(UB3LYP) =  -884.662424494     A.U. after   30 cycles

 The electronic state is 2-A.
 Alpha  occ. eigenvalues --  -19.07309 -19.02041 -19.01544 -10.20570 -10.12010
 Alpha  occ. eigenvalues --  -10.11906 -10.09640 -10.07263 -10.06288 -10.04468
 Alpha  occ. eigenvalues --  -10.04285 -10.04283 -10.03316 -10.03223 -10.03207
 Alpha  occ. eigenvalues --  -10.03053 -10.02645 -10.02515 -10.02378 -10.02152
 Alpha  occ. eigenvalues --   -1.01532  -0.93955  -0.92181  -0.73854  -0.71835
 Alpha  occ. eigenvalues --   -0.68220  -0.66613  -0.64434  -0.60601  -0.60104
 Alpha  occ. eigenvalues --   -0.58243  -0.55565  -0.54346  -0.48776  -0.48598
 Alpha  occ. eigenvalues --   -0.47480  -0.46948  -0.44259  -0.40542  -0.39879
 Alpha  occ. eigenvalues --   -0.38826  -0.37922  -0.37220  -0.35836  -0.35677
 Alpha  occ. eigenvalues --   -0.35045  -0.33986  -0.32619  -0.31323  -0.31233
 Alpha  occ. eigenvalues --   -0.29618  -0.28428  -0.28137  -0.27635  -0.26982
 Alpha  occ. eigenvalues --   -0.26823  -0.25761  -0.25514  -0.24680  -0.24392
 Alpha  occ. eigenvalues --   -0.23607  -0.23033  -0.22539  -0.21668  -0.19824
 Alpha  occ. eigenvalues --   -0.19294  -0.18941  -0.18534  -0.15542  -0.14706
 Alpha  occ. eigenvalues --   -0.11272  -0.08611   0.04653
 Alpha virt. eigenvalues --    0.07030   0.07896   0.08591   0.08881   0.09261
 Alpha virt. eigenvalues --    0.09443   0.09938   0.10644   0.10979   0.11360
 Alpha virt. eigenvalues --    0.11593   0.11911   0.12390   0.12814   0.13299

  Beta  occ. eigenvalues --  -19.07301 -19.02039 -19.01527 -10.20550 -10.12009
  Beta  occ. eigenvalues --  -10.11900 -10.09624 -10.07252 -10.06297 -10.04530
  Beta  occ. eigenvalues --  -10.04357 -10.04283 -10.03273 -10.03189 -10.03153
  Beta  occ. eigenvalues --  -10.02775 -10.02550 -10.02261 -10.02146 -10.01867
  Beta  occ. eigenvalues --   -1.01508  -0.93950  -0.92154  -0.73610  -0.71736
  Beta  occ. eigenvalues --   -0.67870  -0.66589  -0.64059  -0.60398  -0.59889
  Beta  occ. eigenvalues --   -0.58028  -0.55453  -0.54222  -0.48752  -0.48069
  Beta  occ. eigenvalues --   -0.47402  -0.46872  -0.44004  -0.40512  -0.39831
  Beta  occ. eigenvalues --   -0.38753  -0.37746  -0.36962  -0.35790  -0.35537
  Beta  occ. eigenvalues --   -0.34982  -0.33935  -0.32583  -0.31262  -0.31124
  Beta  occ. eigenvalues --   -0.29515  -0.28227  -0.28005  -0.27559  -0.26874
  Beta  occ. eigenvalues --   -0.26721  -0.25653  -0.25403  -0.24579  -0.23963
  Beta  occ. eigenvalues --   -0.23568  -0.22927  -0.22418  -0.21608  -0.19674
  Beta  occ. eigenvalues --   -0.18874  -0.18495  -0.18288  -0.15465  -0.13578
  Beta  occ. eigenvalues --   -0.10666  -0.07007
  Beta virt. eigenvalues --    0.07158   0.07877   0.08474   0.08868   0.09387
  Beta virt. eigenvalues --    0.09421   0.09866   0.09918   0.10651   0.10981
  Beta virt. eigenvalues --    0.11381   0.11633   0.11923   0.12391   0.12819

 Mulliken charges and spin densities:
               1          2
     1  C   -0.465119  -0.090823
     2  C   -0.652762   0.033238
     3  C    0.713316   0.391412
     4  C    0.282162  -0.418678
     5  C   -0.067831  -0.193194
     6  O   -0.075399   0.007104
     7  C   -0.343882  -0.125983
     8  C    0.700752   0.070608
     9  C   -0.239901   0.163579
    10  C   -0.683646   0.015756
    11  C   -0.403648   0.178277
    12  C    0.564505  -0.051933
    13  C   -0.244309   0.203107
    14  C   -0.328075  -0.031680
    15  C   -0.451603  -0.000920
    16  C   -0.189437   0.140750
    17  C    0.364106  -0.051615
    18  C   -0.973357  -0.158570
    19  O   -0.211163   0.009307
    20  O   -0.079596  -0.010714
    21  H    0.102875   0.029371
    22  H    0.187723  -0.011390
    23  H    0.171842  -0.003098
    24  H    0.168504   0.027625
    25  H    0.192922   0.017413
    26  H   -0.118546   0.266718
    27  H    0.148535  -0.000578
    28  H   -0.037676   0.179801
    29  H    0.119957   0.105277
    30  H    0.005054   0.215143
    31  H    0.119346   0.025422
    32  H    0.114016  -0.000188
    33  H    0.093661  -0.016510
    34  H    0.097640  -0.010817
    35  H    0.112166  -0.006649
    36  H    0.070075   0.047549
    37  H   -0.029720   0.036617
    38  H    0.266511   0.019265
 Sum of Mulliken charges =  -1.00000   1.00000

 Dipole moment (field-independent basis, Debye):
    X=              3.4892    Y=              0.7035    Z=              1.8912  Tot=              4.0306
 Quadrupole moment (field-independent basis, Debye-Ang):
   XX=           -167.7241   YY=           -146.5566   ZZ=           -137.4387
   XY=              0.6512   XZ=             -1.2807   YZ=              5.5862

 Summary of Natural Population Analysis:

                                       Natural Population
                Natural  -----------------------------------------------
    Atom  No    Charge         Core      Valence    Rydberg      Total
 -----------------------------------------------------------------------
      C    1   -0.29239      0.99963     2.28740    0.00537     3.29239
      C    2    0.06972      0.99954     1.91364    0.01710     2.93028
      C    3   -0.07818      0.99948     2.06589    0.01281     3.07818
      C    4   -0.20267      0.99961     2.19320    0.00986     3.20267
      C    5   -0.01096      0.99960     1.99927    0.01209     3.01096
      O    6   -0.30804      0.99989     3.30002    0.00814     4.30804
      C    7   -0.19095      0.99957     2.17930    0.01208     3.19095
      C    8    0.02424      0.99947     1.96608    0.01021     2.97576
      C    9   -0.09037      0.99952     2.08023    0.01063     3.09037
      C   10   -0.10539      0.99957     2.09708    0.00874     3.10539
      C   11   -0.04760      0.99954     2.03961    0.00845     3.04760
      C   12   -0.03976      0.99950     2.03236    0.00791     3.03976
      C   13   -0.05024      0.99953     2.04223    0.00848     3.05024
      C   14   -0.10624      0.99957     2.09735    0.00932     3.10624
      C   15   -0.09486      0.99957     2.08595    0.00935     3.09486
      C   16   -0.06714      0.99954     2.05702    0.01058     3.06714
      C   17   -0.03525      0.99946     2.02611    0.00967     3.03525
      C   18    0.42109      0.99961     1.54985    0.02945     2.57891
      O   19   -0.31825      0.99987     3.31239    0.00599     4.31825
      O   20   -0.33342      0.99987     3.32678    0.00677     4.33342
      H   21    0.09679      0.00000     0.40235    0.00086     0.40321
      H   22    0.11748      0.00000     0.38167    0.00085     0.38252
      H   23    0.10521      0.00000     0.39386    0.00092     0.39479
      H   24    0.08166      0.00000     0.41673    0.00161     0.41834
      H   25    0.11442      0.00000     0.38458    0.00100     0.38558
      H   26    0.10108      0.00000     0.39746    0.00146     0.39892
      H   27    0.08257      0.00000     0.41637    0.00106     0.41743
      H   28    0.08117      0.00000     0.41757    0.00126     0.41883
      H   29    0.10667      0.00000     0.39201    0.00132     0.39333
      H   30    0.10625      0.00000     0.39241    0.00134     0.39375
      H   31    0.09265      0.00000     0.40600    0.00134     0.40735
      H   32    0.08916      0.00000     0.40948    0.00136     0.41084
      H   33    0.08918      0.00000     0.41006    0.00076     0.41082
      H   34    0.08648      0.00000     0.41194    0.00158     0.41352
      H   35    0.08960      0.00000     0.40941    0.00098     0.41040
      H   36    0.09068      0.00000     0.40840    0.00092     0.40932
      H   37    0.08940      0.00000     0.40873    0.00188     0.41060
      H   38    0.23622      0.00000     0.26057    0.00321     0.26378
 =======================================================================
   * Total *    0.00001     19.99193    51.77135    0.23671    71.99999

 Normal termination of Gaussian 16 at Sun Dec 13 22:11:54 2020.
