 Gaussian 16, Revision A.03,

 -----------------------------------------------------------
 # opt freq B3LYP/6-31G(d) empiricaldispersion=gd3bj scf=xqc
 -----------------------------------------------------------

 -------------------------------
 CID_131210682_JID_3892_neutraal
 -------------------------------
 Symbolic Z-matrix:
 Charge =  0 Multiplicity = 1

 SCF Done:  E(RB3LYP) =  -577.793741868     A.U. after   13 cycles
 SCF Done:  E(RB3LYP) =  -577.810286966     A.U. after   11 cycles
 SCF Done:  E(RB3LYP) =  -577.812444688     A.U. after   11 cycles
 SCF Done:  E(RB3LYP) =  -577.813260567     A.U. after   11 cycles
 SCF Done:  E(RB3LYP) =  -577.814410105     A.U. after   10 cycles
 SCF Done:  E(RB3LYP) =  -577.815019658     A.U. after   10 cycles
 SCF Done:  E(RB3LYP) =  -577.814936108     A.U. after   10 cycles
 SCF Done:  E(RB3LYP) =  -577.815226541     A.U. after   11 cycles
 SCF Done:  E(RB3LYP) =  -577.815303844     A.U. after    9 cycles
 SCF Done:  E(RB3LYP) =  -577.815409144     A.U. after   10 cycles
 SCF Done:  E(RB3LYP) =  -577.816042804     A.U. after   10 cycles
 SCF Done:  E(RB3LYP) =  -577.816024058     A.U. after   10 cycles
 SCF Done:  E(RB3LYP) =  -577.816043532     A.U. after   10 cycles
 SCF Done:  E(RB3LYP) =  -577.816035856     A.U. after   10 cycles
 SCF Done:  E(RB3LYP) =  -577.816043749     A.U. after    9 cycles
 SCF Done:  E(RB3LYP) =  -577.816043857     A.U. after    7 cycles
 Optimization completed.
    -- Stationary point found.
 Normal termination of Gaussian 16 at Sun Dec 13 12:36:49 2020.

 --------------------------------------------------------------------
 #N Geom=AllCheck Guess=TCheck SCRF=Check GenChk RB3LYP/6-31G(d) Freq
 --------------------------------------------------------------------

 Structure from the checkpoint file:  "JID_3892.chk"
 -------------------------------
 CID_131210682_JID_3892_neutraal
 -------------------------------
 Charge =  0 Multiplicity = 1

 SCF Done:  E(RB3LYP) =  -577.816043857     A.U. after    1 cycles

  Exact polarizability: 134.004   3.771 111.683   0.036   1.109 105.831
 Approx polarizability: 166.086   4.799 157.294   2.646  -1.357 159.396

                      1                      2                      3
                      A                      A                      A
 Frequencies --     29.7806                67.8912                74.2043
 Red. masses --      3.6935                 2.8760                 3.3886
 Frc consts  --      0.0019                 0.0078                 0.0110
 IR Inten    --      0.2789                 1.5093                 0.7368

                      4                      5                      6
                      A                      A                      A
 Frequencies --     95.9207               116.0546               140.5473
 Red. masses --      2.7858                 3.0075                 2.5160
 Frc consts  --      0.0151                 0.0239                 0.0293
 IR Inten    --      1.7963                 1.9076                 0.1713

                      7                      8                      9
                      A                      A                      A
 Frequencies --    192.2326               211.7370               222.9988
 Red. masses --      1.4791                 3.3706                 1.8028
 Frc consts  --      0.0322                 0.0890                 0.0528
 IR Inten    --      1.6666                 6.5815                 2.7042

                     10                     11                     12
                      A                      A                      A
 Frequencies --    241.8715               268.2150               314.9740
 Red. masses --      1.9114                 1.3583                 3.1985
 Frc consts  --      0.0659                 0.0576                 0.1870
 IR Inten    --     16.1382                29.9224                11.8000

                     13                     14                     15
                      A                      A                      A
 Frequencies --    339.1927               382.4225               411.2015
 Red. masses --      2.1770                 1.9730                 2.1347
 Frc consts  --      0.1476                 0.1700                 0.2127
 IR Inten    --      6.3722                 1.1940                 4.5619

                     16                     17                     18
                      A                      A                      A
 Frequencies --    421.6434               477.0630               521.9622
 Red. masses --      2.1416                 3.1590                 2.1620
 Frc consts  --      0.2243                 0.4236                 0.3470
 IR Inten    --      5.8988                 5.6201                 0.5944

                     19                     20                     21
                      A                      A                      A
 Frequencies --    656.2540               694.6812               724.7755
 Red. masses --      3.1112                 3.7922                 3.6174
 Frc consts  --      0.7894                 1.0782                 1.1196
 IR Inten    --      6.7411                 3.4850                 0.8106

                     22                     23                     24
                      A                      A                      A
 Frequencies --    808.2466               824.3199               830.9481
 Red. masses --      1.4039                 1.8218                 2.2734
 Frc consts  --      0.5403                 0.7294                 0.9249
 IR Inten    --      2.0874                10.8350                31.7384

                     25                     26                     27
                      A                      A                      A
 Frequencies --    835.2273               890.3937               902.3117
 Red. masses --      1.8902                 2.3122                 2.3574
 Frc consts  --      0.7769                 1.0801                 1.1308
 IR Inten    --      1.1634                58.1772                27.3067

                     28                     29                     30
                      A                      A                      A
 Frequencies --    935.6530               940.4597               944.2469
 Red. masses --      2.3326                 1.9149                 1.9141
 Frc consts  --      1.2032                 0.9979                 1.0055
 IR Inten    --      5.8750                46.6206                 1.5116

                     31                     32                     33
                      A                      A                      A
 Frequencies --    950.9962               965.6674               977.3468
 Red. masses --      2.8514                 1.9266                 3.4429
 Frc consts  --      1.5194                 1.0585                 1.9376
 IR Inten    --     22.4830                 1.1772                48.7215

                     34                     35                     36
                      A                      A                      A
 Frequencies --    986.8591              1009.2091              1011.3939
 Red. masses --      2.5304                 2.1571                 1.6979
 Frc consts  --      1.4519                 1.2944                 1.0233
 IR Inten    --     13.7089                17.8522                 5.2864

                     37                     38                     39
                      A                      A                      A
 Frequencies --   1081.1208              1104.8287              1113.9151
 Red. masses --      1.3482                 2.5290                 1.7208
 Frc consts  --      0.9284                 1.8188                 1.2580
 IR Inten    --     30.9757                35.4495                46.1027

                     40                     41                     42
                      A                      A                      A
 Frequencies --   1124.0215              1147.3628              1157.6284
 Red. masses --      2.5535                 1.7439                 1.8400
 Frc consts  --      1.9008                 1.3526                 1.4528
 IR Inten    --     23.8045                 4.5297                20.7705

                     43                     44                     45
                      A                      A                      A
 Frequencies --   1159.1982              1173.5298              1214.1762
 Red. masses --      1.3346                 1.5633                 1.4097
 Frc consts  --      1.0566                 1.2685                 1.2244
 IR Inten    --     16.1582                12.0146                19.6672

                     46                     47                     48
                      A                      A                      A
 Frequencies --   1218.9642              1242.1888              1259.6526
 Red. masses --      1.4109                 1.2875                 1.3820
 Frc consts  --      1.2352                 1.1705                 1.2920
 IR Inten    --      5.2533                 2.7654                 4.6386

                     49                     50                     51
                      A                      A                      A
 Frequencies --   1263.1961              1268.9871              1276.3328
 Red. masses --      1.6314                 1.2919                 1.5348
 Frc consts  --      1.5338                 1.2257                 1.4731
 IR Inten    --     12.8366                 0.7801                11.9187

                     52                     53                     54
                      A                      A                      A
 Frequencies --   1282.9984              1290.5963              1302.1062
 Red. masses --      1.4642                 1.3348                 1.5588
 Frc consts  --      1.4201                 1.3100                 1.5572
 IR Inten    --     24.8949                 2.6683                38.0969

                     55                     56                     57
                      A                      A                      A
 Frequencies --   1318.8720              1330.9161              1365.8838
 Red. masses --      1.6406                 1.3745                 1.3322
 Frc consts  --      1.6813                 1.4345                 1.4644
 IR Inten    --     10.8248                 4.5226                 3.3965

                     58                     59                     60
                      A                      A                      A
 Frequencies --   1380.7248              1392.1931              1415.8792
 Red. masses --      1.5808                 1.3082                 1.4274
 Frc consts  --      1.7755                 1.4939                 1.6859
 IR Inten    --     18.6889                15.9827                 9.6638

                     61                     62                     63
                      A                      A                      A
 Frequencies --   1428.8279              1434.6975              1454.6629
 Red. masses --      1.3785                 1.3270                 1.4250
 Frc consts  --      1.6581                 1.6093                 1.7767
 IR Inten    --      8.0794                16.5446                29.9828

                     64                     65                     66
                      A                      A                      A
 Frequencies --   1493.1031              1495.1792              1514.1844
 Red. masses --      1.1419                 1.0948                 1.0835
 Frc consts  --      1.4999                 1.4420                 1.4637
 IR Inten    --      7.0057                 6.3656                 8.4605

                     67                     68                     69
                      A                      A                      A
 Frequencies --   1522.6942              1530.8628              1534.2171
 Red. masses --      1.1312                 1.0891                 1.1204
 Frc consts  --      1.5453                 1.5037                 1.5538
 IR Inten    --      2.2239                 3.9745                 7.2567

                     70                     71                     72
                      A                      A                      A
 Frequencies --   1538.7549              1552.1424              1558.9763
 Red. masses --      1.0873                 1.0575                 1.1016
 Frc consts  --      1.5169                 1.5011                 1.5774
 IR Inten    --      0.1744                 7.3531                 4.0687

                     73                     74                     75
                      A                      A                      A
 Frequencies --   1696.9061              2953.2008              2974.0445
 Red. masses --      1.0901                 1.0605                 1.0741
 Frc consts  --      1.8495                 5.4494                 5.5977
 IR Inten    --     25.3426               108.0698                57.8314

                     76                     77                     78
                      A                      A                      A
 Frequencies --   2985.6575              3009.0165              3044.9182
 Red. masses --      1.0718                 1.0726                 1.0759
 Frc consts  --      5.6293                 5.7219                 5.8774
 IR Inten    --     89.3900                93.9644                46.3988

                     79                     80                     81
                      A                      A                      A
 Frequencies --   3055.6730              3066.0335              3070.9748
 Red. masses --      1.0583                 1.0864                 1.0789
 Frc consts  --      5.8222                 6.0172                 5.9951
 IR Inten    --     44.2395                13.6372                29.4470

                     82                     83                     84
                      A                      A                      A
 Frequencies --   3072.3194              3087.2280              3087.6434
 Red. masses --      1.0635                 1.0830                 1.0785
 Frc consts  --      5.9143                 6.0817                 6.0580
 IR Inten    --     21.9311                65.0947                11.2750

                     85                     86                     87
                      A                      A                      A
 Frequencies --   3103.1220              3104.5116              3105.8606
 Red. masses --      1.0923                 1.0979                 1.0938
 Frc consts  --      6.1973                 6.2342                 6.2168
 IR Inten    --     32.4608                17.2234                12.4424

                     88                     89                     90
                      A                      A                      A
 Frequencies --   3108.1450              3112.2975              3137.2050
 Red. masses --      1.0937                 1.1023                 1.1038
 Frc consts  --      6.2254                 6.2911                 6.4009
 IR Inten    --     63.2071                45.9576                38.4301

                     91                     92                     93
                      A                      A                      A
 Frequencies --   3146.6382              3449.7296              3534.2648
 Red. masses --      1.0971                 1.0492                 1.0920
 Frc consts  --      6.4004                 7.3569                 8.0364
 IR Inten    --     16.0196                 2.6190                 1.9226

 - Thermochemistry -
 -------------------
 Temperature   298.150 Kelvin.  Pressure   1.00000 Atm.
 Atom     1 has atomic number  6 and mass  12.00000

 Molecular mass:   184.15756 amu.
 Principal axes and moments of inertia in atomic units:
                           1         2         3
     Eigenvalues --  1465.382833661.405264319.40711
           X            0.99996   0.00712  -0.00610
           Y           -0.00713   0.99997  -0.00311
           Z            0.00608   0.00315   0.99998
 This molecule is an asymmetric top.
 Rotational symmetry number  1.
 Warning -- assumption of classical behavior for rotation
           may cause significant error
 Rotational temperatures (Kelvin)      0.05911     0.02366     0.02005
 Rotational constants (GHZ):           1.23158     0.49291     0.41782
 Zero-point vibrational energy     791137.5 (Joules/Mol)
                                  189.08641 (Kcal/Mol)
 Warning -- explicit consideration of  18 degrees of freedom as
           vibrations may cause significant error
 Vibrational temperatures:     42.85    97.68   106.76   138.01   166.98
          (Kelvin)            202.22   276.58   304.64   320.85   348.00
                              385.90   453.18   488.02   550.22   591.63
                              606.65   686.39   750.99   944.20   999.49
                             1042.79  1162.89  1186.01  1195.55  1201.71
                             1281.08  1298.23  1346.20  1353.11  1358.56
                             1368.27  1389.38  1406.18  1419.87  1452.03
                             1455.17  1555.49  1589.60  1602.68  1617.22
                             1650.80  1665.57  1667.83  1688.45  1746.93
                             1753.82  1787.23  1812.36  1817.46  1825.79
                             1836.36  1845.95  1856.88  1873.44  1897.56
                             1914.89  1965.20  1986.56  2003.06  2037.13
                             2055.76  2064.21  2092.94  2148.24  2151.23
                             2178.57  2190.82  2202.57  2207.40  2213.93
                             2233.19  2243.02  2441.47  4249.00  4278.99
                             4295.70  4329.30  4380.96  4396.43  4411.34
                             4418.45  4420.38  4441.83  4442.43  4464.70
                             4466.70  4468.64  4471.93  4477.90  4513.74
                             4527.31  4963.39  5085.02

 Zero-point correction=                           0.301328 (Hartree/Particle)
 Thermal correction to Energy=                    0.315010
 Thermal correction to Enthalpy=                  0.315954
 Thermal correction to Gibbs Free Energy=         0.260407
 Sum of electronic and zero-point Energies=           -577.514715
 Sum of electronic and thermal Energies=              -577.501034
 Sum of electronic and thermal Enthalpies=            -577.500090
 Sum of electronic and thermal Free Energies=         -577.555637

                     E (Thermal)             CV                S
                      KCal/Mol        Cal/Mol-Kelvin    Cal/Mol-Kelvin
 Total                  197.672             51.865            116.908
 Electronic               0.000              0.000              0.000
 Translational            0.889              2.981             41.538
 Rotational               0.889              2.981             31.517
 Vibrational            195.894             45.903             43.854
 Vibration     1          0.594              1.984              5.844
 Vibration     2          0.598              1.970              4.214
 Vibration     3          0.599              1.966              4.039
 Vibration     4          0.603              1.952              3.536
 Vibration     5          0.608              1.936              3.165
 Vibration     6          0.615              1.913              2.796
 Vibration     7          0.634              1.851              2.206
 Vibration     8          0.643              1.823              2.029
 Vibration     9          0.649              1.806              1.935
 Vibration    10          0.658              1.776              1.789
 Vibration    11          0.673              1.732              1.608
 Vibration    12          0.702              1.645              1.336
 Vibration    13          0.719              1.597              1.216
 Vibration    14          0.752              1.508              1.030
 Vibration    15          0.775              1.446              0.922
 Vibration    16          0.784              1.423              0.886
 Vibration    17          0.834              1.301              0.718
 Vibration    18          0.877              1.201              0.605

                           ! Non-Optimized Parameters !
 Normal termination of Gaussian 16 at Sun Dec 13 12:46:24 2020.

 ----------------------------------------------------------------------
 # B3LYP/6-311++G(d,p) empiricaldispersion=gd3bj scf=xqc pop=npa geom=c
 heck
 ----------------------------------------------------------------------

 ---------------------------------------
 CID_131210682_JID_3892_Energie_neutraal
 ---------------------------------------
 Structure from the checkpoint file:  "JID_3892.chk"
 Charge =  0 Multiplicity = 1

 SCF Done:  E(RB3LYP) =  -577.985430547     A.U. after   14 cycles
 Normal termination of Gaussian 16 at Sun Dec 13 12:50:11 2020.

 ----------------------------------------------------------------------
 # B3LYP/6-311++G(d,p) empiricaldispersion=gd3bj scf=xqc pop=npa geom=c
 heck
 ----------------------------------------------------------------------

 -------------------------------------
 CID_131210682_JID_3892_Energie_kation
 -------------------------------------
 Structure from the checkpoint file:  "JID_3892.chk"
 Charge =  1 Multiplicity = 2

 SCF Done:  E(UB3LYP) =  -577.717573196     A.U. after   19 cycles
 Normal termination of Gaussian 16 at Sun Dec 13 12:56:59 2020.
 Gaussian 16:  ES64L-G16RevA.03 25-Dec-2016

 ----------------------------------------------------------------------
 # B3LYP/6-311++G(d,p) empiricaldispersion=gd3bj scf=xqc pop=npa geom=c
 heck
 ----------------------------------------------------------------------

 ------------------------------------
 CID_131210682_JID_3892_Energie_anion
 ------------------------------------
 Structure from the checkpoint file:  "JID_3892.chk"
 Charge = -1 Multiplicity = 2

                         Standard orientation:
 ---------------------------------------------------------------------
 Center     Atomic      Atomic             Coordinates (Angstroms)
 Number     Number       Type             X           Y           Z
 ---------------------------------------------------------------------
      1          6           0       -0.057307    2.591135   -0.726853
      2          7           0       -0.338458    1.488650    0.163655
      3          6           0        0.791122    0.934054    0.879378
      4          6           0        2.077201    0.658837    0.061241
      5          6           0        1.859324   -0.177687   -1.219699
      6          6           0        2.221176   -1.622039   -0.789105
      7          8           0        2.504924   -1.573056    0.610701
      8          6           0        3.000304   -0.264310    0.868929
      9          6           0       -1.501766    0.672936   -0.073065
     10          6           0       -2.352861    0.187131    1.135397
     11          6           0       -2.690685   -1.106965    0.329224
     12          6           0       -1.451877   -0.817554   -0.555863
     13          7           0       -3.932051   -1.121864   -0.443653
     14          1           0        0.476988    2.314934   -1.654501
     15          1           0        0.557583    3.338713   -0.207575
     16          1           0       -0.993324    3.081306   -1.015027
     17          1           0        1.076153    1.610324    1.703322
     18          1           0        0.477181   -0.004436    1.345649
     19          1           0        2.568771    1.609502   -0.171143
     20          1           0        2.519106    0.165157   -2.022892
     21          1           0        0.833239   -0.095716   -1.582409
     22          1           0        1.407611   -2.338657   -0.933351
     23          1           0        3.102011   -1.987090   -1.338913
     24          1           0        4.048505   -0.168603    0.539052
     25          1           0        2.958537   -0.099656    1.950326
     26          1           0       -2.144631    1.239736   -0.754600
     27          1           0       -1.717256   -0.033023    2.000300
     28          1           0       -3.184825    0.822149    1.461804
     29          1           0       -2.650248   -2.036982    0.904298
     30          1           0       -1.548300   -1.028098   -1.626613
     31          1           0       -0.571762   -1.335147   -0.165652
     32          1           0       -4.728135   -1.095450    0.193230
     33          1           0       -4.000825   -0.275246   -1.008433
 ---------------------------------------------------------------------

 SCF Done:  E(UB3LYP) =  -577.972073230     A.U. after   27 cycles

 The electronic state is 2-A.
 Alpha  occ. eigenvalues --  -19.02664 -14.19830 -14.19702 -10.11735 -10.11608
 Alpha  occ. eigenvalues --  -10.10088 -10.10078 -10.09222 -10.08409 -10.07457
 Alpha  occ. eigenvalues --  -10.06786 -10.06326 -10.06083  -0.94471  -0.82594
 Alpha  occ. eigenvalues --   -0.79486  -0.70975  -0.68984  -0.64572  -0.60038
 Alpha  occ. eigenvalues --   -0.57418  -0.56231  -0.50660  -0.50143  -0.47397
 Alpha  occ. eigenvalues --   -0.43996  -0.42113  -0.40115  -0.39436  -0.38350
 Alpha  occ. eigenvalues --   -0.36907  -0.35688  -0.35197  -0.33612  -0.31517
 Alpha  occ. eigenvalues --   -0.30593  -0.29691  -0.29642  -0.28814  -0.27759
 Alpha  occ. eigenvalues --   -0.27091  -0.25804  -0.24710  -0.23966  -0.22975
 Alpha  occ. eigenvalues --   -0.22603  -0.22130  -0.20731  -0.16426  -0.14376
 Alpha  occ. eigenvalues --   -0.09681   0.04313
 Alpha virt. eigenvalues --    0.06065   0.07232   0.07531   0.08472   0.08855
 Alpha virt. eigenvalues --    0.09380   0.09856   0.10166   0.10881   0.11418
 Alpha virt. eigenvalues --    0.11903   0.12429   0.12933   0.13471   0.13661

  Beta  occ. eigenvalues --  -19.02660 -14.19828 -14.19667 -10.11723 -10.11588
  Beta  occ. eigenvalues --  -10.10075 -10.10072 -10.09209 -10.08375 -10.07444
  Beta  occ. eigenvalues --  -10.06768 -10.06318 -10.06070  -0.94459  -0.82578
  Beta  occ. eigenvalues --   -0.79441  -0.70936  -0.68951  -0.64541  -0.59993
  Beta  occ. eigenvalues --   -0.57376  -0.56201  -0.50615  -0.50096  -0.47353
  Beta  occ. eigenvalues --   -0.43950  -0.42083  -0.40083  -0.39387  -0.38310
  Beta  occ. eigenvalues --   -0.36871  -0.35654  -0.35165  -0.33578  -0.31486
  Beta  occ. eigenvalues --   -0.30564  -0.29665  -0.29606  -0.28797  -0.27732
  Beta  occ. eigenvalues --   -0.27069  -0.25779  -0.24680  -0.23937  -0.22944
  Beta  occ. eigenvalues --   -0.22580  -0.22102  -0.20706  -0.16391  -0.14344
  Beta  occ. eigenvalues --   -0.09665
  Beta virt. eigenvalues --    0.06553   0.07150   0.07787   0.08037   0.08904
  Beta virt. eigenvalues --    0.09450   0.09696   0.10304   0.10539   0.11193
  Beta virt. eigenvalues --    0.11836   0.12272   0.12687   0.13205   0.13717

 Mulliken charges and spin densities:
               1          2
     1  C    0.761826  -1.078982
     2  N    0.170481   0.099415
     3  C    0.751718  -1.551982
     4  C   -0.388423   1.153732
     5  C    0.290730  -0.518817
     6  C   -0.033505  -0.460164
     7  O   -0.098582  -0.000622
     8  C    0.269880  -0.992033
     9  C   -1.717377   1.140786
    10  C   -0.086590  -0.267466
    11  C    0.803072  -0.888642
    12  C    0.347931  -0.710354
    13  N   -0.352834   0.034386
    14  H   -0.082357   0.239724
    15  H   -0.169150   0.307675
    16  H   -0.620017   0.753937
    17  H    0.024637   0.146790
    18  H    0.232911  -0.037147
    19  H   -0.343518   0.563767
    20  H   -0.369781   0.580583
    21  H   -0.162448   0.279201
    22  H    0.127858   0.038893
    23  H   -0.191402   0.325175
    24  H   -0.328545   0.481476
    25  H   -0.041973   0.211046
    26  H   -0.025245   0.187145
    27  H    0.000869   0.099389
    28  H   -0.135750   0.307936
    29  H    0.143635   0.059847
    30  H    0.086484   0.101589
    31  H    0.271418  -0.184142
    32  H   -0.023114   0.244871
    33  H   -0.112842   0.332987
 Sum of Mulliken charges =  -1.00000   1.00000

 Dipole moment (field-independent basis, Debye):
    X=              0.1076    Y=             -3.1878    Z=              2.7040  Tot=              4.1816
 Quadrupole moment (field-independent basis, Debye-Ang):
   XX=           -163.5306   YY=           -128.9934   ZZ=           -116.7702
   XY=             -0.8058   XZ=             -1.1330   YZ=              2.9865

 Summary of Natural Population Analysis:

                                       Natural Population
                Natural  -----------------------------------------------
    Atom  No    Charge         Core      Valence    Rydberg      Total
 -----------------------------------------------------------------------
      C    1   -0.17162      0.99964     2.16348    0.00851     3.17162
      N    2   -0.28520      0.99969     2.77112    0.01439     3.78520
      C    3   -0.07841      0.99959     2.06628    0.01254     3.07841
      C    4   -0.13248      0.99959     2.12059    0.01230     3.13248
      C    5   -0.21074      0.99962     2.20190    0.00923     3.21074
      C    6   -0.01274      0.99961     2.00100    0.01213     3.01274
      O    7   -0.30261      0.99990     3.29445    0.00827     4.30261
      C    8   -0.00904      0.99957     1.99574    0.01373     3.00904
      C    9    0.00288      0.99957     1.98237    0.01518     2.99712
      C   10   -0.20077      0.99961     2.19112    0.01004     3.20077
      C   11   -0.01536      0.99962     2.00194    0.01380     3.01536
      C   12   -0.20570      0.99960     2.19702    0.00908     3.20570
      N   13   -0.41941      0.99977     2.90904    0.01061     3.91941
      H   14    0.08188      0.00000     0.41646    0.00166     0.41812
      H   15    0.09352      0.00000     0.40522    0.00126     0.40648
      H   16    0.09736      0.00000     0.40122    0.00142     0.40264
      H   17    0.09015      0.00000     0.40875    0.00110     0.40985
      H   18    0.09747      0.00000     0.40037    0.00216     0.40253
      H   19    0.10494      0.00000     0.39289    0.00217     0.39506
      H   20    0.10433      0.00000     0.39382    0.00185     0.39567
      H   21    0.10628      0.00000     0.39200    0.00171     0.39372
      H   22    0.08735      0.00000     0.41143    0.00122     0.41265
      H   23    0.07944      0.00000     0.41915    0.00141     0.42056
      H   24    0.08113      0.00000     0.41721    0.00166     0.41887
      H   25    0.09047      0.00000     0.40830    0.00123     0.40953
      H   26    0.09723      0.00000     0.40062    0.00216     0.40277
      H   27    0.09731      0.00000     0.40127    0.00142     0.40269
      H   28    0.09681      0.00000     0.40137    0.00182     0.40319
      H   29    0.08710      0.00000     0.41203    0.00087     0.41290
      H   30    0.10041      0.00000     0.39849    0.00110     0.39959
      H   31    0.10157      0.00000     0.39668    0.00175     0.39843
      H   32    0.17335      0.00000     0.32480    0.00185     0.32665
      H   33    0.17312      0.00000     0.32438    0.00250     0.32688
 =======================================================================
   * Total *   -0.00000     12.99536    37.82251    0.18213    51.00000

 Normal termination of Gaussian 16 at Sun Dec 13 13:06:31 2020.
