 Gaussian 16, Revision A.03,

 -----------------------------------------------------------
 # opt freq B3LYP/6-31G(d) empiricaldispersion=gd3bj scf=xqc
 -----------------------------------------------------------

 ------------------------------
 CID_83878655_JID_3716_neutraal
 ------------------------------
 Symbolic Z-matrix:
 Charge =  0 Multiplicity = 1

 SCF Done:  E(RB3LYP) =  -881.178316358     A.U. after   15 cycles
 SCF Done:  E(RB3LYP) =  -881.183251812     A.U. after   12 cycles
 SCF Done:  E(RB3LYP) =  -881.183755503     A.U. after   11 cycles
 SCF Done:  E(RB3LYP) =  -881.183811321     A.U. after   10 cycles
 SCF Done:  E(RB3LYP) =  -881.183819521     A.U. after    9 cycles
 SCF Done:  E(RB3LYP) =  -881.183821640     A.U. after    8 cycles
 SCF Done:  E(RB3LYP) =  -881.183822234     A.U. after    8 cycles
 Optimization completed.
    -- Stationary point found.
 Normal termination of Gaussian 16 at Mon Dec 14 13:06:08 2020.

 --------------------------------------------------------------------
 #N Geom=AllCheck Guess=TCheck SCRF=Check GenChk RB3LYP/6-31G(d) Freq
 --------------------------------------------------------------------

 Structure from the checkpoint file:  "JID_3716.chk"
 ------------------------------
 CID_83878655_JID_3716_neutraal
 ------------------------------
 Charge =  0 Multiplicity = 1

 SCF Done:  E(RB3LYP) =  -881.183822234     A.U. after    1 cycles

  Exact polarizability: 158.619  -0.655 129.051  -1.915  -0.902  95.335
 Approx polarizability: 223.615  -7.002 219.494  -3.734  -3.182 144.676

                      1                      2                      3
                      A                      A                      A
 Frequencies --     68.7641                95.1520               112.3296
 Red. masses --      4.2271                 3.4861                 3.5951
 Frc consts  --      0.0118                 0.0186                 0.0267
 IR Inten    --      0.0799                 0.1296                 1.0487

                      4                      5                      6
                      A                      A                      A
 Frequencies --    199.8826               223.3207               250.3989
 Red. masses --      2.4659                 2.1375                 4.2814
 Frc consts  --      0.0580                 0.0628                 0.1582
 IR Inten    --      0.5268                 1.0607                 1.5529

                      7                      8                      9
                      A                      A                      A
 Frequencies --    291.6664               308.0087               378.0803
 Red. masses --      2.9300                 2.9721                 2.0163
 Frc consts  --      0.1469                 0.1661                 0.1698
 IR Inten    --      3.5225                 1.4964                 3.3472

                     10                     11                     12
                      A                      A                      A
 Frequencies --    404.4765               419.8626               477.0150
 Red. masses --      3.2218                 2.5179                 4.2017
 Frc consts  --      0.3106                 0.2615                 0.5633
 IR Inten    --      1.9209                 5.3417                 1.4528

                     13                     14                     15
                      A                      A                      A
 Frequencies --    478.8823               544.1046               553.2829
 Red. masses --      2.8989                 2.2845                 4.2157
 Frc consts  --      0.3917                 0.3985                 0.7604
 IR Inten    --      0.8922                 1.6100                 0.3474

                     16                     17                     18
                      A                      A                      A
 Frequencies --    607.0474               651.2093               658.0882
 Red. masses --      5.2605                 1.9571                 2.3776
 Frc consts  --      1.1421                 0.4890                 0.6067
 IR Inten    --      0.7878                23.2880                 8.4708

                     19                     20                     21
                      A                      A                      A
 Frequencies --    722.6670               746.6541               764.1051
 Red. masses --      1.7798                 4.6428                 2.2624
 Frc consts  --      0.5477                 1.5250                 0.7783
 IR Inten    --     20.6754                 2.6631                 0.6753

                     22                     23                     24
                      A                      A                      A
 Frequencies --    809.3916               815.0079               838.2926
 Red. masses --      2.2282                 1.6553                 2.9673
 Frc consts  --      0.8600                 0.6478                 1.2286
 IR Inten    --    144.2921                 0.9298                 0.9286

                     25                     26                     27
                      A                      A                      A
 Frequencies --    867.4374               877.7925               917.9608
 Red. masses --      1.9052                 1.2993                 2.6244
 Frc consts  --      0.8446                 0.5898                 1.3030
 IR Inten    --      7.4990                 0.9250                 7.7316

                     28                     29                     30
                      A                      A                      A
 Frequencies --    927.4357               954.3492               981.9008
 Red. masses --      2.2883                 2.1379                 3.0534
 Frc consts  --      1.1597                 1.1472                 1.7345
 IR Inten    --      5.3225                15.1838                11.1110

                     31                     32                     33
                      A                      A                      A
 Frequencies --    992.7223              1009.3738              1025.2841
 Red. masses --      1.9975                 1.6984                 2.1352
 Frc consts  --      1.1598                 1.0195                 1.3224
 IR Inten    --      0.1809                 3.8670                 8.8412

                     34                     35                     36
                      A                      A                      A
 Frequencies --   1028.8806              1091.7187              1119.0618
 Red. masses --      1.9574                 2.0675                 1.2750
 Frc consts  --      1.2208                 1.4518                 0.9407
 IR Inten    --      1.8480                 0.4895                 4.8073

                     37                     38                     39
                      A                      A                      A
 Frequencies --   1123.0649              1148.7009              1182.5367
 Red. masses --      2.0948                 1.6353                 1.5041
 Frc consts  --      1.5567                 1.2714                 1.2392
 IR Inten    --      2.0698                10.4072                14.5813

                     40                     41                     42
                      A                      A                      A
 Frequencies --   1190.5817              1195.3562              1228.1230
 Red. masses --      2.6420                 2.5055                 1.5160
 Frc consts  --      2.2064                 2.1093                 1.3472
 IR Inten    --      2.0462                19.0465                 4.5593

                     43                     44                     45
                      A                      A                      A
 Frequencies --   1247.1423              1268.5826              1287.0596
 Red. masses --      1.3886                 1.5264                 1.5862
 Frc consts  --      1.2725                 1.4473                 1.5482
 IR Inten    --      8.6244                 4.7809                 1.2280

                     46                     47                     48
                      A                      A                      A
 Frequencies --   1313.4246              1335.5689              1354.0882
 Red. masses --      1.4312                 1.4061                 1.4396
 Frc consts  --      1.4546                 1.4778                 1.5552
 IR Inten    --      8.3843                 1.2381                 1.7960

                     49                     50                     51
                      A                      A                      A
 Frequencies --   1361.6089              1372.1379              1381.0801
 Red. masses --      1.5189                 1.4340                 1.2672
 Frc consts  --      1.6591                 1.5907                 1.4241
 IR Inten    --      4.8927                 1.0087                 4.6373

                     52                     53                     54
                      A                      A                      A
 Frequencies --   1402.6431              1418.8572              1430.5073
 Red. masses --      1.4079                 1.3691                 3.6775
 Frc consts  --      1.6320                 1.6239                 4.4338
 IR Inten    --      1.2447                13.6704                 5.0210

                     55                     56                     57
                      A                      A                      A
 Frequencies --   1495.2385              1496.3819              1509.5514
 Red. masses --      1.4532                 2.5631                 1.1091
 Frc consts  --      1.9142                 3.3814                 1.4890
 IR Inten    --      5.0435                 8.4017                 7.1704

                     58                     59                     60
                      A                      A                      A
 Frequencies --   1512.5290              1515.4805              1520.3124
 Red. masses --      1.0958                 1.1132                 1.1423
 Frc consts  --      1.4770                 1.5063                 1.5556
 IR Inten    --      0.3085                 6.1588                 1.4304

                     61                     62                     63
                      A                      A                      A
 Frequencies --   1523.4873              1533.2589              1602.3676
 Red. masses --      1.1006                 1.1089                 6.6447
 Frc consts  --      1.5051                 1.5359                10.0519
 IR Inten    --      2.5829                 0.9001                 1.0651

                     64                     65                     66
                      A                      A                      A
 Frequencies --   3018.5904              3027.1794              3034.0222
 Red. masses --      1.0645                 1.0629                 1.0681
 Frc consts  --      5.7149                 5.7389                 5.7929
 IR Inten    --     20.6671                30.0317                40.9562

                     67                     68                     69
                      A                      A                      A
 Frequencies --   3036.2865              3039.5923              3062.9824
 Red. masses --      1.0632                 1.0656                 1.0748
 Frc consts  --      5.7752                 5.8005                 5.9409
 IR Inten    --     15.1536                35.8714                12.9894

                     70                     71                     72
                      A                      A                      A
 Frequencies --   3069.1426              3071.7794              3084.5771
 Red. masses --      1.0957                 1.0937                 1.0904
 Frc consts  --      6.0810                 6.0801                 6.1127
 IR Inten    --     59.7747                31.9761                29.5096

                     73                     74                     75
                      A                      A                      A
 Frequencies --   3087.0608              3088.5347              3119.6158
 Red. masses --      1.1024                 1.1025                 1.1014
 Frc consts  --      6.1900                 6.1963                 6.3152
 IR Inten    --     44.5443                70.1607                35.0064

                     76                     77                     78
                      A                      A                      A
 Frequencies --   3217.0103              3266.2681              3460.8088
 Red. masses --      1.0904                 1.0966                 1.0734
 Frc consts  --      6.6488                 6.8929                 7.5747
 IR Inten    --      6.0200                 1.7620                 3.0715

 - Thermochemistry -
 -------------------
 Temperature   298.150 Kelvin.  Pressure   1.00000 Atm.
 Atom     1 has atomic number  6 and mass  12.00000

 Molecular mass:   193.09252 amu.
 Principal axes and moments of inertia in atomic units:
                           1         2         3
     Eigenvalues --  1081.770744052.473374411.27350
           X            1.00000   0.00230  -0.00027
           Y           -0.00230   1.00000   0.00167
           Z            0.00028  -0.00167   1.00000
 This molecule is an asymmetric top.
 Rotational symmetry number  1.
 Warning -- assumption of classical behavior for rotation
           may cause significant error
 Rotational temperatures (Kelvin)      0.08007     0.02137     0.01963
 Rotational constants (GHZ):           1.66832     0.44534     0.40912
 Zero-point vibrational energy     639073.4 (Joules/Mol)
                                  152.74221 (Kcal/Mol)
 Warning -- explicit consideration of  16 degrees of freedom as
           vibrations may cause significant error
 Vibrational temperatures:     98.94   136.90   161.62   287.59   321.31
          (Kelvin)            360.27   419.64   443.16   543.97   581.95
                              604.09   686.32   689.00   782.85   796.05
                              873.41   936.94   946.84  1039.76  1074.27
                             1099.38  1164.53  1172.61  1206.12  1248.05
                             1262.95  1320.74  1334.37  1373.10  1412.74
                             1428.31  1452.26  1475.16  1480.33  1570.74
                             1610.08  1615.84  1652.72  1701.41  1712.98
                             1719.85  1767.00  1794.36  1825.21  1851.79
                             1889.73  1921.59  1948.23  1959.05  1974.20
                             1987.07  2018.09  2041.42  2058.18  2151.31
                             2152.96  2171.91  2176.19  2180.44  2187.39
                             2191.96  2206.02  2305.45  4343.08  4355.44
                             4365.28  4368.54  4373.30  4406.95  4415.81
                             4419.61  4438.02  4441.59  4443.71  4488.43
                             4628.56  4699.43  4979.33

 Zero-point correction=                           0.243410 (Hartree/Particle)
 Thermal correction to Energy=                    0.254380
 Thermal correction to Enthalpy=                  0.255324
 Thermal correction to Gibbs Free Energy=         0.206649
 Sum of electronic and zero-point Energies=           -880.940412
 Sum of electronic and thermal Energies=              -880.929443
 Sum of electronic and thermal Enthalpies=            -880.928498
 Sum of electronic and thermal Free Energies=         -880.977173

                     E (Thermal)             CV                S
                      KCal/Mol        Cal/Mol-Kelvin    Cal/Mol-Kelvin
 Total                  159.626             45.148            102.444
 Electronic               0.000              0.000              0.000
 Translational            0.889              2.981             41.679
 Rotational               0.889              2.981             31.337
 Vibrational            157.848             39.186             29.428
 Vibration     1          0.598              1.969              4.188
 Vibration     2          0.603              1.953              3.551
 Vibration     3          0.607              1.939              3.228
 Vibration     4          0.638              1.840              2.134
 Vibration     5          0.649              1.806              1.932
 Vibration     6          0.663              1.762              1.728
 Vibration     7          0.687              1.689              1.464
 Vibration     8          0.698              1.658              1.373
 Vibration     9          0.748              1.517              1.047
 Vibration    10          0.770              1.460              0.946
 Vibration    11          0.783              1.427              0.892
 Vibration    12          0.834              1.301              0.718
 Vibration    13          0.835              1.297              0.713
 Vibration    14          0.899              1.153              0.557
 Vibration    15          0.909              1.133              0.537
 Vibration    16          0.966              1.017              0.438

                           ! Non-Optimized Parameters !
 Normal termination of Gaussian 16 at Mon Dec 14 13:13:48 2020.

 ----------------------------------------------------------------------
 # B3LYP/6-311++G(d,p) empiricaldispersion=gd3bj scf=xqc pop=npa geom=c
 heck
 ----------------------------------------------------------------------

 --------------------------------------
 CID_83878655_JID_3716_Energie_neutraal
 --------------------------------------
 Structure from the checkpoint file:  "JID_3716.chk"
 Charge =  0 Multiplicity = 1

 SCF Done:  E(RB3LYP) =  -881.338250511     A.U. after   15 cycles
 Normal termination of Gaussian 16 at Mon Dec 14 13:16:47 2020.

 ----------------------------------------------------------------------
 # B3LYP/6-311++G(d,p) empiricaldispersion=gd3bj scf=xqc pop=npa geom=c
 heck
 ----------------------------------------------------------------------

 ------------------------------------
 CID_83878655_JID_3716_Energie_kation
 ------------------------------------
 Structure from the checkpoint file:  "JID_3716.chk"
 Charge =  1 Multiplicity = 2

 SCF Done:  E(UB3LYP) =  -881.053181306     A.U. after   25 cycles
 Normal termination of Gaussian 16 at Mon Dec 14 13:23:23 2020.
 Gaussian 16:  ES64L-G16RevA.03 25-Dec-2016

 ----------------------------------------------------------------------
 # B3LYP/6-311++G(d,p) empiricaldispersion=gd3bj scf=xqc pop=npa geom=c
 heck
 ----------------------------------------------------------------------

 -----------------------------------
 CID_83878655_JID_3716_Energie_anion
 -----------------------------------
 Structure from the checkpoint file:  "JID_3716.chk"
 Charge = -1 Multiplicity = 2

                         Standard orientation:
 ---------------------------------------------------------------------
 Center     Atomic      Atomic             Coordinates (Angstroms)
 Number     Number       Type             X           Y           Z
 ---------------------------------------------------------------------
      1          6           0       -0.961731    2.007688   -0.115805
      2          6           0        0.479301    1.576663   -0.520746
      3          6           0        0.648840    0.068046   -0.120685
      4          6           0        1.486773   -0.719165   -1.147323
      5          6           0        2.972259   -0.332139   -1.092987
      6          7           0        3.573320   -0.476520    0.235984
      7          6           0        2.808956    0.253965    1.250885
      8          6           0        1.308891   -0.080611    1.274256
      9          6           0       -0.795012   -0.384691   -0.068032
     10          6           0       -1.653376    0.677466   -0.064158
     11         16           0       -3.307538    0.176737    0.079498
     12          6           0       -2.816901   -1.501807    0.125535
     13          6           0       -1.457550   -1.645575    0.042646
     14          1           0       -0.977628    2.504834    0.863902
     15          1           0       -1.397527    2.709127   -0.835946
     16          1           0        0.582293    1.665865   -1.608008
     17          1           0        1.239279    2.221661   -0.071036
     18          1           0        1.395813   -1.794171   -0.932126
     19          1           0        1.080285   -0.564292   -2.155180
     20          1           0        3.551106   -0.934472   -1.802395
     21          1           0        3.093542    0.716434   -1.397908
     22          1           0        3.579497   -1.466678    0.482862
     23          1           0        3.256772    0.055519    2.231394
     24          1           0        2.949235    1.325722    1.055881
     25          1           0        1.178314   -1.118180    1.613318
     26          1           0        0.784551    0.553229    2.001497
     27          1           0       -3.569430   -2.275635    0.196502
     28          1           0       -0.961438   -2.610145    0.051868
 ---------------------------------------------------------------------

 SCF Done:  E(UB3LYP) =  -881.322161777     A.U. after   33 cycles
 SCF Done:  E(UB3LYP) =  -881.322161777     a.u. after    1 cycles

 The electronic state is 2-A.
 Alpha  occ. eigenvalues --  -88.77798 -14.18995 -10.10005 -10.09467 -10.08712
 Alpha  occ. eigenvalues --  -10.08534 -10.08476 -10.08319 -10.07797 -10.07097
 Alpha  occ. eigenvalues --  -10.06970 -10.05990 -10.05958  -7.86386  -5.82670
 Alpha  occ. eigenvalues --   -5.82319  -5.81987  -0.80792  -0.79091  -0.72625
 Alpha  occ. eigenvalues --   -0.66862  -0.64697  -0.62818  -0.59911  -0.55156
 Alpha  occ. eigenvalues --   -0.52223  -0.50889  -0.47494  -0.44066  -0.41793
 Alpha  occ. eigenvalues --   -0.40192  -0.37245  -0.36024  -0.34217  -0.33928
 Alpha  occ. eigenvalues --   -0.33545  -0.32134  -0.30461  -0.28489  -0.28005
 Alpha  occ. eigenvalues --   -0.27641  -0.26973  -0.25849  -0.25074  -0.24657
 Alpha  occ. eigenvalues --   -0.24237  -0.23115  -0.21403  -0.21170  -0.15200
 Alpha  occ. eigenvalues --   -0.12613  -0.11984   0.04632
 Alpha virt. eigenvalues --    0.06595   0.07105   0.07282   0.08021   0.08462
 Alpha virt. eigenvalues --    0.09526   0.09621   0.09922   0.11017   0.11187
 Alpha virt. eigenvalues --    0.11778   0.12388   0.13064   0.13099   0.13268

  Beta  occ. eigenvalues --  -88.77795 -14.18974 -10.09990 -10.09461 -10.08714
  Beta  occ. eigenvalues --  -10.08518 -10.08457 -10.08295 -10.07782 -10.07076
  Beta  occ. eigenvalues --  -10.06969 -10.05970 -10.05932  -7.86383  -5.82666
  Beta  occ. eigenvalues --   -5.82316  -5.81983  -0.80755  -0.79069  -0.72600
  Beta  occ. eigenvalues --   -0.66828  -0.64656  -0.62792  -0.59873  -0.55106
  Beta  occ. eigenvalues --   -0.52162  -0.50827  -0.47455  -0.44015  -0.41757
  Beta  occ. eigenvalues --   -0.40137  -0.37213  -0.35980  -0.34184  -0.33880
  Beta  occ. eigenvalues --   -0.33502  -0.32094  -0.30437  -0.28457  -0.27966
  Beta  occ. eigenvalues --   -0.27604  -0.26947  -0.25815  -0.25032  -0.24622
  Beta  occ. eigenvalues --   -0.24196  -0.23090  -0.21371  -0.21136  -0.15175
  Beta  occ. eigenvalues --   -0.12576  -0.11942
  Beta virt. eigenvalues --    0.06868   0.07284   0.07572   0.07873   0.08597
  Beta virt. eigenvalues --    0.08902   0.10033   0.10232   0.10441   0.11312
  Beta virt. eigenvalues --    0.11456   0.12025   0.12810   0.13288   0.13479

 Mulliken charges and spin densities:
               1          2
     1  C    2.252396  -2.694887
     2  C    0.005363  -0.499926
     3  C    2.446027  -1.557939
     4  C   -1.365352   0.878964
     5  C    0.981591  -1.605639
     6  N   -0.384316   0.313017
     7  C    1.463883  -2.057364
     8  C   -1.035259   0.416766
     9  C   -0.371954  -0.312355
    10  C   -2.839786   4.210618
    11  S   -0.377383  -0.257332
    12  C    0.635479  -1.013100
    13  C    0.352784  -0.243072
    14  H   -0.208568   0.389694
    15  H   -0.104913   0.275322
    16  H   -0.027312   0.223870
    17  H   -0.027450   0.145985
    18  H   -0.097422   0.245200
    19  H   -0.114085   0.277509
    20  H   -0.503706   0.703013
    21  H    0.029425   0.121313
    22  H   -0.066888   0.298377
    23  H   -0.241885   0.430299
    24  H   -0.004308   0.157823
    25  H   -0.007210   0.187293
    26  H   -0.261069   0.424792
    27  H   -0.204871   0.436864
    28  H   -0.923212   1.104896
 Sum of Mulliken charges =  -1.00000   1.00000

 Dipole moment (field-independent basis, Debye):
    X=             -4.3279    Y=              2.4762    Z=             -0.6009  Tot=              5.0223
 Quadrupole moment (field-independent basis, Debye-Ang):
   XX=           -148.2617   YY=           -134.9742   ZZ=           -124.3647
   XY=              4.7546   XZ=             -0.6308   YZ=             -2.1520

 Summary of Natural Population Analysis:

                                       Natural Population
                Natural  -----------------------------------------------
    Atom  No    Charge         Core      Valence    Rydberg      Total
 -----------------------------------------------------------------------
      C    1   -0.19891      0.99958     2.18981    0.00951     3.19891
      C    2   -0.17762      0.99961     2.16868    0.00933     3.17762
      C    3   -0.04156      0.99952     2.02757    0.01446     3.04156
      C    4   -0.19442      0.99959     2.18452    0.01032     3.19442
      C    5   -0.08820      0.99962     2.07678    0.01181     3.08820
      N    6   -0.33665      0.99976     2.82418    0.01271     3.83665
      C    7   -0.08840      0.99962     2.07713    0.01166     3.08840
      C    8   -0.19443      0.99958     2.18491    0.00994     3.19443
      C    9   -0.03889      0.99937     2.02474    0.01479     3.03889
      C   10   -0.09669      0.99932     2.08614    0.01123     3.09669
      S   11    0.19790      4.99940     2.78167    0.02104     7.80210
      C   12   -0.18970      0.99954     2.17970    0.01045     3.18970
      C   13   -0.11905      0.99947     2.10821    0.01137     3.11905
      H   14    0.10344      0.00000     0.39489    0.00167     0.39656
      H   15    0.10315      0.00000     0.39567    0.00119     0.39685
      H   16    0.09908      0.00000     0.39957    0.00134     0.40092
      H   17    0.10151      0.00000     0.39712    0.00137     0.39849
      H   18    0.09885      0.00000     0.39883    0.00232     0.40115
      H   19    0.10112      0.00000     0.39753    0.00135     0.39888
      H   20    0.09656      0.00000     0.40230    0.00114     0.40344
      H   21    0.08764      0.00000     0.41091    0.00145     0.41236
      H   22    0.17020      0.00000     0.32665    0.00315     0.32980
      H   23    0.09658      0.00000     0.40237    0.00105     0.40342
      H   24    0.08737      0.00000     0.41110    0.00153     0.41263
      H   25    0.09985      0.00000     0.39817    0.00198     0.40015
      H   26    0.10205      0.00000     0.39643    0.00151     0.39795
      H   27    0.10708      0.00000     0.39199    0.00093     0.39292
      H   28    0.11216      0.00000     0.38606    0.00178     0.38784
 =======================================================================
   * Total *   -0.00000     16.99399    34.82362    0.18239    52.00000

 Normal termination of Gaussian 16 at Mon Dec 14 13:32:12 2020.
