 Gaussian 16, Revision A.03,

 -----------------------------------------------------------
 # opt freq B3LYP/6-31G(d) empiricaldispersion=gd3bj scf=xqc
 -----------------------------------------------------------

 ------------------------------
 CID_91656368_JID_3710_neutraal
 ------------------------------
 Symbolic Z-matrix:
 Charge =  0 Multiplicity = 1

 SCF Done:  E(RB3LYP) =  -902.265469374     A.U. after   14 cycles
 SCF Done:  E(RB3LYP) =  -902.267701641     A.U. after   13 cycles
 SCF Done:  E(RB3LYP) =  -902.266762257     A.U. after   14 cycles
 SCF Done:  E(RB3LYP) =  -902.268233719     A.U. after   12 cycles
 SCF Done:  E(RB3LYP) =  -902.268862005     A.U. after   12 cycles
 SCF Done:  E(RB3LYP) =  -902.269159950     A.U. after   12 cycles
 SCF Done:  E(RB3LYP) =  -902.269665522     A.U. after   13 cycles
 SCF Done:  E(RB3LYP) =  -902.269614956     A.U. after   12 cycles
 SCF Done:  E(RB3LYP) =  -902.270355048     A.U. after   12 cycles
 SCF Done:  E(RB3LYP) =  -902.270609210     A.U. after   12 cycles
 SCF Done:  E(RB3LYP) =  -902.270673244     A.U. after   10 cycles
 SCF Done:  E(RB3LYP) =  -902.270685643     A.U. after   11 cycles
 SCF Done:  E(RB3LYP) =  -902.270690122     A.U. after    9 cycles
 SCF Done:  E(RB3LYP) =  -902.270690439     A.U. after    8 cycles
 SCF Done:  E(RB3LYP) =  -902.270690453     A.U. after    7 cycles
 Optimization completed.
    -- Stationary point found.
 Normal termination of Gaussian 16 at Wed Dec  9 23:42:07 2020.

 --------------------------------------------------------------------
 #N Geom=AllCheck Guess=TCheck SCRF=Check GenChk RB3LYP/6-31G(d) Freq
 --------------------------------------------------------------------

 Structure from the checkpoint file:  "JID_3710.chk"
 ------------------------------
 CID_91656368_JID_3710_neutraal
 ------------------------------
 Charge =  0 Multiplicity = 1

 SCF Done:  E(RB3LYP) =  -902.270690453     A.U. after    1 cycles

  Exact polarizability: 157.294  12.665 151.492 -14.799   4.795  94.696
 Approx polarizability: 222.609  18.933 234.749 -29.422  13.107 141.294

                      1                      2                      3
                      A                      A                      A
 Frequencies --     27.4016                34.4284                69.5152
 Red. masses --      3.7207                 3.6227                 2.8165
 Frc consts  --      0.0016                 0.0025                 0.0080
 IR Inten    --      0.3095                 0.0641                 0.9237

                      4                      5                      6
                      A                      A                      A
 Frequencies --     79.6917               107.8981               124.4130
 Red. masses --      2.9344                 3.7208                 2.7108
 Frc consts  --      0.0110                 0.0255                 0.0247
 IR Inten    --      1.9726                 1.1457                 0.2145

                      7                      8                      9
                      A                      A                      A
 Frequencies --    163.9541               177.9298               227.9015
 Red. masses --      1.1896                 1.7104                 3.7970
 Frc consts  --      0.0188                 0.0319                 0.1162
 IR Inten    --      0.7986                 0.9356                 1.4671

                     10                     11                     12
                      A                      A                      A
 Frequencies --    246.3383               258.1215               287.2585
 Red. masses --      2.2000                 5.3592                 1.4995
 Frc consts  --      0.0787                 0.2104                 0.0729
 IR Inten    --      0.5555                 0.8708                 1.0476

                     13                     14                     15
                      A                      A                      A
 Frequencies --    305.6612               360.5844               409.1414
 Red. masses --      4.4213                 2.3110                 5.1157
 Frc consts  --      0.2434                 0.1770                 0.5045
 IR Inten    --      0.6113                 0.2802                 0.2619

                     16                     17                     18
                      A                      A                      A
 Frequencies --    471.8548               479.7091               523.0489
 Red. masses --      3.5671                 3.3928                 3.3415
 Frc consts  --      0.4679                 0.4600                 0.5386
 IR Inten    --      2.5345                 1.4946                 0.7840

                     19                     20                     21
                      A                      A                      A
 Frequencies --    557.7750               621.4910               695.5552
 Red. masses --      3.8612                 5.5301                 5.6477
 Frc consts  --      0.7078                 1.2585                 1.6099
 IR Inten    --      0.0016                 1.5347                 2.5729

                     22                     23                     24
                      A                      A                      A
 Frequencies --    716.3074               737.1505               754.4968
 Red. masses --      6.3387                 3.3380                 1.2711
 Frc consts  --      1.9162                 1.0687                 0.4263
 IR Inten    --      2.9025                 1.6917                20.8060

                     25                     26                     27
                      A                      A                      A
 Frequencies --    767.1527               822.3198               839.9490
 Red. masses --      1.3120                 2.4293                 2.9435
 Frc consts  --      0.4549                 0.9679                 1.2236
 IR Inten    --     41.2499                 0.7784                 3.9283

                     28                     29                     30
                      A                      A                      A
 Frequencies --    859.2250               900.8946               939.9476
 Red. masses --      1.4337                 1.7256                 1.3371
 Frc consts  --      0.6236                 0.8252                 0.6960
 IR Inten    --      0.8543                 9.9331                 1.8240

                     31                     32                     33
                      A                      A                      A
 Frequencies --    974.5306               981.3814               993.7122
 Red. masses --      1.2612                 1.8735                 1.1768
 Frc consts  --      0.7057                 1.0631                 0.6847
 IR Inten    --      0.1538                 2.8705                10.2089

                     34                     35                     36
                      A                      A                      A
 Frequencies --   1005.0051              1011.8040              1041.4230
 Red. masses --      1.5154                 1.3063                 2.2155
 Frc consts  --      0.9018                 0.7879                 1.4157
 IR Inten    --      8.5352                21.7270                35.3709

                     37                     38                     39
                      A                      A                      A
 Frequencies --   1071.8333              1091.1473              1107.8165
 Red. masses --      4.0987                 2.2578                 2.5630
 Frc consts  --      2.7743                 1.5838                 1.8533
 IR Inten    --      9.0821                 2.4792                37.9003

                     40                     41                     42
                      A                      A                      A
 Frequencies --   1148.9097              1164.0911              1172.8604
 Red. masses --      1.8507                 1.7080                 1.9608
 Frc consts  --      1.4393                 1.3637                 1.5892
 IR Inten    --      0.8753                11.0588                 7.1565

                     43                     44                     45
                      A                      A                      A
 Frequencies --   1198.2313              1264.4849              1285.7049
 Red. masses --      1.0930                 1.1715                 1.6192
 Frc consts  --      0.9246                 1.1036                 1.5770
 IR Inten    --      5.3905                 4.9358                54.3656

                     46                     47                     48
                      A                      A                      A
 Frequencies --   1294.7174              1315.9628              1339.3391
 Red. masses --      1.7621                 1.9548                 1.1285
 Frc consts  --      1.7403                 1.9945                 1.1927
 IR Inten    --     74.3402               131.6603                 1.5461

                     49                     50                     51
                      A                      A                      A
 Frequencies --   1347.6157              1376.6661              1395.0326
 Red. masses --      6.4420                 1.1720                 1.3428
 Frc consts  --      6.8929                 1.3087                 1.5397
 IR Inten    --     19.8232                 9.2538                 5.5853

                     52                     53                     54
                      A                      A                      A
 Frequencies --   1410.5885              1438.9924              1445.9520
 Red. masses --      1.4831                 1.3080                 1.3367
 Frc consts  --      1.7387                 1.5957                 1.6466
 IR Inten    --      1.5674                26.1026                 7.6149

                     55                     56                     57
                      A                      A                      A
 Frequencies --   1489.7082              1493.9125              1506.1899
 Red. masses --      2.1425                 1.0819                 1.0905
 Frc consts  --      2.8014                 1.4226                 1.4576
 IR Inten    --     33.4015                 4.7923                 4.9734

                     58                     59                     60
                      A                      A                      A
 Frequencies --   1520.6294              1523.5118              1525.3567
 Red. masses --      1.1146                 1.4345                 1.2385
 Frc consts  --      1.5185                 1.9617                 1.6978
 IR Inten    --     17.1875                35.6592                51.8463

                     61                     62                     63
                      A                      A                      A
 Frequencies --   1531.2367              1538.5407              1556.4889
 Red. masses --      1.0676                 1.1664                 1.1297
 Frc consts  --      1.4748                 1.6268                 1.6125
 IR Inten    --     12.3368                10.6015                 2.4874

                     64                     65                     66
                      A                      A                      A
 Frequencies --   1633.7436              1646.2524              3022.5867
 Red. masses --      5.9306                 5.5211                 1.0578
 Frc consts  --      9.3265                 8.8159                 5.6942
 IR Inten    --      3.4294                42.7040                22.3716

                     67                     68                     69
                      A                      A                      A
 Frequencies --   3038.5012              3044.2772              3051.4797
 Red. masses --      1.0590                 1.0420                 1.0654
 Frc consts  --      5.7603                 5.6897                 5.8450
 IR Inten    --     25.5028                27.8964                37.3133

                     70                     71                     72
                      A                      A                      A
 Frequencies --   3063.6358              3072.5999              3082.2323
 Red. masses --      1.1050                 1.0300                 1.1018
 Frc consts  --      6.1106                 5.7292                 6.1671
 IR Inten    --     23.6905                32.2831                43.6309

                     73                     74                     75
                      A                      A                      A
 Frequencies --   3094.7494              3114.1529              3120.7431
 Red. masses --      1.0977                 1.1001                 1.1024
 Frc consts  --      6.1940                 6.2859                 6.3257
 IR Inten    --     14.5565                49.2283                51.9177

                     76                     77                     78
                      A                      A                      A
 Frequencies --   3155.5406              3179.2913              3189.4936
 Red. masses --      1.1059                 1.1059                 1.0859
 Frc consts  --      6.4880                 6.5861                 6.5084
 IR Inten    --      9.8283                 4.2198                 2.6517

                     79                     80                     81
                      A                      A                      A
 Frequencies --   3202.6090              3215.4682              3228.6714
 Red. masses --      1.0903                 1.0953                 1.0923
 Frc consts  --      6.5886                 6.6725                 6.7085
 IR Inten    --     13.5587                23.6108                10.6099

 - Thermochemistry -
 -------------------
 Temperature   298.150 Kelvin.  Pressure   1.00000 Atm.
 Atom     1 has atomic number  6 and mass  12.00000

 Molecular mass:   196.09219 amu.
 Principal axes and moments of inertia in atomic units:
                           1         2         3
     Eigenvalues --  1957.606263702.870844819.59869
           X            0.99996  -0.00184   0.00831
           Y            0.00205   0.99967  -0.02576
           Z           -0.00826   0.02577   0.99963
 This molecule is an asymmetric top.
 Rotational symmetry number  1.
 Warning -- assumption of classical behavior for rotation
           may cause significant error
 Rotational temperatures (Kelvin)      0.04424     0.02339     0.01797
 Rotational constants (GHZ):           0.92191     0.48739     0.37446
 Zero-point vibrational energy     653678.6 (Joules/Mol)
                                  156.23293 (Kcal/Mol)
 Warning -- explicit consideration of  19 degrees of freedom as
           vibrations may cause significant error
 Vibrational temperatures:     39.42    49.53   100.02   114.66   155.24
          (Kelvin)            179.00   235.89   256.00   327.90   354.43
                              371.38   413.30   439.78   518.80   588.66
                              678.89   690.19   752.55   802.51   894.19
                             1000.75  1030.61  1060.60  1085.55  1103.76
                             1183.13  1208.50  1236.23  1296.19  1352.37
                             1402.13  1411.99  1429.73  1445.98  1455.76
                             1498.38  1542.13  1569.92  1593.90  1653.02
                             1674.87  1687.48  1723.99  1819.31  1849.84
                             1862.81  1893.38  1927.01  1938.92  1980.72
                             2007.14  2029.52  2070.39  2080.40  2143.36
                             2149.41  2167.07  2187.85  2191.99  2194.65
                             2203.11  2213.62  2239.44  2350.59  2368.59
                             4348.83  4371.73  4380.04  4390.40  4407.89
                             4420.79  4434.64  4452.65  4480.57  4490.05
                             4540.12  4574.29  4588.97  4607.84  4626.34
                             4645.34

 Zero-point correction=                           0.248973 (Hartree/Particle)
 Thermal correction to Energy=                    0.263085
 Thermal correction to Enthalpy=                  0.264029
 Thermal correction to Gibbs Free Energy=         0.206469
 Sum of electronic and zero-point Energies=           -902.021717
 Sum of electronic and thermal Energies=              -902.007605
 Sum of electronic and thermal Enthalpies=            -902.006661
 Sum of electronic and thermal Free Energies=         -902.064222

                     E (Thermal)             CV                S
                      KCal/Mol        Cal/Mol-Kelvin    Cal/Mol-Kelvin
 Total                  165.088             51.743            121.146
 Electronic               0.000              0.000              0.000
 Translational            0.889              2.981             41.725
 Rotational               0.889              2.981             31.924
 Vibrational            163.311             45.782             47.496
 Vibration     1          0.593              1.984              6.009
 Vibration     2          0.594              1.983              5.556
 Vibration     3          0.598              1.969              4.167
 Vibration     4          0.600              1.963              3.898
 Vibration     5          0.606              1.943              3.306
 Vibration     6          0.610              1.929              3.031
 Vibration     7          0.623              1.887              2.504
 Vibration     8          0.628              1.869              2.350
 Vibration     9          0.651              1.798              1.895
 Vibration    10          0.661              1.769              1.757
 Vibration    11          0.667              1.749              1.674
 Vibration    12          0.684              1.697              1.490
 Vibration    13          0.696              1.663              1.386
 Vibration    14          0.735              1.553              1.120
 Vibration    15          0.774              1.450              0.930
 Vibration    16          0.829              1.312              0.732
 Vibration    17          0.836              1.295              0.711
 Vibration    18          0.878              1.199              0.603
 Vibration    19          0.913              1.123              0.528

                           ! Non-Optimized Parameters !
 Normal termination of Gaussian 16 at Wed Dec  9 23:50:10 2020.

 ----------------------------------------------------------------------
 # B3LYP/6-311++G(d,p) empiricaldispersion=gd3bj scf=xqc pop=npa geom=c
 heck
 ----------------------------------------------------------------------

 --------------------------------------
 CID_91656368_JID_3710_Energie_neutraal
 --------------------------------------
 Structure from the checkpoint file:  "JID_3710.chk"
 Charge =  0 Multiplicity = 1

 SCF Done:  E(RB3LYP) =  -902.434021681     A.U. after   15 cycles
 Normal termination of Gaussian 16 at Wed Dec  9 23:54:04 2020.

 ----------------------------------------------------------------------
 # B3LYP/6-311++G(d,p) empiricaldispersion=gd3bj scf=xqc pop=npa geom=c
 heck
 ----------------------------------------------------------------------

 ------------------------------------
 CID_91656368_JID_3710_Energie_kation
 ------------------------------------
 Structure from the checkpoint file:  "JID_3710.chk"
 Charge =  1 Multiplicity = 2

 SCF Done:  E(UB3LYP) =  -902.149771440     A.U. after   24 cycles
 Normal termination of Gaussian 16 at Thu Dec 10 00:03:04 2020.
 Gaussian 16:  ES64L-G16RevA.03 25-Dec-2016

 ----------------------------------------------------------------------
 # B3LYP/6-311++G(d,p) empiricaldispersion=gd3bj scf=xqc pop=npa geom=c
 heck
 ----------------------------------------------------------------------

 -----------------------------------
 CID_91656368_JID_3710_Energie_anion
 -----------------------------------
 Structure from the checkpoint file:  "JID_3710.chk"
 Charge = -1 Multiplicity = 2

                         Standard orientation:
 ---------------------------------------------------------------------
 Center     Atomic      Atomic             Coordinates (Angstroms)
 Number     Number       Type             X           Y           Z
 ---------------------------------------------------------------------
      1          6           0        3.414471   -0.557617    1.622162
      2          6           0        3.341652    0.295233    0.352607
      3          6           0        2.965943   -0.495747   -0.909141
      4          6           0        1.617416   -1.196480   -0.820409
      5          8           0        0.639330   -0.201628   -0.523695
      6          6           0       -0.633808   -0.584315   -0.237186
      7          6           0       -1.104982   -1.892038   -0.392031
      8          6           0       -2.425077   -2.203740   -0.059450
      9          6           0       -3.285561   -1.219651    0.418746
     10          6           0       -2.819976    0.089767    0.553202
     11          6           0       -1.502314    0.425346    0.234527
     12         16           0       -0.932041    2.091144    0.528644
     13          6           0       -0.421666    2.610476   -1.152558
     14          1           0        2.431148   -0.955976    1.895170
     15          1           0        3.770246    0.036342    2.470782
     16          1           0        4.099817   -1.405780    1.497200
     17          1           0        2.611128    1.098576    0.497408
     18          1           0        4.312502    0.776481    0.178617
     19          1           0        2.954450    0.178477   -1.774747
     20          1           0        3.724559   -1.263579   -1.114765
     21          1           0        1.373000   -1.693021   -1.769819
     22          1           0        1.615455   -1.957909   -0.029798
     23          1           0       -0.448771   -2.669078   -0.765726
     24          1           0       -2.774422   -3.225176   -0.181307
     25          1           0       -4.312404   -1.461159    0.675368
     26          1           0       -3.479639    0.873976    0.911320
     27          1           0        0.396897    1.985694   -1.511290
     28          1           0       -1.267137    2.562160   -1.843136
     29          1           0       -0.085396    3.647290   -1.066838
 ---------------------------------------------------------------------

 SCF Done:  E(UB3LYP) =  -902.419456130     A.U. after   33 cycles
 SCF Done:  E(UB3LYP) =  -902.419456130     a.u. after    1 cycles

 The electronic state is 2-A.
 Alpha  occ. eigenvalues --  -88.74339 -19.05412 -10.14183 -10.12299 -10.10194
 Alpha  occ. eigenvalues --  -10.08876 -10.08322 -10.08020 -10.07686 -10.07562
 Alpha  occ. eigenvalues --  -10.06762 -10.06294 -10.05807  -7.82915  -5.79328
 Alpha  occ. eigenvalues --   -5.78954  -5.78269  -0.97328  -0.76574  -0.70426
 Alpha  occ. eigenvalues --   -0.69535  -0.65290  -0.64139  -0.61694  -0.55801
 Alpha  occ. eigenvalues --   -0.54892  -0.50880  -0.48912  -0.46750  -0.43613
 Alpha  occ. eigenvalues --   -0.39154  -0.38817  -0.38270  -0.35359  -0.34344
 Alpha  occ. eigenvalues --   -0.33706  -0.32789  -0.32332  -0.31109  -0.30248
 Alpha  occ. eigenvalues --   -0.28850  -0.28776  -0.27154  -0.26694  -0.25368
 Alpha  occ. eigenvalues --   -0.24191  -0.23185  -0.22855  -0.22019  -0.21512
 Alpha  occ. eigenvalues --   -0.16711  -0.13767  -0.11977   0.04470
 Alpha virt. eigenvalues --    0.06327   0.06547   0.07400   0.07572   0.08584
 Alpha virt. eigenvalues --    0.08744   0.09025   0.09822   0.09905   0.10539
 Alpha virt. eigenvalues --    0.11196   0.11277   0.12020   0.12614   0.13274

  Beta  occ. eigenvalues --  -88.74335 -19.05403 -10.14166 -10.12272 -10.10172
  Beta  occ. eigenvalues --  -10.08828 -10.08309 -10.07969 -10.07675 -10.07559
  Beta  occ. eigenvalues --  -10.06734 -10.06283 -10.05783  -7.82911  -5.79320
  Beta  occ. eigenvalues --   -5.78948  -5.78266  -0.97309  -0.76525  -0.70380
  Beta  occ. eigenvalues --   -0.69477  -0.65249  -0.64076  -0.61642  -0.55744
  Beta  occ. eigenvalues --   -0.54811  -0.50836  -0.48858  -0.46686  -0.43552
  Beta  occ. eigenvalues --   -0.39112  -0.38778  -0.38227  -0.35323  -0.34311
  Beta  occ. eigenvalues --   -0.33659  -0.32739  -0.32287  -0.31062  -0.30206
  Beta  occ. eigenvalues --   -0.28803  -0.28698  -0.27100  -0.26660  -0.25317
  Beta  occ. eigenvalues --   -0.24131  -0.23151  -0.22796  -0.21954  -0.21460
  Beta  occ. eigenvalues --   -0.16587  -0.13703  -0.11904
  Beta virt. eigenvalues --    0.06611   0.06817   0.07282   0.07793   0.08173
  Beta virt. eigenvalues --    0.08967   0.09122   0.09236   0.10134   0.10447
  Beta virt. eigenvalues --    0.10882   0.11612   0.11674   0.12193   0.12979

 Mulliken charges and spin densities:
               1          2
     1  C    0.846219  -1.427890
     2  C   -0.798105   0.743661
     3  C    0.778402  -1.307809
     4  C    0.359267  -0.499329
     5  O   -0.017947   0.036982
     6  C   -1.846934   0.642508
     7  C    1.008673  -1.085755
     8  C    0.545551  -0.983558
     9  C    0.072733  -0.312121
    10  C   -0.233143   0.420631
    11  C    0.598636   0.801482
    12  S    0.177825  -0.435287
    13  C   -0.119587  -0.495282
    14  H    0.042898   0.094688
    15  H   -0.066795   0.197617
    16  H   -0.177365   0.309215
    17  H   -0.015236   0.142458
    18  H   -0.262512   0.430709
    19  H   -0.150932   0.305677
    20  H   -0.462253   0.623308
    21  H   -0.399563   0.573150
    22  H    0.032730   0.135248
    23  H   -0.438836   0.617660
    24  H   -0.433347   0.603133
    25  H   -0.100130   0.240341
    26  H    0.138181   0.031575
    27  H    0.185329   0.017087
    28  H   -0.100142   0.258852
    29  H   -0.163616   0.321051
 Sum of Mulliken charges =  -1.00000   1.00000

 Dipole moment (field-independent basis, Debye):
    X=             -3.7765    Y=              2.7227    Z=              2.2252  Tot=              5.1601
 Quadrupole moment (field-independent basis, Debye-Ang):
   XX=           -151.8715   YY=           -139.8533   ZZ=           -122.5379
   XY=              0.3878   XZ=              0.3598   YZ=             -3.0746

 Summary of Natural Population Analysis:

                                       Natural Population
                Natural  -----------------------------------------------
    Atom  No    Charge         Core      Valence    Rydberg      Total
 -----------------------------------------------------------------------
      C    1   -0.28792      0.99967     2.28304    0.00521     3.28792
      C    2   -0.19428      0.99964     2.18593    0.00871     3.19428
      C    3   -0.19504      0.99962     2.18586    0.00956     3.19504
      C    4   -0.01173      0.99956     1.99955    0.01262     3.01173
      O    5   -0.27967      0.99985     3.26817    0.01165     4.27967
      C    6    0.16625      0.99931     1.82061    0.01382     2.83375
      C    7   -0.13971      0.99952     2.13087    0.00933     3.13971
      C    8   -0.08349      0.99957     2.07371    0.01021     3.08349
      C    9   -0.12127      0.99956     2.11077    0.01094     3.12127
      C   10   -0.09452      0.99951     2.08511    0.00991     3.09452
      C   11   -0.11100      0.99937     2.09792    0.01371     3.11100
      S   12    0.10675      4.99956     2.87293    0.02076     7.89325
      C   13   -0.34511      0.99961     2.33917    0.00632     3.34511
      H   14    0.09733      0.00000     0.40158    0.00109     0.40267
      H   15    0.09782      0.00000     0.40133    0.00085     0.40218
      H   16    0.09552      0.00000     0.40341    0.00107     0.40448
      H   17    0.10237      0.00000     0.39594    0.00169     0.39763
      H   18    0.09432      0.00000     0.40453    0.00114     0.40568
      H   19    0.10012      0.00000     0.39829    0.00159     0.39988
      H   20    0.10040      0.00000     0.39763    0.00197     0.39960
      H   21    0.08879      0.00000     0.40922    0.00200     0.41121
      H   22    0.08644      0.00000     0.41170    0.00187     0.41356
      H   23    0.10908      0.00000     0.38917    0.00175     0.39092
      H   24    0.10112      0.00000     0.39763    0.00125     0.39888
      H   25    0.09961      0.00000     0.39961    0.00078     0.40039
      H   26    0.10277      0.00000     0.39596    0.00127     0.39723
      H   27    0.11099      0.00000     0.38707    0.00195     0.38901
      H   28    0.10023      0.00000     0.39819    0.00158     0.39977
      H   29    0.10385      0.00000     0.39489    0.00127     0.39615
 =======================================================================
   * Total *   -0.00000     16.99435    35.83979    0.16586    53.00000

 Normal termination of Gaussian 16 at Thu Dec 10 00:15:43 2020.
