 Gaussian 16, Revision A.03,

 -----------------------------------------------------------
 # opt freq B3LYP/6-31G(d) empiricaldispersion=gd3bj scf=xqc
 -----------------------------------------------------------

 ------------------------------
 CID_79840959_JID_8886_neutraal
 ------------------------------
 Symbolic Z-matrix:
 Charge =  0 Multiplicity = 1

 SCF Done:  E(RB3LYP) =  -789.532502175     A.U. after   15 cycles
 SCF Done:  E(RB3LYP) =  -789.537195246     A.U. after   12 cycles
 SCF Done:  E(RB3LYP) =  -789.538113787     A.U. after   12 cycles
 SCF Done:  E(RB3LYP) =  -789.531551386     A.U. after   14 cycles
 SCF Done:  E(RB3LYP) =  -789.537391616     A.U. after   13 cycles
 SCF Done:  E(RB3LYP) =  -789.538482225     A.U. after   10 cycles
 SCF Done:  E(RB3LYP) =  -789.539137007     A.U. after   12 cycles
 SCF Done:  E(RB3LYP) =  -789.537709551     A.U. after   13 cycles
 SCF Done:  E(RB3LYP) =  -789.539436774     A.U. after   13 cycles
 SCF Done:  E(RB3LYP) =  -789.540055005     A.U. after   12 cycles
 SCF Done:  E(RB3LYP) =  -789.540439695     A.U. after    7 cycles
 SCF Done:  E(RB3LYP) =  -789.540440245     A.U. after    8 cycles
 SCF Done:  E(RB3LYP) =  -789.540440677     A.U. after    8 cycles
 SCF Done:  E(RB3LYP) =  -789.540440782     A.U. after    7 cycles
 Optimization completed.
    -- Stationary point found.
 Normal termination of Gaussian 16 at Fri Dec 11 23:07:21 2020.

 --------------------------------------------------------------------
 #N Geom=AllCheck Guess=TCheck SCRF=Check GenChk RB3LYP/6-31G(d) Freq
 --------------------------------------------------------------------

 Structure from the checkpoint file:  "JID_8886.chk"
 ------------------------------
 CID_79840959_JID_8886_neutraal
 ------------------------------
 Charge =  0 Multiplicity = 1

 SCF Done:  E(RB3LYP) =  -789.540440782     A.U. after    1 cycles

  Exact polarizability: 171.040  -8.408 162.554  17.363  10.561 141.724
 Approx polarizability: 228.266 -14.187 261.089  40.604  29.559 238.806

                      1                      2                      3
                      A                      A                      A
 Frequencies --     35.8789                39.6760                52.5785
 Red. masses --      3.2218                 5.4047                 3.2425
 Frc consts  --      0.0024                 0.0050                 0.0053
 IR Inten    --      0.3617                 0.6887                 0.0315

                      4                      5                      6
                      A                      A                      A
 Frequencies --     62.6829                66.8182                99.9558
 Red. masses --      4.2204                 3.4456                 7.6413
 Frc consts  --      0.0098                 0.0091                 0.0450
 IR Inten    --      0.8166                 1.6667                 1.9325

                      7                      8                      9
                      A                      A                      A
 Frequencies --    134.2943               174.0775               228.6278
 Red. masses --      2.2704                 3.6839                 1.1336
 Frc consts  --      0.0241                 0.0658                 0.0349
 IR Inten    --      0.2787                 0.2525                 0.2686

                     10                     11                     12
                      A                      A                      A
 Frequencies --    239.5468               246.4377               251.8646
 Red. masses --      3.6316                 2.7262                 1.5386
 Frc consts  --      0.1228                 0.0975                 0.0575
 IR Inten    --      0.6454                 0.8242                 0.1008

                     13                     14                     15
                      A                      A                      A
 Frequencies --    267.3098               292.8485               310.3519
 Red. masses --      3.3207                 2.0679                 2.4788
 Frc consts  --      0.1398                 0.1045                 0.1407
 IR Inten    --      0.7567                 1.6877                 0.4977

                     16                     17                     18
                      A                      A                      A
 Frequencies --    352.7424               373.6413               388.0999
 Red. masses --      2.7841                 2.4876                 2.5400
 Frc consts  --      0.2041                 0.2046                 0.2254
 IR Inten    --      0.2264                 0.2663                 1.7247

                     19                     20                     21
                      A                      A                      A
 Frequencies --    389.3898               439.6481               458.3082
 Red. masses --      1.1354                 3.7348                 3.1185
 Frc consts  --      0.1014                 0.4253                 0.3859
 IR Inten    --    118.7502                10.1591                 3.1108

                     22                     23                     24
                      A                      A                      A
 Frequencies --    472.0566               489.9848               503.3196
 Red. masses --      2.4410                 2.6322                 4.1366
 Frc consts  --      0.3205                 0.3723                 0.6174
 IR Inten    --      1.2841                 7.1666                 2.8434

                     25                     26                     27
                      A                      A                      A
 Frequencies --    543.4379               570.6108               583.6447
 Red. masses --      7.2076                 3.4858                 3.5207
 Frc consts  --      1.2541                 0.6687                 0.7066
 IR Inten    --      1.5599                 6.3480                 3.4397

                     28                     29                     30
                      A                      A                      A
 Frequencies --    596.4322               647.8837               686.8780
 Red. masses --      3.1360                 1.6727                 2.8310
 Frc consts  --      0.6573                 0.4137                 0.7870
 IR Inten    --     28.9259                62.1054                 6.1177

                     31                     32                     33
                      A                      A                      A
 Frequencies --    704.0789               720.1838               754.3092
 Red. masses --      2.6944                 3.5649                 1.8687
 Frc consts  --      0.7870                 1.0894                 0.6264
 IR Inten    --     15.9968                31.1022                 8.3996

                     34                     35                     36
                      A                      A                      A
 Frequencies --    786.3205               802.1173               831.5437
 Red. masses --      1.8224                 2.4765                 1.9993
 Frc consts  --      0.6639                 0.9388                 0.8145
 IR Inten    --     36.8015                 6.2937                 1.3972

                     37                     38                     39
                      A                      A                      A
 Frequencies --    852.4243               883.3193               888.0768
 Red. masses --      2.1814                 1.7107                 1.4460
 Frc consts  --      0.9339                 0.7864                 0.6719
 IR Inten    --      4.9119                 4.7885                 5.4536

                     40                     41                     42
                      A                      A                      A
 Frequencies --    902.0038               906.3476               922.1593
 Red. masses --      2.5773                 2.5701                 2.0714
 Frc consts  --      1.2355                 1.2439                 1.0378
 IR Inten    --      0.8588                12.2039                 3.4652

                     43                     44                     45
                      A                      A                      A
 Frequencies --    953.5474               963.5348               967.7694
 Red. masses --      1.9120                 2.4442                 1.2862
 Frc consts  --      1.0243                 1.3370                 0.7097
 IR Inten    --      5.2272                11.4884                 0.6825

                     46                     47                     48
                      A                      A                      A
 Frequencies --    971.6564               984.6426               999.0208
 Red. masses --      1.4625                 1.7398                 2.3936
 Frc consts  --      0.8135                 0.9938                 1.4075
 IR Inten    --      0.3862                 0.9494                 4.4766

                     49                     50                     51
                      A                      A                      A
 Frequencies --   1019.5983              1030.1746              1048.6760
 Red. masses --      6.1213                 1.4122                 1.9428
 Frc consts  --      3.7493                 0.8830                 1.2588
 IR Inten    --      5.2328                 1.1233                 5.8106

                     52                     53                     54
                      A                      A                      A
 Frequencies --   1063.0035              1106.3109              1110.8847
 Red. masses --      2.2291                 1.4221                 1.6145
 Frc consts  --      1.4840                 1.0255                 1.1739
 IR Inten    --      2.2720                 3.2541                 2.7918

                     55                     56                     57
                      A                      A                      A
 Frequencies --   1174.8339              1178.5452              1195.1888
 Red. masses --      2.1348                 1.3165                 1.2482
 Frc consts  --      1.7360                 1.0774                 1.0505
 IR Inten    --      3.9273                57.2256                 2.7692

                     58                     59                     60
                      A                      A                      A
 Frequencies --   1197.7516              1199.6669              1214.8789
 Red. masses --      1.4544                 1.5817                 2.0620
 Frc consts  --      1.2293                 1.3412                 1.7931
 IR Inten    --     23.5810                31.8091                 2.8830

                     61                     62                     63
                      A                      A                      A
 Frequencies --   1220.6816              1266.9823              1272.0143
 Red. masses --      1.2931                 1.8590                 1.5372
 Frc consts  --      1.1352                 1.7582                 1.4655
 IR Inten    --    129.6342                 7.5169                 1.4947

                     64                     65                     66
                      A                      A                      A
 Frequencies --   1285.6721              1288.0378              1308.5330
 Red. masses --      1.3378                 1.8186                 1.5279
 Frc consts  --      1.3028                 1.7776                 1.5414
 IR Inten    --      1.2957                 3.9790                23.3712

                     67                     68                     69
                      A                      A                      A
 Frequencies --   1337.0918              1341.2953              1354.0007
 Red. masses --      1.3509                 3.0503                 1.4679
 Frc consts  --      1.4230                 3.2333                 1.5856
 IR Inten    --      0.7143                42.5218                 6.9733

                     70                     71                     72
                      A                      A                      A
 Frequencies --   1366.5196              1367.5592              1374.8161
 Red. masses --      1.4903                 1.5862                 1.5643
 Frc consts  --      1.6397                 1.7478                 1.7420
 IR Inten    --      6.1340                 2.7099                17.5092

                     73                     74                     75
                      A                      A                      A
 Frequencies --   1382.2885              1408.8615              1431.7542
 Red. masses --      2.7752                 2.8220                 1.2739
 Frc consts  --      3.1242                 3.3002                 1.5385
 IR Inten    --     49.7087               138.5520                 7.4133

                     76                     77                     78
                      A                      A                      A
 Frequencies --   1451.2441              1501.1515              1508.7648
 Red. masses --      1.2246                 1.6438                 2.1541
 Frc consts  --      1.5195                 2.1825                 2.8891
 IR Inten    --      2.1325                13.6266               110.4682

                     79                     80                     81
                      A                      A                      A
 Frequencies --   1512.7870              1517.8611              1520.6776
 Red. masses --      1.0597                 1.0943                 1.1431
 Frc consts  --      1.4289                 1.4854                 1.5575
 IR Inten    --      1.0467                 3.7415                33.2050

                     82                     83                     84
                      A                      A                      A
 Frequencies --   1521.2560              1532.1863              1539.2134
 Red. masses --      1.1078                 1.0886                 1.0656
 Frc consts  --      1.5104                 1.5057                 1.4875
 IR Inten    --      7.6716                 5.5202                 0.8101

                     85                     86                     87
                      A                      A                      A
 Frequencies --   1541.6967              1548.2440              1557.2467
 Red. masses --      1.0678                 1.0955                 2.4681
 Frc consts  --      1.4953                 1.5471                 3.5264
 IR Inten    --     13.7470                 4.6890                10.0525

                     88                     89                     90
                      A                      A                      A
 Frequencies --   1662.1435              1667.3215              1772.2866
 Red. masses --      5.8492                 5.8872                 7.6340
 Frc consts  --      9.5211                 9.6427                14.1276
 IR Inten    --     50.3833                83.2950               392.1577

                     91                     92                     93
                      A                      A                      A
 Frequencies --   3031.7053              3047.2275              3056.6364
 Red. masses --      1.0688                 1.0354                 1.0401
 Frc consts  --      5.7878                 5.6648                 5.7257
 IR Inten    --     29.4250                18.4873                22.0344

                     94                     95                     96
                      A                      A                      A
 Frequencies --   3068.6566              3079.4461              3080.0169
 Red. masses --      1.0633                 1.0614                 1.0633
 Frc consts  --      5.8995                 5.9302                 5.9429
 IR Inten    --     20.8450                39.0616                 6.7954

                     97                     98                     99
                      A                      A                      A
 Frequencies --   3091.4004              3105.3557              3112.8385
 Red. masses --      1.0921                 1.1045                 1.1017
 Frc consts  --      6.1492                 6.2754                 6.2895
 IR Inten    --     31.0289                 8.9611                13.1375

                    100                    101                    102
                      A                      A                      A
 Frequencies --   3118.3698              3118.8595              3124.8325
 Red. masses --      1.1016                 1.0990                 1.1050
 Frc consts  --      6.3113                 6.2985                 6.3573
 IR Inten    --     36.6971                36.1431                14.5444

                    103                    104                    105
                      A                      A                      A
 Frequencies --   3127.3809              3148.8194              3160.2841
 Red. masses --      1.1043                 1.1004                 1.0851
 Frc consts  --      6.3634                 6.4282                 6.3851
 IR Inten    --     38.0515                 9.7531                17.5596

                    106                    107                    108
                      A                      A                      A
 Frequencies --   3177.8573              3182.9605              3199.8697
 Red. masses --      1.0907                 1.0868                 1.0925
 Frc consts  --      6.4898                 6.4876                 6.5908
 IR Inten    --      5.5623                 7.2434                17.0825

                    109                    110                    111
                      A                      A                      A
 Frequencies --   3221.8629              3571.3116              3747.3527
 Red. masses --      1.0941                 1.0747                 1.0659
 Frc consts  --      6.6915                 8.0758                 8.8186
 IR Inten    --      8.1748                10.6465                40.7762

 - Thermochemistry -
 -------------------
 Temperature   298.150 Kelvin.  Pressure   1.00000 Atm.
 Atom     1 has atomic number  6 and mass  12.00000

 Molecular mass:   247.15723 amu.
 Principal axes and moments of inertia in atomic units:
                           1         2         3
     Eigenvalues --  2738.068216103.123517024.35602
           X            0.99992   0.01237  -0.00139
           Y           -0.01238   0.99988  -0.00885
           Z            0.00128   0.00887   0.99996
 This molecule is an asymmetric top.
 Rotational symmetry number  1.
 Warning -- assumption of classical behavior for rotation
           may cause significant error
 Rotational temperatures (Kelvin)      0.03163     0.01419     0.01233
 Rotational constants (GHZ):           0.65913     0.29571     0.25693
 Zero-point vibrational energy     892801.9 (Joules/Mol)
                                  213.38479 (Kcal/Mol)
 Warning -- explicit consideration of  28 degrees of freedom as
           vibrations may cause significant error
 Vibrational temperatures:     51.62    57.08    75.65    90.19    96.14
          (Kelvin)            143.81   193.22   250.46   328.94   344.65
                              354.57   362.38   384.60   421.34   446.53
                              507.52   537.59   558.39   560.25   632.56
                              659.40   679.18   704.98   724.16   781.89
                              820.98   839.73   858.13   932.16   988.26
                             1013.01  1036.18  1085.28  1131.34  1154.07
                             1196.41  1226.45  1270.90  1277.74  1297.78
                             1304.03  1326.78  1371.94  1386.31  1392.40
                             1398.00  1416.68  1437.37  1466.97  1482.19
                             1508.81  1529.42  1591.73  1598.32  1690.32
                             1695.66  1719.61  1723.30  1726.05  1747.94
                             1756.29  1822.90  1830.14  1849.80  1853.20
                             1882.69  1923.78  1929.82  1948.10  1966.12
                             1967.61  1978.05  1988.80  2027.04  2059.97
                             2088.02  2159.82  2170.78  2176.56  2183.86
                             2187.92  2188.75  2204.47  2214.58  2218.16
                             2227.58  2240.53  2391.45  2398.90  2549.93
                             4361.95  4384.28  4397.82  4415.11  4430.64
                             4431.46  4447.84  4467.91  4478.68  4486.64
                             4487.34  4495.94  4499.60  4530.45  4546.94
                             4572.23  4579.57  4603.90  4635.54  5138.32
                             5391.60

 Zero-point correction=                           0.340050 (Hartree/Particle)
 Thermal correction to Energy=                    0.357470
 Thermal correction to Enthalpy=                  0.358414
 Thermal correction to Gibbs Free Energy=         0.294423
 Sum of electronic and zero-point Energies=           -789.200390
 Sum of electronic and thermal Energies=              -789.182971
 Sum of electronic and thermal Enthalpies=            -789.182027
 Sum of electronic and thermal Free Energies=         -789.246017

                     E (Thermal)             CV                S
                      KCal/Mol        Cal/Mol-Kelvin    Cal/Mol-Kelvin
 Total                  224.316             68.434            134.680
 Electronic               0.000              0.000              0.000
 Translational            0.889              2.981             42.415
 Rotational               0.889              2.981             33.129
 Vibrational            222.538             62.472             59.136
 Vibration     1          0.594              1.982              5.475
 Vibration     2          0.594              1.981              5.275
 Vibration     3          0.596              1.977              4.718
 Vibration     4          0.597              1.972              4.371
 Vibration     5          0.598              1.970              4.245
 Vibration     6          0.604              1.949              3.455
 Vibration     7          0.613              1.919              2.884
 Vibration     8          0.627              1.874              2.391
 Vibration     9          0.651              1.797              1.890
 Vibration    10          0.657              1.780              1.806
 Vibration    11          0.661              1.769              1.756
 Vibration    12          0.664              1.760              1.717
 Vibration    13          0.672              1.733              1.614
 Vibration    14          0.688              1.687              1.457
 Vibration    15          0.699              1.654              1.360
 Vibration    16          0.729              1.570              1.154
 Vibration    17          0.745              1.526              1.065
 Vibration    18          0.756              1.496              1.007
 Vibration    19          0.757              1.493              1.002
 Vibration    20          0.800              1.384              0.828
 Vibration    21          0.816              1.343              0.771
 Vibration    22          0.829              1.312              0.732
 Vibration    23          0.846              1.272              0.684
 Vibration    24          0.859              1.243              0.650
 Vibration    25          0.899              1.154              0.558
 Vibration    26          0.927              1.095              0.503
 Vibration    27          0.941              1.067              0.479
 Vibration    28          0.954              1.039              0.456

 Optimization completed.
    -- Stationary point found.
 Normal termination of Gaussian 16 at Fri Dec 11 23:27:34 2020.

 ----------------------------------------------------------------------
 # B3LYP/6-311++G(d,p) empiricaldispersion=gd3bj scf=xqc pop=npa geom=c
 heck
 ----------------------------------------------------------------------

 --------------------------------------
 CID_79840959_JID_8886_Energie_neutraal
 --------------------------------------
 Structure from the checkpoint file:  "JID_8886.chk"
 Charge =  0 Multiplicity = 1

 SCF Done:  E(RB3LYP) =  -789.767896493     A.U. after   16 cycles
 Normal termination of Gaussian 16 at Fri Dec 11 23:37:15 2020.

 ----------------------------------------------------------------------
 # B3LYP/6-311++G(d,p) empiricaldispersion=gd3bj scf=xqc pop=npa geom=c
 heck
 ----------------------------------------------------------------------

 ------------------------------------
 CID_79840959_JID_8886_Energie_kation
 ------------------------------------
 Structure from the checkpoint file:  "JID_8886.chk"
 Charge =  1 Multiplicity = 2

 SCF Done:  E(UB3LYP) =  -789.467057020     A.U. after   33 cycles
 SCF Done:  E(UB3LYP) =  -789.467057020     a.u. after    1 cycles
 Normal termination of Gaussian 16 at Sat Dec 12 00:05:24 2020.
 Gaussian 16:  ES64L-G16RevA.03 25-Dec-2016

 ----------------------------------------------------------------------
 # B3LYP/6-311++G(d,p) empiricaldispersion=gd3bj scf=xqc pop=npa geom=c
 heck
 ----------------------------------------------------------------------

 -----------------------------------
 CID_79840959_JID_8886_Energie_anion
 -----------------------------------
 Structure from the checkpoint file:  "JID_8886.chk"
 Charge = -1 Multiplicity = 2

                         Standard orientation:
 ---------------------------------------------------------------------
 Center     Atomic      Atomic             Coordinates (Angstroms)
 Number     Number       Type             X           Y           Z
 ---------------------------------------------------------------------
      1          6           0       -0.544776   -1.067797    1.417234
      2          6           0       -1.749940   -1.015636    0.475964
      3          6           0       -3.085600   -0.840707    1.232295
      4          6           0       -4.098982   -0.341738    0.178957
      5          6           0       -3.245851    0.329562   -0.935554
      6          6           0       -1.767120    0.218226   -0.482370
      7          7           0       -1.330576    1.447972    0.171483
      8          6           0       -0.186785    2.168280   -0.020860
      9          8           0        0.144370    3.059413    0.756680
     10          6           0        0.684666    1.819092   -1.228900
     11          6           0        1.598532    0.649851   -0.918431
     12          6           0        2.415001    0.706929    0.216078
     13          6           0        3.230733   -0.374252    0.551731
     14          6           0        3.240474   -1.526154   -0.244185
     15          6           0        2.433814   -1.574773   -1.376332
     16          6           0        1.614195   -0.495284   -1.718402
     17          8           0        4.038870   -0.365127    1.652783
     18          6           0       -1.774581   -2.297198   -0.376692
     19          1           0       -0.451529   -0.152074    2.008865
     20          1           0       -0.651606   -1.908422    2.113168
     21          1           0        0.388318   -1.206918    0.864680
     22          1           0       -3.403013   -1.764831    1.727416
     23          1           0       -2.957559   -0.090445    2.024990
     24          1           0       -4.826011    0.351251    0.613194
     25          1           0       -4.673144   -1.178684   -0.230821
     26          1           0       -3.509471    1.378131   -1.097831
     27          1           0       -3.384164   -0.184215   -1.891904
     28          1           0       -1.100998    0.049285   -1.326795
     29          1           0       -1.819457    1.721790    1.016901
     30          1           0        0.082715    1.605128   -2.116942
     31          1           0        1.271245    2.719600   -1.431400
     32          1           0        2.383995    1.592514    0.847549
     33          1           0        3.879512   -2.356368    0.037186
     34          1           0        2.441578   -2.464484   -1.999790
     35          1           0        0.988454   -0.544805   -2.605272
     36          1           0        3.926168    0.480725    2.114175
     37          1           0       -1.846893   -3.181466    0.266759
     38          1           0       -2.620823   -2.323505   -1.071430
     39          1           0       -0.851877   -2.382698   -0.961984
 ---------------------------------------------------------------------

 SCF Done:  E(UB3LYP) =  -789.757006591     A.U. after   33 cycles
 SCF Done:  E(UB3LYP) =  -789.757006592     a.u. after    2 cycles

 The electronic state is 2-A.
 Alpha  occ. eigenvalues --  -19.07093 -18.99498 -14.24281 -10.18249 -10.15154
 Alpha  occ. eigenvalues --  -10.11765 -10.10365 -10.09405 -10.09115 -10.08955
 Alpha  occ. eigenvalues --  -10.08484 -10.08446 -10.08070 -10.07381 -10.07326
 Alpha  occ. eigenvalues --  -10.07289 -10.06132 -10.05930  -0.98148  -0.94618
 Alpha  occ. eigenvalues --   -0.83690  -0.77353  -0.74713  -0.69797  -0.66730
 Alpha  occ. eigenvalues --   -0.65595  -0.62773  -0.62044  -0.58989  -0.56410
 Alpha  occ. eigenvalues --   -0.54199  -0.51520  -0.48887  -0.48754  -0.46020
 Alpha  occ. eigenvalues --   -0.45543  -0.42285  -0.40044  -0.39081  -0.38099
 Alpha  occ. eigenvalues --   -0.37326  -0.36290  -0.36124  -0.34797  -0.34130
 Alpha  occ. eigenvalues --   -0.33641  -0.32440  -0.32002  -0.31371  -0.30566
 Alpha  occ. eigenvalues --   -0.30227  -0.29454  -0.28558  -0.27969  -0.27454
 Alpha  occ. eigenvalues --   -0.26023  -0.25514  -0.25298  -0.24915  -0.24212
 Alpha  occ. eigenvalues --   -0.23852  -0.23031  -0.22052  -0.17533  -0.16014
 Alpha  occ. eigenvalues --   -0.15786  -0.14251   0.04022
 Alpha virt. eigenvalues --    0.05678   0.06259   0.06605   0.07036   0.07556
 Alpha virt. eigenvalues --    0.07925   0.08388   0.09052   0.09332   0.09749
 Alpha virt. eigenvalues --    0.10314   0.10765   0.11221   0.11324   0.11856

  Beta  occ. eigenvalues --  -19.07068 -18.99485 -14.24275 -10.18240 -10.15153
  Beta  occ. eigenvalues --  -10.11757 -10.10362 -10.09392 -10.09105 -10.08955
  Beta  occ. eigenvalues --  -10.08475 -10.08434 -10.08050 -10.07361 -10.07302
  Beta  occ. eigenvalues --  -10.07273 -10.06101 -10.05920  -0.98102  -0.94597
  Beta  occ. eigenvalues --   -0.83674  -0.77332  -0.74693  -0.69773  -0.66698
  Beta  occ. eigenvalues --   -0.65563  -0.62740  -0.62010  -0.58944  -0.56370
  Beta  occ. eigenvalues --   -0.54157  -0.51488  -0.48835  -0.48716  -0.45978
  Beta  occ. eigenvalues --   -0.45502  -0.42250  -0.40003  -0.39051  -0.38061
  Beta  occ. eigenvalues --   -0.37298  -0.36249  -0.36094  -0.34761  -0.34101
  Beta  occ. eigenvalues --   -0.33615  -0.32416  -0.31982  -0.31349  -0.30542
  Beta  occ. eigenvalues --   -0.30195  -0.29420  -0.28530  -0.27942  -0.27421
  Beta  occ. eigenvalues --   -0.25994  -0.25485  -0.25263  -0.24883  -0.24184
  Beta  occ. eigenvalues --   -0.23819  -0.23003  -0.22028  -0.17514  -0.15997
  Beta  occ. eigenvalues --   -0.15759  -0.14227
  Beta virt. eigenvalues --    0.06074   0.06404   0.06599   0.07161   0.07583
  Beta virt. eigenvalues --    0.08032   0.08198   0.08671   0.09414   0.09569
  Beta virt. eigenvalues --    0.10091   0.10649   0.10919   0.11356   0.11598

 Mulliken charges and spin densities:
               1          2
     1  C   -0.344159  -0.129167
     2  C   -1.120729   1.387286
     3  C   -0.391441   0.100651
     4  C    0.367267  -0.808479
     5  C    0.654305  -1.251319
     6  C    0.142966   0.183162
     7  N   -0.256097   0.150458
     8  C   -0.214264  -0.062655
     9  O   -0.294658   0.009790
    10  C    1.259427  -1.630802
    11  C   -0.332533   0.853079
    12  C   -1.614770   1.651985
    13  C   -0.477535  -0.121654
    14  C    1.717793  -1.692089
    15  C    0.373451  -0.619544
    16  C   -0.277365  -0.164197
    17  O   -0.206952   0.013794
    18  C    0.858230  -1.630873
    19  H    0.111605   0.031471
    20  H   -0.074414   0.251959
    21  H    0.144025   0.036449
    22  H   -0.280253   0.456428
    23  H    0.047981   0.073237
    24  H   -0.161153   0.319195
    25  H    0.038867   0.122308
    26  H    0.179115  -0.029014
    27  H   -0.602889   0.783427
    28  H    0.987496  -0.710627
    29  H    0.269639   0.041007
    30  H   -0.291051   0.478171
    31  H    0.071119   0.155816
    32  H    0.068557   0.133815
    33  H    0.079315   0.096663
    34  H   -0.391956   0.582586
    35  H   -0.729051   0.900629
    36  H   -0.076723   0.348927
    37  H   -0.121031   0.270014
    38  H   -0.146922   0.302094
    39  H    0.034787   0.116020
 Sum of Mulliken charges =  -1.00000   1.00000

 Dipole moment (field-independent basis, Debye):
    X=              1.5693    Y=              1.7381    Z=              2.3510  Tot=              3.3182
 Quadrupole moment (field-independent basis, Debye-Ang):
   XX=           -179.3574   YY=           -161.9649   ZZ=           -158.5187
   XY=             -5.8516   XZ=             -6.3017   YZ=             -6.0952

 Summary of Natural Population Analysis:

                                       Natural Population
                Natural  -----------------------------------------------
    Atom  No    Charge         Core      Valence    Rydberg      Total
 -----------------------------------------------------------------------
      C    1   -0.28572      0.99961     2.27920    0.00691     3.28572
      C    2   -0.04392      0.99955     2.03118    0.01319     3.04392
      C    3   -0.19035      0.99959     2.18126    0.00950     3.19035
      C    4   -0.19607      0.99964     2.18867    0.00776     3.19607
      C    5   -0.19589      0.99962     2.18759    0.00868     3.19589
      C    6   -0.01321      0.99952     1.99895    0.01474     3.01321
      N    7   -0.31643      0.99965     2.80667    0.01011     3.81643
      C    8    0.35163      0.99966     1.62666    0.02205     2.64837
      O    9   -0.33067      0.99988     3.32513    0.00566     4.33067
      C   10   -0.24024      0.99955     2.23156    0.00913     3.24024
      C   11   -0.00641      0.99951     1.99630    0.01061     3.00641
      C   12   -0.14110      0.99946     2.13272    0.00892     3.14110
      C   13    0.16085      0.99939     1.82659    0.01318     2.83915
      C   14   -0.12886      0.99951     2.12012    0.00922     3.12886
      C   15   -0.08814      0.99957     2.07820    0.01037     3.08814
      C   16   -0.11976      0.99950     2.10951    0.01075     3.11976
      O   17   -0.33961      0.99988     3.33321    0.00652     4.33961
      C   18   -0.28537      0.99962     2.27842    0.00734     3.28537
      H   19    0.10038      0.00000     0.39856    0.00105     0.39962
      H   20    0.09976      0.00000     0.39940    0.00084     0.40024
      H   21    0.10659      0.00000     0.39128    0.00213     0.39341
      H   22    0.10396      0.00000     0.39502    0.00102     0.39604
      H   23    0.09303      0.00000     0.40567    0.00130     0.40697
      H   24    0.09827      0.00000     0.40080    0.00094     0.40173
      H   25    0.10030      0.00000     0.39835    0.00136     0.39970
      H   26    0.10338      0.00000     0.39551    0.00111     0.39662
      H   27    0.10632      0.00000     0.39205    0.00162     0.39368
      H   28    0.10808      0.00000     0.38845    0.00347     0.39192
      H   29    0.19313      0.00000     0.30459    0.00229     0.30687
      H   30    0.11093      0.00000     0.38766    0.00140     0.38907
      H   31    0.11764      0.00000     0.38130    0.00107     0.38236
      H   32    0.10925      0.00000     0.38913    0.00163     0.39075
      H   33    0.10633      0.00000     0.39279    0.00088     0.39367
      H   34    0.10355      0.00000     0.39544    0.00102     0.39645
      H   35    0.10602      0.00000     0.39193    0.00204     0.39398
      H   36    0.23588      0.00000     0.26071    0.00341     0.26412
      H   37    0.10065      0.00000     0.39831    0.00104     0.39935
      H   38    0.10228      0.00000     0.39622    0.00150     0.39772
      H   39    0.10357      0.00000     0.39489    0.00154     0.39643
 =======================================================================
   * Total *    0.00000     17.99271    48.78999    0.21729    67.00000

 Normal termination of Gaussian 16 at Sat Dec 12 01:23:01 2020.
