 Gaussian 16, Revision A.03,

 -----------------------------------------------------------
 # opt freq B3LYP/6-31G(d) empiricaldispersion=gd3bj scf=xqc
 -----------------------------------------------------------

 ------------------------------
 CID_79153763_JID_3998_neutraal
 ------------------------------
 Symbolic Z-matrix:
 Charge =  0 Multiplicity = 1

 SCF Done:  E(RB3LYP) =  -645.828420869     A.U. after   14 cycles
 SCF Done:  E(RB3LYP) =  -645.833049692     A.U. after   13 cycles
 SCF Done:  E(RB3LYP) =  -645.832948008     A.U. after   13 cycles
 SCF Done:  E(RB3LYP) =  -645.834507465     A.U. after   12 cycles
 SCF Done:  E(RB3LYP) =  -645.834870529     A.U. after   12 cycles
 SCF Done:  E(RB3LYP) =  -645.835332188     A.U. after   12 cycles
 SCF Done:  E(RB3LYP) =  -645.835455494     A.U. after   10 cycles
 SCF Done:  E(RB3LYP) =  -645.835442262     A.U. after   11 cycles
 SCF Done:  E(RB3LYP) =  -645.835496789     A.U. after   11 cycles
 SCF Done:  E(RB3LYP) =  -645.835521836     A.U. after   10 cycles
 SCF Done:  E(RB3LYP) =  -645.835532361     A.U. after    8 cycles
 SCF Done:  E(RB3LYP) =  -645.835532776     A.U. after    7 cycles
 SCF Done:  E(RB3LYP) =  -645.835532974     A.U. after    7 cycles
 SCF Done:  E(RB3LYP) =  -645.835533085     A.U. after    7 cycles
 SCF Done:  E(RB3LYP) =  -645.835533137     A.U. after    7 cycles
 Optimization completed.
    -- Stationary point found.
 Normal termination of Gaussian 16 at Mon Dec 14 16:33:49 2020.

 --------------------------------------------------------------------
 #N Geom=AllCheck Guess=TCheck SCRF=Check GenChk RB3LYP/6-31G(d) Freq
 --------------------------------------------------------------------

 Structure from the checkpoint file:  "JID_3998.chk"
 ------------------------------
 CID_79153763_JID_3998_neutraal
 ------------------------------
 Charge =  0 Multiplicity = 1

 SCF Done:  E(RB3LYP) =  -645.835533137     A.U. after    1 cycles

  Exact polarizability: 129.369   0.025 105.551  12.766  -4.357  89.177
 Approx polarizability: 162.150 -10.095 155.798  27.050 -14.580 141.009

                      1                      2                      3
                      A                      A                      A
 Frequencies --     29.3608                56.0521                69.8553
 Red. masses --      5.0113                 4.1311                 3.7947
 Frc consts  --      0.0025                 0.0076                 0.0109
 IR Inten    --      1.1662                 3.3089                 0.3529

                      4                      5                      6
                      A                      A                      A
 Frequencies --     87.3412               102.8929               131.9911
 Red. masses --      2.1478                 2.7663                 3.4865
 Frc consts  --      0.0097                 0.0173                 0.0358
 IR Inten    --      2.3022                 1.0311                 3.1394

                      7                      8                      9
                      A                      A                      A
 Frequencies --    138.8816               164.6776               190.9599
 Red. masses --      3.0039                 1.4311                 2.4300
 Frc consts  --      0.0341                 0.0229                 0.0522
 IR Inten    --      1.5115                 1.0408                 3.2903

                     10                     11                     12
                      A                      A                      A
 Frequencies --    246.2018               259.4505               263.2474
 Red. masses --      3.3680                 2.0133                 2.8921
 Frc consts  --      0.1203                 0.0798                 0.1181
 IR Inten    --      5.9761                 6.0081                22.4045

                     13                     14                     15
                      A                      A                      A
 Frequencies --    287.2608               323.9695               332.7844
 Red. masses --      1.9098                 2.7886                 2.6209
 Frc consts  --      0.0929                 0.1724                 0.1710
 IR Inten    --      4.1462                12.6454                10.4981

                     16                     17                     18
                      A                      A                      A
 Frequencies --    340.0395               400.8949               427.4546
 Red. masses --      1.4943                 2.4494                 2.5726
 Frc consts  --      0.1018                 0.2319                 0.2770
 IR Inten    --     87.3095                 6.6562                13.3812

                     19                     20                     21
                      A                      A                      A
 Frequencies --    458.9354               516.0175               541.8885
 Red. masses --      2.6155                 1.5866                 2.0531
 Frc consts  --      0.3246                 0.2489                 0.3552
 IR Inten    --      2.6658                40.6346                19.5807

                     22                     23                     24
                      A                      A                      A
 Frequencies --    599.1263               629.9802               657.3523
 Red. masses --      3.8941                 3.6588                 3.3421
 Frc consts  --      0.8236                 0.8555                 0.8509
 IR Inten    --     12.7955                28.6450                23.8749

                     25                     26                     27
                      A                      A                      A
 Frequencies --    733.7158               752.3249               773.0133
 Red. masses --      3.2883                 1.6772                 2.3444
 Frc consts  --      1.0430                 0.5593                 0.8254
 IR Inten    --     17.7553               208.7610                30.8359

                     28                     29                     30
                      A                      A                      A
 Frequencies --    797.2628               838.1642               869.4581
 Red. masses --      2.3961                 2.7108                 1.9055
 Frc consts  --      0.8973                 1.1220                 0.8487
 IR Inten    --      7.5509                72.8502                58.1390

                     31                     32                     33
                      A                      A                      A
 Frequencies --    911.5260               968.6853               991.9278
 Red. masses --      2.5547                 4.6950                 1.8448
 Frc consts  --      1.2506                 2.5957                 1.0694
 IR Inten    --      6.7880                96.2458                21.6368

                     34                     35                     36
                      A                      A                      A
 Frequencies --   1042.7301              1058.2819              1095.2886
 Red. masses --      2.1163                 1.8026                 1.3837
 Frc consts  --      1.3558                 1.1895                 0.9780
 IR Inten    --     20.0208                 6.6893                 7.9074

                     37                     38                     39
                      A                      A                      A
 Frequencies --   1105.0615              1121.2121              1144.2280
 Red. masses --      2.5210                 2.1892                 1.2189
 Frc consts  --      1.8139                 1.6215                 0.9403
 IR Inten    --     22.8414                28.8818                 1.0224

                     40                     41                     42
                      A                      A                      A
 Frequencies --   1180.4570              1186.3361              1216.9315
 Red. masses --      1.3964                 1.5353                 1.6232
 Frc consts  --      1.1464                 1.2731                 1.4163
 IR Inten    --     10.2430                34.8299               100.5228

                     43                     44                     45
                      A                      A                      A
 Frequencies --   1240.9375              1271.7946              1300.2347
 Red. masses --      1.5050                 1.7421                 4.4016
 Frc consts  --      1.3655                 1.6602                 4.3843
 IR Inten    --     27.8885                10.6462                81.2628

                     46                     47                     48
                      A                      A                      A
 Frequencies --   1320.1099              1336.1356              1378.3120
 Red. masses --      1.1650                 1.5560                 1.3992
 Frc consts  --      1.1962                 1.6367                 1.5662
 IR Inten    --     11.6423                62.3335                18.9375

                     49                     50                     51
                      A                      A                      A
 Frequencies --   1397.6365              1411.2930              1436.5735
 Red. masses --      1.3482                 1.3261                 2.2519
 Frc consts  --      1.5517                 1.5562                 2.7381
 IR Inten    --     34.5196                11.3525               227.0016

                     52                     53                     54
                      A                      A                      A
 Frequencies --   1454.0494              1463.1947              1486.9904
 Red. masses --      1.9449                 1.1478                 1.3012
 Frc consts  --      2.4227                 1.4478                 1.6952
 IR Inten    --      1.9654                 4.2304                 3.8514

                     55                     56                     57
                      A                      A                      A
 Frequencies --   1500.9116              1512.0584              1517.8957
 Red. masses --      1.2908                 1.1012                 1.0651
 Frc consts  --      1.7132                 1.4834                 1.4458
 IR Inten    --     61.0586                 2.8115                 6.7884

                     58                     59                     60
                      A                      A                      A
 Frequencies --   1524.3387              1529.4520              1536.5697
 Red. masses --      1.1200                 1.0658                 1.0486
 Frc consts  --      1.5334                 1.4690                 1.4587
 IR Inten    --      9.1075                10.3511                 6.2773

                     61                     62                     63
                      A                      A                      A
 Frequencies --   1555.1697              1566.1165              1675.2100
 Red. masses --      1.1066                 1.2071                 1.1656
 Frc consts  --      1.5769                 1.7444                 1.9272
 IR Inten    --     39.3375                28.3155                46.7538

                     64                     65                     66
                      A                      A                      A
 Frequencies --   1742.3605              1784.7719              3025.7081
 Red. masses --      6.3032                 7.0538                 1.0444
 Frc consts  --     11.2743                13.2385                 5.6332
 IR Inten    --    105.8192               397.6166                36.1647

                     67                     68                     69
                      A                      A                      A
 Frequencies --   3030.1322              3032.9734              3048.9286
 Red. masses --      1.0711                 1.0451                 1.0687
 Frc consts  --      5.7945                 5.6641                 5.8530
 IR Inten    --     29.5045                79.7157                36.3355

                     70                     71                     72
                      A                      A                      A
 Frequencies --   3074.2054              3080.5157              3091.3978
 Red. masses --      1.1040                 1.0614                 1.0954
 Frc consts  --      6.1474                 5.9345                 6.1678
 IR Inten    --     38.3103                17.5505                31.0228

                     73                     74                     75
                      A                      A                      A
 Frequencies --   3112.2253              3121.7170              3132.2120
 Red. masses --      1.0923                 1.0964                 1.1016
 Frc consts  --      6.2338                 6.2952                 6.3675
 IR Inten    --      6.9179                18.5706                21.8447

                     76                     77                     78
                      A                      A                      A
 Frequencies --   3188.6927              3191.1675              3495.4653
 Red. masses --      1.0945                 1.0967                 1.0494
 Frc consts  --      6.5567                 6.5800                 7.5546
 IR Inten    --      2.3087                 3.0708                56.3059

                     79                     80                     81
                      A                      A                      A
 Frequencies --   3536.4798              3615.6530              3776.6289
 Red. masses --      1.0742                 1.0966                 1.0678
 Frc consts  --      7.9155                 8.4462                 8.9733
 IR Inten    --     11.9713                38.4658                59.2051

 - Thermochemistry -
 -------------------
 Temperature   298.150 Kelvin.  Pressure   1.00000 Atm.
 Atom     1 has atomic number  6 and mass  12.00000

 Molecular mass:   188.12733 amu.
 Principal axes and moments of inertia in atomic units:
                           1         2         3
     Eigenvalues --  1204.328124571.620364968.70314
           X            0.99966   0.02571  -0.00504
           Y           -0.02568   0.99964   0.00736
           Z            0.00523  -0.00723   0.99996
 This molecule is an asymmetric top.
 Rotational symmetry number  1.
 Warning -- assumption of classical behavior for rotation
           may cause significant error
 Rotational temperatures (Kelvin)      0.07192     0.01895     0.01743
 Rotational constants (GHZ):           1.49855     0.39477     0.36322
 Zero-point vibrational energy     661172.7 (Joules/Mol)
                                  158.02406 (Kcal/Mol)
 Warning -- explicit consideration of  22 degrees of freedom as
           vibrations may cause significant error
 Vibrational temperatures:     42.24    80.65   100.51   125.66   148.04
          (Kelvin)            189.91   199.82   236.93   274.75   354.23
                              373.29   378.75   413.30   466.12   478.80
                              489.24   576.80   615.01   660.31   742.43
                              779.66   862.01   906.40   945.78  1055.65
                             1082.43  1112.19  1147.08  1205.93  1250.96
                             1311.48  1393.72  1427.16  1500.26  1522.63
                             1575.88  1589.94  1613.17  1646.29  1698.41
                             1706.87  1750.89  1785.43  1829.83  1870.75
                             1899.34  1922.40  1983.08  2010.89  2030.54
                             2066.91  2092.05  2105.21  2139.45  2159.48
                             2175.51  2183.91  2193.18  2200.54  2210.78
                             2237.54  2253.29  2410.25  2506.87  2567.89
                             4353.32  4359.68  4363.77  4386.73  4423.10
                             4432.18  4447.83  4477.80  4491.45  4506.55
                             4587.82  4591.38  5029.19  5088.21  5202.12
                             5433.73

 Zero-point correction=                           0.251827 (Hartree/Particle)
 Thermal correction to Energy=                    0.266849
 Thermal correction to Enthalpy=                  0.267793
 Thermal correction to Gibbs Free Energy=         0.209231
 Sum of electronic and zero-point Energies=           -645.583706
 Sum of electronic and thermal Energies=              -645.568684
 Sum of electronic and thermal Enthalpies=            -645.567740
 Sum of electronic and thermal Free Energies=         -645.626303

                     E (Thermal)             CV                S
                      KCal/Mol        Cal/Mol-Kelvin    Cal/Mol-Kelvin
 Total                  167.450             54.338            123.255
 Electronic               0.000              0.000              0.000
 Translational            0.889              2.981             41.602
 Rotational               0.889              2.981             31.681
 Vibrational            165.673             48.376             49.972
 Vibration     1          0.593              1.984              5.872
 Vibration     2          0.596              1.975              4.592
 Vibration     3          0.598              1.968              4.157
 Vibration     4          0.601              1.958              3.719
 Vibration     5          0.605              1.947              3.399
 Vibration     6          0.612              1.921              2.917
 Vibration     7          0.614              1.914              2.819
 Vibration     8          0.623              1.886              2.495
 Vibration     9          0.634              1.852              2.218
 Vibration    10          0.661              1.769              1.758
 Vibration    11          0.668              1.747              1.665
 Vibration    12          0.670              1.740              1.640
 Vibration    13          0.684              1.697              1.490
 Vibration    14          0.709              1.628              1.290
 Vibration    15          0.715              1.610              1.247
 Vibration    16          0.720              1.595              1.212
 Vibration    17          0.767              1.468              0.959
 Vibration    18          0.789              1.410              0.867
 Vibration    19          0.817              1.341              0.769
 Vibration    20          0.871              1.215              0.619
 Vibration    21          0.897              1.157              0.561
 Vibration    22          0.957              1.034              0.451

                           ! Non-Optimized Parameters !
 Normal termination of Gaussian 16 at Mon Dec 14 16:41:07 2020.

 ----------------------------------------------------------------------
 # B3LYP/6-311++G(d,p) empiricaldispersion=gd3bj scf=xqc pop=npa geom=c
 heck
 ----------------------------------------------------------------------

 --------------------------------------
 CID_79153763_JID_3998_Energie_neutraal
 --------------------------------------
 Structure from the checkpoint file:  "JID_3998.chk"
 Charge =  0 Multiplicity = 1

 SCF Done:  E(RB3LYP) =  -646.043554699     A.U. after   14 cycles
 Normal termination of Gaussian 16 at Mon Dec 14 16:44:20 2020.

 ----------------------------------------------------------------------
 # B3LYP/6-311++G(d,p) empiricaldispersion=gd3bj scf=xqc pop=npa geom=c
 heck
 ----------------------------------------------------------------------

 ------------------------------------
 CID_79153763_JID_3998_Energie_kation
 ------------------------------------
 Structure from the checkpoint file:  "JID_3998.chk"
 Charge =  1 Multiplicity = 2

 SCF Done:  E(UB3LYP) =  -645.746001235     A.U. after   27 cycles
 Normal termination of Gaussian 16 at Mon Dec 14 16:52:55 2020.
 Gaussian 16:  ES64L-G16RevA.03 25-Dec-2016

 ----------------------------------------------------------------------
 # B3LYP/6-311++G(d,p) empiricaldispersion=gd3bj scf=xqc pop=npa geom=c
 heck
 ----------------------------------------------------------------------

 -----------------------------------
 CID_79153763_JID_3998_Energie_anion
 -----------------------------------
 Structure from the checkpoint file:  "JID_3998.chk"
 Charge = -1 Multiplicity = 2

                         Standard orientation:
 ---------------------------------------------------------------------
 Center     Atomic      Atomic             Coordinates (Angstroms)
 Number     Number       Type             X           Y           Z
 ---------------------------------------------------------------------
      1          6           0        3.961756    0.796476   -0.494107
      2          7           0        2.538712    0.566636   -0.299681
      3          6           0        1.706440    1.759426   -0.315938
      4          6           0        2.161961   -0.626875    0.271990
      5          8           0        2.967399   -1.444604    0.704848
      6          7           0        0.773740   -0.878137    0.331972
      7          6           0       -0.035506   -0.788682   -0.902566
      8          6           0       -1.362954   -1.529879   -0.741086
      9          6           0       -2.172580   -1.109898    0.503009
     10          6           0       -2.284072    0.387632    0.644049
     11          7           0       -3.055441    1.150671   -0.048158
     12          8           0       -3.861064    0.367598   -0.933071
     13          7           0       -1.488901    0.964833    1.628103
     14          1           0        4.112175    1.378220   -1.410386
     15          1           0        4.469487   -0.163157   -0.577421
     16          1           0        4.399549    1.351315    0.348214
     17          1           0        1.510141    2.103210   -1.339771
     18          1           0        0.756360    1.572125    0.181405
     19          1           0        2.216205    2.569698    0.222629
     20          1           0        0.685578   -1.798636    0.754690
     21          1           0       -0.244355    0.260933   -1.122820
     22          1           0        0.512780   -1.197278   -1.763041
     23          1           0       -1.963144   -1.339117   -1.635486
     24          1           0       -1.183216   -2.612229   -0.695305
     25          1           0       -3.179032   -1.530566    0.425998
     26          1           0       -1.715074   -1.508003    1.413794
     27          1           0       -4.423313    1.049617   -1.328460
     28          1           0       -0.564384    0.544277    1.685668
     29          1           0       -1.467476    1.978411    1.588327
 ---------------------------------------------------------------------

 SCF Done:  E(UB3LYP) =  -646.030878905     A.U. after   33 cycles
 SCF Done:  E(UB3LYP) =  -646.030878905     a.u. after    1 cycles

 The electronic state is 2-A.
 Alpha  occ. eigenvalues --  -19.05772 -18.98823 -14.24371 -14.24327 -14.23374
 Alpha  occ. eigenvalues --  -14.22655 -10.19567 -10.14388 -10.11217 -10.10142
 Alpha  occ. eigenvalues --  -10.09523 -10.09000 -10.08726  -0.97148  -0.95364
 Alpha  occ. eigenvalues --   -0.84487  -0.84079  -0.81671  -0.72822  -0.69648
 Alpha  occ. eigenvalues --   -0.62423  -0.61684  -0.59229  -0.52788  -0.47558
 Alpha  occ. eigenvalues --   -0.47099  -0.43493  -0.42585  -0.39915  -0.39578
 Alpha  occ. eigenvalues --   -0.38104  -0.37618  -0.36742  -0.35474  -0.34187
 Alpha  occ. eigenvalues --   -0.33179  -0.32035  -0.31429  -0.30614  -0.30043
 Alpha  occ. eigenvalues --   -0.29123  -0.28293  -0.27475  -0.26134  -0.25666
 Alpha  occ. eigenvalues --   -0.22904  -0.19021  -0.18365  -0.15992  -0.14632
 Alpha  occ. eigenvalues --   -0.12701   0.04366
 Alpha virt. eigenvalues --    0.06110   0.06968   0.07500   0.08434   0.09285
 Alpha virt. eigenvalues --    0.09580   0.10096   0.10773   0.11080   0.11902
 Alpha virt. eigenvalues --    0.12212   0.12494   0.12710   0.13045   0.14268

  Beta  occ. eigenvalues --  -19.05746 -18.98820 -14.24368 -14.24306 -14.23364
  Beta  occ. eigenvalues --  -14.22638 -10.19564 -10.14390 -10.11198 -10.10087
  Beta  occ. eigenvalues --  -10.09485 -10.08984 -10.08708  -0.97105  -0.95357
  Beta  occ. eigenvalues --   -0.84467  -0.84058  -0.81652  -0.72772  -0.69615
  Beta  occ. eigenvalues --   -0.62356  -0.61640  -0.59166  -0.52737  -0.47508
  Beta  occ. eigenvalues --   -0.47047  -0.43463  -0.42537  -0.39888  -0.39530
  Beta  occ. eigenvalues --   -0.38068  -0.37575  -0.36711  -0.35430  -0.34154
  Beta  occ. eigenvalues --   -0.33153  -0.32008  -0.31400  -0.30565  -0.29993
  Beta  occ. eigenvalues --   -0.29094  -0.28257  -0.27442  -0.26089  -0.25642
  Beta  occ. eigenvalues --   -0.22884  -0.19003  -0.18307  -0.15974  -0.14610
  Beta  occ. eigenvalues --   -0.12670
  Beta virt. eigenvalues --    0.06501   0.07222   0.07566   0.08170   0.09028
  Beta virt. eigenvalues --    0.09813   0.10022   0.10482   0.11019   0.11244
  Beta virt. eigenvalues --    0.12237   0.12519   0.12675   0.12913   0.13453

 Mulliken charges and spin densities:
               1          2
     1  C    0.793304  -1.115012
     2  N   -0.312418   0.287525
     3  C    0.985300  -1.410225
     4  C   -0.206536   0.247525
     5  O   -0.355489   0.001407
     6  N   -0.295950  -0.027621
     7  C   -0.049217  -0.025877
     8  C    0.189032  -0.696932
     9  C   -0.003365  -0.415524
    10  C    0.164444  -0.261549
    11  N   -0.325867   0.107903
    12  O   -0.126317  -0.020078
    13  N   -0.237659  -0.023230
    14  H   -0.390697   0.541865
    15  H   -0.033172   0.198663
    16  H   -0.154510   0.323991
    17  H   -0.396580   0.600703
    18  H   -0.092822   0.187870
    19  H   -0.600526   0.752395
    20  H    0.266676   0.039248
    21  H    0.209038  -0.069647
    22  H   -0.446223   0.659816
    23  H    0.045779   0.148579
    24  H   -0.071258   0.231084
    25  H    0.084187   0.118782
    26  H    0.027137   0.118744
    27  H   -0.039582   0.314516
    28  H    0.357878  -0.070243
    29  H    0.015412   0.255321
 Sum of Mulliken charges =  -1.00000   1.00000

 Dipole moment (field-independent basis, Debye):
    X=             -3.0902    Y=             -3.7188    Z=              2.0148  Tot=              5.2381
 Quadrupole moment (field-independent basis, Debye-Ang):
   XX=           -156.2248   YY=           -124.4897   ZZ=           -115.3287
   XY=             -3.5434   XZ=             -0.1416   YZ=              1.7846

 Summary of Natural Population Analysis:

                                       Natural Population
                Natural  -----------------------------------------------
    Atom  No    Charge         Core      Valence    Rydberg      Total
 -----------------------------------------------------------------------
      C    1   -0.17450      0.99964     2.16641    0.00844     3.17450
      N    2   -0.26208      0.99966     2.75173    0.01069     3.76208
      C    3   -0.17719      0.99963     2.16855    0.00901     3.17719
      C    4    0.41607      0.99966     1.56164    0.02262     2.58393
      O    5   -0.33801      0.99988     3.33281    0.00533     4.33801
      N    6   -0.35494      0.99969     2.84513    0.01012     3.85494
      C    7   -0.09203      0.99960     2.08170    0.01073     3.09203
      C    8   -0.19032      0.99962     2.18227    0.00843     3.19032
      C    9   -0.22262      0.99958     2.21470    0.00834     3.22262
      C   10    0.20141      0.99962     1.78029    0.01868     2.79859
      N   11   -0.13059      0.99958     2.61673    0.01427     3.63059
      O   12   -0.29798      0.99991     3.29136    0.00671     4.29798
      N   13   -0.40282      0.99971     2.89428    0.00884     3.90282
      H   14    0.09641      0.00000     0.40196    0.00162     0.40359
      H   15    0.11047      0.00000     0.38851    0.00102     0.38953
      H   16    0.09180      0.00000     0.40691    0.00129     0.40820
      H   17    0.09849      0.00000     0.39910    0.00240     0.40151
      H   18    0.10075      0.00000     0.39680    0.00245     0.39925
      H   19    0.09815      0.00000     0.39924    0.00261     0.40185
      H   20    0.18809      0.00000     0.30931    0.00260     0.31191
      H   21    0.09836      0.00000     0.39937    0.00227     0.40164
      H   22    0.09414      0.00000     0.40419    0.00167     0.40586
      H   23    0.11259      0.00000     0.38587    0.00155     0.38741
      H   24    0.09551      0.00000     0.40334    0.00115     0.40449
      H   25    0.11843      0.00000     0.38021    0.00136     0.38157
      H   26    0.10270      0.00000     0.39590    0.00139     0.39730
      H   27    0.23482      0.00000     0.26010    0.00507     0.26518
      H   28    0.19599      0.00000     0.30141    0.00260     0.30401
      H   29    0.18888      0.00000     0.30871    0.00240     0.31112
 =======================================================================
   * Total *    0.00000     12.99578    37.82855    0.17567    51.00000

 Normal termination of Gaussian 16 at Mon Dec 14 17:03:43 2020.
