 Gaussian 16, Revision A.03,

 -----------------------------------------------------------
 # opt freq B3LYP/6-31G(d) empiricaldispersion=gd3bj scf=xqc
 -----------------------------------------------------------

 -------------------------------
 CID_117275432_JID_1201_neutraal
 -------------------------------
 Symbolic Z-matrix:
 Charge =  0 Multiplicity = 1

 SCF Done:  E(RB3LYP) =  -822.425778065     A.U. after   15 cycles
 SCF Done:  E(RB3LYP) =  -822.408453706     A.U. after   14 cycles
 SCF Done:  E(RB3LYP) =  -822.428545585     A.U. after   14 cycles
 SCF Done:  E(RB3LYP) =  -822.429132362     A.U. after   13 cycles
 SCF Done:  E(RB3LYP) =  -822.427530750     A.U. after   12 cycles
 SCF Done:  E(RB3LYP) =  -822.429342627     A.U. after   11 cycles
 SCF Done:  E(RB3LYP) =  -822.429365578     A.U. after   11 cycles
 SCF Done:  E(RB3LYP) =  -822.429371897     A.U. after   10 cycles
 SCF Done:  E(RB3LYP) =  -822.429372481     A.U. after    9 cycles
 SCF Done:  E(RB3LYP) =  -822.429372808     A.U. after    9 cycles
 SCF Done:  E(RB3LYP) =  -822.429411002     A.U. after   10 cycles
 SCF Done:  E(RB3LYP) =  -822.429415301     A.U. after   11 cycles
 SCF Done:  E(RB3LYP) =  -822.429416580     A.U. after   10 cycles
 SCF Done:  E(RB3LYP) =  -822.429417109     A.U. after   10 cycles
 SCF Done:  E(RB3LYP) =  -822.429417134     A.U. after    7 cycles
 SCF Done:  E(RB3LYP) =  -822.429417137     A.U. after    6 cycles
 Optimization completed.
    -- Stationary point found.
 Normal termination of Gaussian 16 at Tue Dec  8 19:24:16 2020.

 --------------------------------------------------------------------
 #N Geom=AllCheck Guess=TCheck SCRF=Check GenChk RB3LYP/6-31G(d) Freq
 --------------------------------------------------------------------

 Structure from the checkpoint file:  "JID_1201.chk"
 -------------------------------
 CID_117275432_JID_1201_neutraal
 -------------------------------
 Charge =  0 Multiplicity = 1

 SCF Done:  E(RB3LYP) =  -822.429417137     A.U. after    1 cycles

  Exact polarizability: 164.114   3.570 122.712   0.824   4.764  60.679
 Approx polarizability: 262.329   5.026 198.847   7.693  12.863  94.249

                      1                      2                      3
                      A                      A                      A
 Frequencies --     32.4914                53.9524                99.3845
 Red. masses --      1.0307                 3.5462                 3.6478
 Frc consts  --      0.0006                 0.0061                 0.0212
 IR Inten    --      0.2134                 1.8301                 1.5820

                      4                      5                      6
                      A                      A                      A
 Frequencies --    137.3395               179.5774               188.8205
 Red. masses --      1.5412                 2.2607                 3.0994
 Frc consts  --      0.0171                 0.0430                 0.0651
 IR Inten    --      0.4274                 0.6033                 5.7785

                      7                      8                      9
                      A                      A                      A
 Frequencies --    215.2566               228.8248               263.9965
 Red. masses --      4.9231                 3.9144                 3.4351
 Frc consts  --      0.1344                 0.1208                 0.1411
 IR Inten    --      3.1907                 2.2212                 2.9540

                     10                     11                     12
                      A                      A                      A
 Frequencies --    324.2608               367.9346               407.1131
 Red. masses --      3.4593                 7.1818                 3.6613
 Frc consts  --      0.2143                 0.5728                 0.3575
 IR Inten    --      1.8409                 0.9554                 1.2564

                     13                     14                     15
                      A                      A                      A
 Frequencies --    454.2811               477.6301               572.9409
 Red. masses --      3.5349                 4.6207                 3.8059
 Frc consts  --      0.4298                 0.6211                 0.7361
 IR Inten    --      3.9685                 3.2696                 0.6178

                     16                     17                     18
                      A                      A                      A
 Frequencies --    623.7438               694.9886               711.6916
 Red. masses --      5.7064                 6.5100                 6.5265
 Frc consts  --      1.3080                 1.8526                 1.9477
 IR Inten    --      6.5166                 0.7745                 1.7479

                     19                     20                     21
                      A                      A                      A
 Frequencies --    729.5243               800.6040               832.0318
 Red. masses --      4.0339                 4.8737                 1.2604
 Frc consts  --      1.2649                 1.8405                 0.5141
 IR Inten    --      0.8618                39.5450                22.3915

                     22                     23                     24
                      A                      A                      A
 Frequencies --    916.3793               920.7538               964.2931
 Red. masses --      1.3608                 4.9464                 1.3114
 Frc consts  --      0.6733                 2.4708                 0.7185
 IR Inten    --      3.4652                15.6744                 0.3683

                     25                     26                     27
                      A                      A                      A
 Frequencies --    993.9336              1014.1800              1023.8294
 Red. masses --      1.1747                 1.3195                 1.7477
 Frc consts  --      0.6837                 0.7996                 1.0794
 IR Inten    --     14.5583                13.7765                 2.2355

                     28                     29                     30
                      A                      A                      A
 Frequencies --   1032.2120              1074.3273              1092.9764
 Red. masses --      1.4207                 1.5542                 3.1127
 Frc consts  --      0.8918                 1.0569                 2.1908
 IR Inten    --      1.3514                14.9160                 5.8921

                     31                     32                     33
                      A                      A                      A
 Frequencies --   1186.8581              1222.9294              1251.5305
 Red. masses --      1.3242                 4.7392                 2.1919
 Frc consts  --      1.0990                 4.1760                 2.0228
 IR Inten    --      8.8685                59.5239                 1.5871

                     34                     35                     36
                      A                      A                      A
 Frequencies --   1302.1942              1352.4350              1370.5742
 Red. masses --      1.5319                 8.6256                 1.1672
 Frc consts  --      1.5304                 9.2955                 1.2918
 IR Inten    --      9.8263                30.6995                 1.5236

                     37                     38                     39
                      A                      A                      A
 Frequencies --   1426.7474              1441.5882              1472.6963
 Red. masses --      2.2947                 1.2432                 1.2797
 Frc consts  --      2.7521                 1.5223                 1.6352
 IR Inten    --     10.2395                 0.1605                 3.2376

                     40                     41                     42
                      A                      A                      A
 Frequencies --   1489.3333              1516.1412              1518.1792
 Red. masses --      1.0590                 1.1033                 1.0911
 Frc consts  --      1.3839                 1.4942                 1.4817
 IR Inten    --      8.0421                13.5566                13.2779

                     43                     44                     45
                      A                      A                      A
 Frequencies --   1526.2959              1531.4714              1605.8697
 Red. masses --      2.0845                 1.1499                 4.7329
 Frc consts  --      2.8611                 1.5890                 7.1912
 IR Inten    --     11.9331                14.7115                18.6169

                     46                     47                     48
                      A                      A                      A
 Frequencies --   1655.4089              1794.5388              2899.3379
 Red. masses --      5.6395                 9.9137                 1.0826
 Frc consts  --      9.1055                18.8102                 5.3616
 IR Inten    --    101.7511               213.8905               138.4164

                     49                     50                     51
                      A                      A                      A
 Frequencies --   3046.7544              3075.0762              3105.5285
 Red. masses --      1.0404                 1.0308                 1.0958
 Frc consts  --      5.6903                 5.7431                 6.2265
 IR Inten    --     21.0610                28.6432                17.3421

                     52                     53                     54
                      A                      A                      A
 Frequencies --   3134.6589              3157.1654              3175.9906
 Red. masses --      1.1029                 1.1054                 1.0871
 Frc consts  --      6.3850                 6.4917                 6.4604
 IR Inten    --     13.5189                 8.1173                 7.8323

                     55                     56                     57
                      A                      A                      A
 Frequencies --   3196.3932              3196.9454              3200.1001
 Red. masses --      1.1052                 1.0933                 1.0913
 Frc consts  --      6.6530                 6.5835                 6.5843
 IR Inten    --      1.4805                20.1892                 3.8657

 - Thermochemistry -
 -------------------
 Temperature   298.150 Kelvin.  Pressure   1.00000 Atm.
 Atom     1 has atomic number  6 and mass  12.00000

 Molecular mass:   166.04524 amu.
 Principal axes and moments of inertia in atomic units:
                           1         2         3
     Eigenvalues --  1133.244352534.502873459.31375
           X            0.99992  -0.00256  -0.01213
           Y            0.00242   0.99994  -0.01092
           Z            0.01216   0.01089   0.99987
 This molecule is an asymmetric top.
 Rotational symmetry number  1.
 Warning -- assumption of classical behavior for rotation
           may cause significant error
 Rotational temperatures (Kelvin)      0.07643     0.03417     0.02504
 Rotational constants (GHZ):           1.59254     0.71207     0.52170
 Zero-point vibrational energy     438323.8 (Joules/Mol)
                                  104.76190 (Kcal/Mol)
 Warning -- explicit consideration of  15 degrees of freedom as
           vibrations may cause significant error
 Vibrational temperatures:     46.75    77.63   142.99   197.60   258.37
          (Kelvin)            271.67   309.71   329.23   379.83   466.54
                              529.38   585.74   653.61   687.20   824.33
                              897.43   999.93  1023.97  1049.62  1151.89
                             1197.11  1318.47  1324.76  1387.40  1430.05
                             1459.18  1473.06  1485.12  1545.72  1572.55
                             1707.62  1759.52  1800.67  1873.57  1945.85
                             1971.95  2052.77  2074.12  2118.88  2142.82
                             2181.39  2184.32  2196.00  2203.45  2310.49
                             2381.76  2581.94  4171.50  4383.60  4424.35
                             4468.16  4510.07  4542.46  4569.54  4598.90
                             4599.69  4604.23

 Zero-point correction=                           0.166949 (Hartree/Particle)
 Thermal correction to Energy=                    0.178364
 Thermal correction to Enthalpy=                  0.179309
 Thermal correction to Gibbs Free Energy=         0.128571
 Sum of electronic and zero-point Energies=           -822.262468
 Sum of electronic and thermal Energies=              -822.251053
 Sum of electronic and thermal Enthalpies=            -822.250109
 Sum of electronic and thermal Free Energies=         -822.300846

                     E (Thermal)             CV                S
                      KCal/Mol        Cal/Mol-Kelvin    Cal/Mol-Kelvin
 Total                  111.925             40.984            106.786
 Electronic               0.000              0.000              0.000
 Translational            0.889              2.981             41.230
 Rotational               0.889              2.981             30.675
 Vibrational            110.148             35.023             34.881
 Vibration     1          0.594              1.983              5.671
 Vibration     2          0.596              1.976              4.667
 Vibration     3          0.604              1.950              3.466
 Vibration     4          0.614              1.916              2.841
 Vibration     5          0.629              1.867              2.333
 Vibration     6          0.633              1.855              2.239
 Vibration     7          0.645              1.818              1.999
 Vibration     8          0.651              1.797              1.888
 Vibration     9          0.671              1.739              1.635
 Vibration    10          0.709              1.627              1.289
 Vibration    11          0.741              1.538              1.088
 Vibration    12          0.772              1.455              0.937
 Vibration    13          0.813              1.351              0.783
 Vibration    14          0.834              1.300              0.716
 Vibration    15          0.929              1.090              0.499

 Optimization completed.
    -- Stationary point found.
 Normal termination of Gaussian 16 at Tue Dec  8 19:28:27 2020.

 ----------------------------------------------------------------------
 # B3LYP/6-311++G(d,p) empiricaldispersion=gd3bj scf=xqc pop=npa geom=c
 heck
 ----------------------------------------------------------------------

 ---------------------------------------
 CID_117275432_JID_1201_Energie_neutraal
 ---------------------------------------
 Structure from the checkpoint file:  "JID_1201.chk"
 Charge =  0 Multiplicity = 1

 SCF Done:  E(RB3LYP) =  -822.570451969     A.U. after   15 cycles
 Normal termination of Gaussian 16 at Tue Dec  8 19:30:21 2020.

 ----------------------------------------------------------------------
 # B3LYP/6-311++G(d,p) empiricaldispersion=gd3bj scf=xqc pop=npa geom=c
 heck
 ----------------------------------------------------------------------

 -------------------------------------
 CID_117275432_JID_1201_Energie_kation
 -------------------------------------
 Structure from the checkpoint file:  "JID_1201.chk"
 Charge =  1 Multiplicity = 2

 SCF Done:  E(UB3LYP) =  -822.272936317     A.U. after   24 cycles
 Normal termination of Gaussian 16 at Tue Dec  8 19:34:39 2020.
 Gaussian 16:  ES64L-G16RevA.03 25-Dec-2016

 ----------------------------------------------------------------------
 # B3LYP/6-311++G(d,p) empiricaldispersion=gd3bj scf=xqc pop=npa geom=c
 heck
 ----------------------------------------------------------------------

 ------------------------------------
 CID_117275432_JID_1201_Energie_anion
 ------------------------------------
 Structure from the checkpoint file:  "JID_1201.chk"
 Charge = -1 Multiplicity = 2

                         Standard orientation:
 ---------------------------------------------------------------------
 Center     Atomic      Atomic             Coordinates (Angstroms)
 Number     Number       Type             X           Y           Z
 ---------------------------------------------------------------------
      1          6           0        3.664442   -0.943470    0.030098
      2          6           0        2.327996   -0.246467    0.038198
      3          6           0        1.144338   -0.970430   -0.141555
      4          6           0       -0.115630   -0.360393   -0.165345
      5          6           0       -0.189770    1.048402   -0.020962
      6          6           0        1.002146    1.764580    0.183514
      7          6           0        2.239407    1.139089    0.220570
      8          6           0       -1.407395    1.874741   -0.144546
      9          8           0       -2.551864    1.497847   -0.313057
     10         16           0       -1.494391   -1.452855   -0.472788
     11          6           0       -2.572088   -1.195382    0.981976
     12          1           0        4.364907   -0.472417    0.727477
     13          1           0        3.567482   -1.999409    0.299610
     14          1           0        4.119124   -0.899406   -0.968183
     15          1           0        1.193472   -2.049887   -0.249236
     16          1           0        0.941648    2.843978    0.303964
     17          1           0        3.141201    1.722928    0.383944
     18          1           0       -1.189080    2.964880   -0.088714
     19          1           0       -1.995778   -1.298680    1.904400
     20          1           0       -3.057704   -0.222121    0.926669
     21          1           0       -3.320774   -1.990979    0.937443
 ---------------------------------------------------------------------

 SCF Done:  E(UB3LYP) =  -822.587598854     A.U. after   27 cycles

 The electronic state is 2-A.
 Alpha  occ. eigenvalues --  -88.69448 -18.91842 -10.05676 -10.04723 -10.04578
 Alpha  occ. eigenvalues --  -10.04367 -10.02698 -10.02652 -10.02487 -10.02327
 Alpha  occ. eigenvalues --  -10.01528  -7.78009  -5.74414  -5.74041  -5.73388
 Alpha  occ. eigenvalues --   -0.85749  -0.71612  -0.65318  -0.63152  -0.59114
 Alpha  occ. eigenvalues --   -0.56201  -0.50646  -0.45921  -0.45099  -0.39962
 Alpha  occ. eigenvalues --   -0.34594  -0.32590  -0.30772  -0.29992  -0.29180
 Alpha  occ. eigenvalues --   -0.28673  -0.27706  -0.26525  -0.26056  -0.24639
 Alpha  occ. eigenvalues --   -0.23426  -0.21466  -0.20975  -0.19734  -0.17215
 Alpha  occ. eigenvalues --   -0.12104  -0.10702  -0.08606  -0.06821   0.04399
 Alpha virt. eigenvalues --    0.08401   0.09863   0.10107   0.11350   0.11464
 Alpha virt. eigenvalues --    0.12202   0.12326   0.13097   0.14030   0.14813
 Alpha virt. eigenvalues --    0.15717   0.16132   0.16290   0.16859   0.18035

  Beta  occ. eigenvalues --  -88.69443 -18.91273 -10.05394 -10.04756 -10.04513
  Beta  occ. eigenvalues --  -10.04054 -10.02827 -10.02563 -10.02341 -10.02086
  Beta  occ. eigenvalues --  -10.01417  -7.78003  -5.74415  -5.74047  -5.73360
  Beta  occ. eigenvalues --   -0.84723  -0.71213  -0.64946  -0.62801  -0.58910
  Beta  occ. eigenvalues --   -0.55880  -0.50435  -0.45439  -0.44676  -0.39545
  Beta  occ. eigenvalues --   -0.34387  -0.32318  -0.30550  -0.29589  -0.29026
  Beta  occ. eigenvalues --   -0.28565  -0.27490  -0.26285  -0.25861  -0.23912
  Beta  occ. eigenvalues --   -0.22450  -0.20766  -0.20635  -0.18149  -0.16894
  Beta  occ. eigenvalues --   -0.11400  -0.09087  -0.07947  -0.06416
  Beta virt. eigenvalues --    0.08338   0.09530   0.10034   0.10747   0.11433
  Beta virt. eigenvalues --    0.11879   0.12268   0.12519   0.13133   0.14003
  Beta virt. eigenvalues --    0.14756   0.15712   0.16196   0.16516   0.17088

 Mulliken charges and spin densities:
               1          2
     1  C   -0.528067  -0.040738
     2  C    1.048465   0.236139
     3  C   -1.041324  -0.080950
     4  C    0.841983   0.192083
     5  C    0.785503   0.114404
     6  C   -0.654905   0.071698
     7  C   -0.715854   0.041269
     8  C   -0.271723   0.199653
     9  O   -0.377746   0.187711
    10  S   -0.599414   0.009997
    11  C   -0.539791  -0.047558
    12  H    0.105742   0.011082
    13  H    0.120269   0.003549
    14  H    0.101080   0.045186
    15  H    0.131586   0.005404
    16  H    0.080177  -0.003563
    17  H    0.096806  -0.002095
    18  H    0.038314  -0.015880
    19  H    0.117746   0.013661
    20  H    0.177195   0.021328
    21  H    0.083957   0.037620
 Sum of Mulliken charges =  -1.00000   1.00000

 Dipole moment (field-independent basis, Debye):
    X=              3.6813    Y=             -1.7707    Z=              1.4946  Tot=              4.3499
 Quadrupole moment (field-independent basis, Debye-Ang):
   XX=           -104.8396   YY=            -89.2192   ZZ=            -82.9200
   XY=              5.6913   XZ=             -3.5276   YZ=              0.0188

 Summary of Natural Population Analysis:

                                       Natural Population
                Natural  -----------------------------------------------
    Atom  No    Charge         Core      Valence    Rydberg      Total
 -----------------------------------------------------------------------
      C    1   -0.29252      0.99965     2.28853    0.00434     3.29252
      C    2    0.05101      0.99952     1.94141    0.00806     2.94899
      C    3   -0.13792      0.99948     2.12853    0.00991     3.13792
      C    4   -0.01057      0.99936     2.00019    0.01102     3.01057
      C    5   -0.06757      0.99942     2.05869    0.00946     3.06757
      C    6   -0.06086      0.99955     2.05233    0.00899     3.06086
      C    7   -0.12344      0.99952     2.11486    0.00906     3.12344
      C    8    0.23888      0.99969     1.74060    0.02084     2.76112
      O    9   -0.24352      0.99988     3.23582    0.00782     4.24352
      S   10    0.09822      4.99956     2.87923    0.02299     7.90178
      C   11   -0.34323      0.99961     2.33758    0.00604     3.34323
      H   12    0.09573      0.00000     0.40333    0.00094     0.40427
      H   13    0.09623      0.00000     0.40285    0.00092     0.40377
      H   14    0.10025      0.00000     0.39871    0.00104     0.39975
      H   15    0.09445      0.00000     0.40395    0.00160     0.40555
      H   16    0.08873      0.00000     0.40880    0.00247     0.41127
      H   17    0.08767      0.00000     0.41082    0.00151     0.41233
      H   18    0.02533      0.00000     0.47144    0.00323     0.47467
      H   19    0.09389      0.00000     0.40387    0.00224     0.40611
      H   20    0.11727      0.00000     0.37965    0.00309     0.38273
      H   21    0.09198      0.00000     0.40595    0.00207     0.40802
 =======================================================================
   * Total *   -0.00000     14.99523    28.86713    0.13763    44.00000

 Normal termination of Gaussian 16 at Tue Dec  8 19:39:36 2020.
