 Gaussian 16, Revision A.03,

 -----------------------------------------------------------
 # opt freq B3LYP/6-31G(d) empiricaldispersion=gd3bj scf=xqc
 -----------------------------------------------------------

 -------------------------------
 CID_152433525_JID_1963_neutraal
 -------------------------------
 Symbolic Z-matrix:
 Charge =  0 Multiplicity = 1

 SCF Done:  E(RB3LYP) =  -564.731179193     A.U. after   16 cycles
 SCF Done:  E(RB3LYP) =  -564.733853948     A.U. after   15 cycles
 SCF Done:  E(RB3LYP) =  -564.735245711     A.U. after   13 cycles
 SCF Done:  E(RB3LYP) =  -564.735586099     A.U. after   12 cycles
 SCF Done:  E(RB3LYP) =  -564.735584011     A.U. after   11 cycles
 SCF Done:  E(RB3LYP) =  -564.735617966     A.U. after   10 cycles
 SCF Done:  E(RB3LYP) =  -564.735620258     A.U. after    9 cycles
 SCF Done:  E(RB3LYP) =  -564.735620568     A.U. after    8 cycles
 SCF Done:  E(RB3LYP) =  -564.735620597     A.U. after    8 cycles
 SCF Done:  E(RB3LYP) =  -564.735620750     A.U. after    7 cycles
 Optimization completed.
    -- Stationary point found.
 Normal termination of Gaussian 16 at Tue Dec  8 21:45:49 2020.

 --------------------------------------------------------------------
 #N Geom=AllCheck Guess=TCheck SCRF=Check GenChk RB3LYP/6-31G(d) Freq
 --------------------------------------------------------------------

 Structure from the checkpoint file:  "JID_1963.chk"
 -------------------------------
 CID_152433525_JID_1963_neutraal
 -------------------------------
 Charge =  0 Multiplicity = 1

 SCF Done:  E(RB3LYP) =  -564.735620750     A.U. after    1 cycles

  Exact polarizability: 121.166   5.848  72.229   0.009   0.007  53.629
 Approx polarizability: 187.790  30.322 115.926   0.024   0.016  78.548

                      1                      2                      3
                      A                      A                      A
 Frequencies --     23.1757                41.4164                70.4175
 Red. masses --      8.9670                 5.2363                 3.9950
 Frc consts  --      0.0028                 0.0053                 0.0117
 IR Inten    --      0.0001                 0.9583                 0.4167

                      4                      5                      6
                      A                      A                      A
 Frequencies --    114.0087               122.5920               170.4408
 Red. masses --      6.4773                 1.2082                 3.1311
 Frc consts  --      0.0496                 0.0107                 0.0536
 IR Inten    --      0.9417                 0.0817                 3.9040

                      7                      8                      9
                      A                      A                      A
 Frequencies --    190.2502               279.3347               327.4987
 Red. masses --      4.8349                 5.2809                 5.2065
 Frc consts  --      0.1031                 0.2428                 0.3290
 IR Inten    --      1.3214                 5.1830                10.0461

                     10                     11                     12
                      A                      A                      A
 Frequencies --    350.7753               362.5233               431.8114
 Red. masses --      2.2216                 4.8174                 1.3326
 Frc consts  --      0.1611                 0.3730                 0.1464
 IR Inten    --      6.5281                 4.9035                69.5849

                     13                     14                     15
                      A                      A                      A
 Frequencies --    486.9067               509.3879               549.2067
 Red. masses --      7.1334                 2.4283                13.2707
 Frc consts  --      0.9964                 0.3712                 2.3584
 IR Inten    --      9.9884                 7.1174                 8.1114

                     16                     17                     18
                      A                      A                      A
 Frequencies --    688.1948               711.6238               751.0234
 Red. masses --      4.2500                 4.2635                11.6075
 Frc consts  --      1.1859                 1.2721                 3.8574
 IR Inten    --     25.5114                 4.7782                33.2844

                     19                     20                     21
                      A                      A                      A
 Frequencies --    755.7674               784.7557               873.7247
 Red. masses --      5.3711                 1.1208                 3.5597
 Frc consts  --      1.8075                 0.4067                 1.6011
 IR Inten    --      5.2591                 2.8376                15.6467

                     22                     23                     24
                      A                      A                      A
 Frequencies --    926.1403               934.5565               947.1868
 Red. masses --      1.1910                 3.6029                 7.8967
 Frc consts  --      0.6019                 1.8540                 4.1742
 IR Inten    --      0.3770                 3.1355                37.7307

                     25                     26                     27
                      A                      A                      A
 Frequencies --   1044.9430              1071.0594              1087.8155
 Red. masses --      2.4696                 1.4657                 1.4097
 Frc consts  --      1.5888                 0.9907                 0.9829
 IR Inten    --      0.1448                15.3805                 2.0621

                     28                     29                     30
                      A                      A                      A
 Frequencies --   1116.9657              1189.9885              1201.4430
 Red. masses --      5.9827                 1.2631                 1.2728
 Frc consts  --      4.3977                 1.0538                 1.0825
 IR Inten    --    161.2336                 0.9731                 0.0559

                     31                     32                     33
                      A                      A                      A
 Frequencies --   1210.1779              1221.8236              1364.9067
 Red. masses --      2.3214                 1.4898                 3.7925
 Frc consts  --      2.0031                 1.3104                 4.1627
 IR Inten    --      5.8299                34.6995               260.3571

                     34                     35                     36
                      A                      A                      A
 Frequencies --   1379.1205              1399.9586              1474.8299
 Red. masses --      4.4372                 3.8368                 1.0876
 Frc consts  --      4.9724                 4.4305                 1.3938
 IR Inten    --    176.1009               113.9406                 5.8946

                     37                     38                     39
                      A                      A                      A
 Frequencies --   1486.5372              1508.1199              1511.7512
 Red. masses --      1.4572                 1.5549                 1.0484
 Frc consts  --      1.8972                 2.0837                 1.4117
 IR Inten    --     47.2450               142.0978                 4.9161

                     40                     41                     42
                      A                      A                      A
 Frequencies --   1520.1394              1531.4535              1833.7697
 Red. masses --      1.3649                 1.1120                 9.1138
 Frc consts  --      1.8583                 1.5366                18.0566
 IR Inten    --     63.4927                21.1016               599.4924

                     43                     44                     45
                      A                      A                      A
 Frequencies --   2273.0192              3079.3114              3156.3180
 Red. masses --     13.8859                 1.0289                 1.0601
 Frc consts  --     42.2698                 5.7482                 6.2222
 IR Inten    --    461.1483                37.3719                15.4375

                     46                     47                     48
                      A                      A                      A
 Frequencies --   3156.5817              3157.2953              3181.0863
 Red. masses --      1.1040                 1.0612                 1.1077
 Frc consts  --      6.4812                 6.2329                 6.6041
 IR Inten    --     11.8147                 4.3529                15.7351

                     49                     50                     51
                      A                      A                      A
 Frequencies --   3255.8216              3264.0084              3645.3823
 Red. masses --      1.1137                 1.1125                 1.0770
 Frc consts  --      6.9557                 6.9835                 8.4321
 IR Inten    --      0.0179                 1.6133                70.1070

 - Thermochemistry -
 -------------------
 Temperature   298.150 Kelvin.  Pressure   1.00000 Atm.
 Atom     1 has atomic number  6 and mass  12.00000

 Molecular mass:   156.06473 amu.
 Principal axes and moments of inertia in atomic units:
                           1         2         3
     Eigenvalues --   593.872413035.645323472.17745
           X            0.99996  -0.00900  -0.00002
           Y            0.00900   0.99996   0.00002
           Z            0.00002  -0.00002   1.00000
 This molecule is an asymmetric top.
 Rotational symmetry number  1.
 Warning -- assumption of classical behavior for rotation
           may cause significant error
 Rotational temperatures (Kelvin)      0.14585     0.02853     0.02495
 Rotational constants (GHZ):           3.03894     0.59452     0.51977
 Zero-point vibrational energy     381168.2 (Joules/Mol)
                                   91.10139 (Kcal/Mol)
 Warning -- explicit consideration of  15 degrees of freedom as
           vibrations may cause significant error
 Vibrational temperatures:     33.34    59.59   101.32   164.03   176.38
          (Kelvin)            245.23   273.73   401.90   471.20   504.69
                              521.59   621.28   700.55   732.90   790.19
                              990.16  1023.87  1080.56  1087.38  1129.09
                             1257.10  1332.51  1344.62  1362.79  1503.44
                             1541.02  1565.12  1607.06  1712.13  1728.61
                             1741.18  1757.93  1963.80  1984.25  2014.23
                             2121.95  2138.80  2169.85  2175.07  2187.14
                             2203.42  2638.39  3270.37  4430.44  4541.24
                             4541.62  4542.64  4576.87  4684.40  4696.18
                             5244.89

 Zero-point correction=                           0.145179 (Hartree/Particle)
 Thermal correction to Energy=                    0.156522
 Thermal correction to Enthalpy=                  0.157466
 Thermal correction to Gibbs Free Energy=         0.106118
 Sum of electronic and zero-point Energies=           -564.590441
 Sum of electronic and thermal Energies=              -564.579099
 Sum of electronic and thermal Enthalpies=            -564.578155
 Sum of electronic and thermal Free Energies=         -564.629503

                     E (Thermal)             CV                S
                      KCal/Mol        Cal/Mol-Kelvin    Cal/Mol-Kelvin
 Total                   98.219             39.499            108.071
 Electronic               0.000              0.000              0.000
 Translational            0.889              2.981             41.045
 Rotational               0.889              2.981             30.216
 Vibrational             96.441             33.537             36.810
 Vibration     1          0.593              1.985              6.342
 Vibration     2          0.594              1.981              5.190
 Vibration     3          0.598              1.968              4.142
 Vibration     4          0.607              1.938              3.199
 Vibration     5          0.610              1.930              3.059
 Vibration     6          0.626              1.879              2.431
 Vibration     7          0.634              1.853              2.225
 Vibration     8          0.680              1.712              1.538
 Vibration     9          0.711              1.621              1.272
 Vibration    10          0.728              1.574              1.163
 Vibration    11          0.736              1.549              1.111
 Vibration    12          0.793              1.401              0.853
 Vibration    13          0.843              1.279              0.692
 Vibration    14          0.865              1.229              0.635
 Vibration    15          0.904              1.141              0.546

                           ! Non-Optimized Parameters !
 Normal termination of Gaussian 16 at Tue Dec  8 21:49:19 2020.

 ----------------------------------------------------------------------
 # B3LYP/6-311++G(d,p) empiricaldispersion=gd3bj scf=xqc pop=npa geom=c
 heck
 ----------------------------------------------------------------------

 ---------------------------------------
 CID_152433525_JID_1963_Energie_neutraal
 ---------------------------------------
 Structure from the checkpoint file:  "JID_1963.chk"
 Charge =  0 Multiplicity = 1

 SCF Done:  E(RB3LYP) =  -564.902837960     A.U. after   16 cycles
 Normal termination of Gaussian 16 at Tue Dec  8 21:50:55 2020.

 ----------------------------------------------------------------------
 # B3LYP/6-311++G(d,p) empiricaldispersion=gd3bj scf=xqc pop=npa geom=c
 heck
 ----------------------------------------------------------------------

 -------------------------------------
 CID_152433525_JID_1963_Energie_kation
 -------------------------------------
 Structure from the checkpoint file:  "JID_1963.chk"
 Charge =  1 Multiplicity = 2

 SCF Done:  E(UB3LYP) =  -564.581583355     A.U. after   24 cycles
 Normal termination of Gaussian 16 at Tue Dec  8 21:53:43 2020.
 Gaussian 16:  ES64L-G16RevA.03 25-Dec-2016

 ----------------------------------------------------------------------
 # B3LYP/6-311++G(d,p) empiricaldispersion=gd3bj scf=xqc pop=npa geom=c
 heck
 ----------------------------------------------------------------------

 ------------------------------------
 CID_152433525_JID_1963_Energie_anion
 ------------------------------------
 Structure from the checkpoint file:  "JID_1963.chk"
 Charge = -1 Multiplicity = 2

                         Standard orientation:
 ---------------------------------------------------------------------
 Center     Atomic      Atomic             Coordinates (Angstroms)
 Number     Number       Type             X           Y           Z
 ---------------------------------------------------------------------
      1          6           0        3.391582   -0.917571   -0.001179
      2          8           0        1.988645   -0.616297   -0.000559
      3          6           0        1.701595    0.713380    0.000123
      4          8           0        2.543485    1.591346    0.000520
      5          7           0        0.358453    0.949950    0.000277
      6          6           0       -0.760627    0.043331    0.000386
      7          6           0       -0.783664   -1.253423   -0.760540
      8          6           0       -0.784146   -1.252380    0.763184
      9          7           0       -1.933492    0.917755   -0.000608
     10          7           0       -3.034856    0.368703   -0.000807
     11          7           0       -4.104673   -0.032816   -0.001068
     12          1           0        3.452231   -2.006327   -0.003282
     13          1           0        3.873270   -0.506482    0.889202
     14          1           0        3.873277   -0.502957   -0.889897
     15          1           0        0.112835    1.929320    0.001866
     16          1           0       -1.704681   -1.516009   -1.275409
     17          1           0        0.127727   -1.555280   -1.261992
     18          1           0        0.127148   -1.553297    1.265434
     19          1           0       -1.705315   -1.514531    1.277994
 ---------------------------------------------------------------------

 SCF Done:  E(UB3LYP) =  -564.898010097     A.U. after   30 cycles

 The electronic state is 2-A.
 Alpha  occ. eigenvalues --  -19.05988 -18.99064 -14.30995 -14.23436 -14.22115
 Alpha  occ. eigenvalues --  -14.21960 -10.21487 -10.14640 -10.11459 -10.06468
 Alpha  occ. eigenvalues --  -10.06444  -1.00538  -0.99164  -0.91249  -0.85956
 Alpha  occ. eigenvalues --   -0.81378  -0.73553  -0.62621  -0.56691  -0.50362
 Alpha  occ. eigenvalues --   -0.47667  -0.45473  -0.42225  -0.39293  -0.38259
 Alpha  occ. eigenvalues --   -0.36862  -0.36430  -0.35086  -0.33764  -0.32058
 Alpha  occ. eigenvalues --   -0.31216  -0.30465  -0.26494  -0.25780  -0.25500
 Alpha  occ. eigenvalues --   -0.22227  -0.20111  -0.18237  -0.17321  -0.14935
 Alpha  occ. eigenvalues --   -0.10541   0.05021
 Alpha virt. eigenvalues --    0.06619   0.09325   0.09872   0.10119   0.11366
 Alpha virt. eigenvalues --    0.11413   0.12237   0.13515   0.14101   0.14553
 Alpha virt. eigenvalues --    0.15847   0.15909   0.16037   0.17148   0.18452

  Beta  occ. eigenvalues --  -19.05985 -18.99060 -14.30527 -14.23430 -14.22179
  Beta  occ. eigenvalues --  -14.21413 -10.21487 -10.14501 -10.11400 -10.06471
  Beta  occ. eigenvalues --  -10.06447  -1.00520  -0.98330  -0.91234  -0.85711
  Beta  occ. eigenvalues --   -0.81144  -0.73460  -0.62520  -0.56435  -0.50346
  Beta  occ. eigenvalues --   -0.47591  -0.45123  -0.42141  -0.39208  -0.38237
  Beta  occ. eigenvalues --   -0.36084  -0.35823  -0.34958  -0.32897  -0.31851
  Beta  occ. eigenvalues --   -0.31169  -0.29281  -0.26469  -0.25727  -0.25386
  Beta  occ. eigenvalues --   -0.21882  -0.20093  -0.18159  -0.16434  -0.14879
  Beta  occ. eigenvalues --   -0.10422
  Beta virt. eigenvalues --    0.07829   0.09585   0.09906   0.10044   0.11482
  Beta virt. eigenvalues --    0.11679   0.12068   0.13056   0.13658   0.14337
  Beta virt. eigenvalues --    0.14594   0.15822   0.15977   0.16200   0.17053

 Mulliken charges and spin densities:
               1          2
     1  C    1.093243  -1.359694
     2  O   -0.270759   0.097563
     3  C    0.389891  -0.093270
     4  O   -0.342584   0.015119
     5  N   -0.402279   0.066325
     6  C   -0.613500   0.316958
     7  C   -0.010487  -0.227024
     8  C   -0.009636  -0.226814
     9  N   -0.358519   0.354629
    10  N    0.429507  -0.231135
    11  N   -0.388263   0.284012
    12  H   -0.698755   0.852224
    13  H   -0.238229   0.409783
    14  H   -0.236690   0.408209
    15  H    0.303012   0.047023
    16  H    0.131902   0.018397
    17  H    0.045547   0.124347
    18  H    0.044385   0.125248
    19  H    0.132215   0.018102
 Sum of Mulliken charges =  -1.00000   1.00000

 Dipole moment (field-independent basis, Debye):
    X=             -1.6444    Y=              1.9139    Z=              0.0036  Tot=              2.5234
 Quadrupole moment (field-independent basis, Debye-Ang):
   XX=           -142.7865   YY=            -96.1710   ZZ=            -76.2626
   XY=              8.9534   XZ=             -0.0086   YZ=             -0.0015

 Summary of Natural Population Analysis:

                                       Natural Population
                Natural  -----------------------------------------------
    Atom  No    Charge         Core      Valence    Rydberg      Total
 -----------------------------------------------------------------------
      C    1   -0.09852      0.99960     2.09029    0.00863     3.09852
      O    2   -0.29108      0.99987     3.28200    0.00921     4.29108
      C    3    0.46188      0.99970     1.51350    0.02491     2.53812
      O    4   -0.33537      0.99987     3.33031    0.00519     4.33537
      N    5   -0.32234      0.99962     2.81309    0.00964     3.82234
      C    6    0.15460      0.99952     1.82895    0.01693     2.84540
      C    7   -0.21208      0.99960     2.20316    0.00931     3.21208
      C    8   -0.21210      0.99960     2.20318    0.00931     3.21210
      N    9   -0.22417      0.99966     2.71067    0.01384     3.72417
      N   10    0.15169      0.99971     2.33292    0.01569     3.34831
      N   11    0.00843      0.99982     2.47901    0.01275     3.49157
      H   12    0.09539      0.00000     0.40055    0.00406     0.40461
      H   13    0.09025      0.00000     0.40853    0.00122     0.40975
      H   14    0.09028      0.00000     0.40850    0.00122     0.40972
      H   15    0.20833      0.00000     0.29020    0.00147     0.29167
      H   16    0.10491      0.00000     0.39432    0.00077     0.39509
      H   17    0.11252      0.00000     0.38614    0.00134     0.38748
      H   18    0.11247      0.00000     0.38619    0.00134     0.38753
      H   19    0.10491      0.00000     0.39432    0.00077     0.39509
 =======================================================================
   * Total *    0.00000     10.99657    29.85583    0.14760    41.00000

 Normal termination of Gaussian 16 at Tue Dec  8 21:57:02 2020.
