 Gaussian 16, Revision A.03,

 -----------------------------------------------------------
 # opt freq B3LYP/6-31G(d) empiricaldispersion=gd3bj scf=xqc
 -----------------------------------------------------------

 -------------------------------
 CID_114154924_JID_7760_neutraal
 -------------------------------
 Symbolic Z-matrix:
 Charge =  0 Multiplicity = 1

 SCF Done:  E(RB3LYP) =  -1232.52258640     A.U. after   15 cycles
 SCF Done:  E(RB3LYP) =  -1232.53644758     A.U. after   13 cycles
 SCF Done:  E(RB3LYP) =  -1232.53718603     A.U. after   13 cycles
 SCF Done:  E(RB3LYP) =  -1232.53231498     A.U. after   13 cycles
 SCF Done:  E(RB3LYP) =  -1232.53801975     A.U. after   12 cycles
 SCF Done:  E(RB3LYP) =  -1232.53846105     A.U. after   12 cycles
 SCF Done:  E(RB3LYP) =  -1232.53903572     A.U. after   12 cycles
 SCF Done:  E(RB3LYP) =  -1232.53929758     A.U. after   12 cycles
 SCF Done:  E(RB3LYP) =  -1232.53949723     A.U. after   11 cycles
 SCF Done:  E(RB3LYP) =  -1232.53961316     A.U. after   11 cycles
 SCF Done:  E(RB3LYP) =  -1232.53973298     A.U. after    8 cycles
 SCF Done:  E(RB3LYP) =  -1232.53973336     A.U. after    7 cycles
 SCF Done:  E(RB3LYP) =  -1232.53973350     A.U. after    7 cycles
 SCF Done:  E(RB3LYP) =  -1232.53973355     A.U. after    7 cycles
 SCF Done:  E(RB3LYP) =  -1232.53973354     A.U. after    7 cycles
 Optimization completed.
    -- Stationary point found.
 Normal termination of Gaussian 16 at Fri Dec 11 13:13:39 2020.

 --------------------------------------------------------------------
 #N Geom=AllCheck Guess=TCheck SCRF=Check GenChk RB3LYP/6-31G(d) Freq
 --------------------------------------------------------------------

 Structure from the checkpoint file:  "JID_7760.chk"
 -------------------------------
 CID_114154924_JID_7760_neutraal
 -------------------------------
 Charge =  0 Multiplicity = 1

 SCF Done:  E(RB3LYP) =  -1232.53973354     A.U. after    1 cycles

  Exact polarizability: 146.831  -2.121 145.688 -16.486   4.440 116.146
 Approx polarizability: 203.181  -5.778 220.756 -37.572   5.754 194.847

                      1                      2                      3
                      A                      A                      A
 Frequencies --     28.7304                38.8267                56.6867
 Red. masses --      5.5275                 4.9645                 4.9466
 Frc consts  --      0.0027                 0.0044                 0.0094
 IR Inten    --      0.9679                 0.0392                 1.8566

                      4                      5                      6
                      A                      A                      A
 Frequencies --     84.0120                94.4212               106.5383
 Red. masses --      2.4344                 3.1376                 3.3494
 Frc consts  --      0.0101                 0.0165                 0.0224
 IR Inten    --      3.4758                 4.2292                 4.0344

                      7                      8                      9
                      A                      A                      A
 Frequencies --    128.7186               135.7058               165.2390
 Red. masses --      4.2833                 3.0885                 4.1909
 Frc consts  --      0.0418                 0.0335                 0.0674
 IR Inten    --      3.9784                 2.3264                 2.0448

                     10                     11                     12
                      A                      A                      A
 Frequencies --    176.3604               194.9380               205.6545
 Red. masses --      3.1407                 1.9185                 1.2228
 Frc consts  --      0.0576                 0.0430                 0.0305
 IR Inten    --      1.8805                 7.4696                 0.7962

                     13                     14                     15
                      A                      A                      A
 Frequencies --    223.7297               254.4655               276.0669
 Red. masses --      2.8521                 7.6312                 3.9037
 Frc consts  --      0.0841                 0.2911                 0.1753
 IR Inten    --      5.6008                 5.6616                 7.4819

                     16                     17                     18
                      A                      A                      A
 Frequencies --    294.6565               307.1839               339.6531
 Red. masses --      4.2368                 4.2900                 3.5792
 Frc consts  --      0.2167                 0.2385                 0.2433
 IR Inten    --      2.1285                 8.5312                 6.4665

                     19                     20                     21
                      A                      A                      A
 Frequencies --    367.9546               383.5964               413.8721
 Red. masses --      3.7209                 3.5765                 3.3144
 Frc consts  --      0.2968                 0.3101                 0.3345
 IR Inten    --     19.4537                 5.7965                12.7998

                     22                     23                     24
                      A                      A                      A
 Frequencies --    417.6202               443.5899               464.6068
 Red. masses --      4.2547                 1.4286                 2.3852
 Frc consts  --      0.4372                 0.1656                 0.3033
 IR Inten    --     14.3766                49.5194                 8.8245

                     25                     26                     27
                      A                      A                      A
 Frequencies --    528.0626               541.5398               563.7387
 Red. masses --      2.9248                 2.7566                 3.8253
 Frc consts  --      0.4805                 0.4763                 0.7163
 IR Inten    --     20.2849                41.0913               118.9159

                     28                     29                     30
                      A                      A                      A
 Frequencies --    578.7546               593.7969               623.1898
 Red. masses --      1.9157                 1.6799                 3.7018
 Frc consts  --      0.3781                 0.3490                 0.8470
 IR Inten    --     71.1023               261.4114                 5.6675

                     31                     32                     33
                      A                      A                      A
 Frequencies --    653.6244               658.8258               709.2524
 Red. masses --      3.4383                 1.7826                 6.4640
 Frc consts  --      0.8655                 0.4559                 1.9158
 IR Inten    --      6.4958                94.9684                74.5983

                     34                     35                     36
                      A                      A                      A
 Frequencies --    731.2494               802.5331               840.4385
 Red. masses --      9.3126                 5.7936                 1.4006
 Frc consts  --      2.9340                 2.1985                 0.5829
 IR Inten    --     42.9307                 8.6466                 7.2846

                     37                     38                     39
                      A                      A                      A
 Frequencies --    877.9898               888.5575               928.7140
 Red. masses --      2.4614                 1.8314                 3.1520
 Frc consts  --      1.1179                 0.8519                 1.6018
 IR Inten    --    101.7681                36.4395                28.0888

                     40                     41                     42
                      A                      A                      A
 Frequencies --    962.6517               985.4929              1049.2123
 Red. masses --      2.4246                 2.8100                 3.2351
 Frc consts  --      1.3238                 1.6079                 2.0983
 IR Inten    --     56.1762                 1.7384                64.8023

                     43                     44                     45
                      A                      A                      A
 Frequencies --   1076.3972              1094.9777              1096.0779
 Red. masses --      7.8603                 2.8930                 2.2244
 Frc consts  --      5.3658                 2.0437                 1.5745
 IR Inten    --     85.5903                58.8504                59.7428

                     46                     47                     48
                      A                      A                      A
 Frequencies --   1115.3153              1136.8458              1138.4040
 Red. masses --      2.3465                 2.6589                 2.4938
 Frc consts  --      1.7197                 2.0246                 1.9042
 IR Inten    --     26.1487                24.0400                23.0960

                     49                     50                     51
                      A                      A                      A
 Frequencies --   1176.8519              1179.3594              1186.2694
 Red. masses --      2.8309                 1.3253                 1.2764
 Frc consts  --      2.3101                 1.0861                 1.0583
 IR Inten    --    103.8077                 0.4872                 2.7502

                     52                     53                     54
                      A                      A                      A
 Frequencies --   1223.0755              1227.7725              1263.7089
 Red. masses --      2.5764                 1.9827                 1.4803
 Frc consts  --      2.2708                 1.7610                 1.3928
 IR Inten    --     36.0948                51.9968                28.6730

                     55                     56                     57
                      A                      A                      A
 Frequencies --   1267.7586              1280.1470              1313.6504
 Red. masses --      1.4583                 5.8002                 1.3190
 Frc consts  --      1.3809                 5.6003                 1.3410
 IR Inten    --     34.6186               160.5044                40.9023

                     58                     59                     60
                      A                      A                      A
 Frequencies --   1328.2709              1371.8678              1373.5771
 Red. masses --      1.3483                 1.2417                 4.0823
 Frc consts  --      1.4016                 1.3769                 4.5379
 IR Inten    --      9.2168                 3.4186                45.5412

                     61                     62                     63
                      A                      A                      A
 Frequencies --   1403.8809              1417.1564              1430.9446
 Red. masses --      5.6404                 1.2870                 1.2769
 Frc consts  --      6.5497                 1.5228                 1.5405
 IR Inten    --     61.4265                20.8732                18.3925

                     64                     65                     66
                      A                      A                      A
 Frequencies --   1445.1864              1452.2781              1464.7221
 Red. masses --      1.2690                 2.3764                 1.2553
 Frc consts  --      1.5616                 2.9531                 1.5868
 IR Inten    --     59.0358                21.1609                32.7857

                     67                     68                     69
                      A                      A                      A
 Frequencies --   1490.4739              1498.8491              1511.5436
 Red. masses --      1.4850                 1.1454                 1.0462
 Frc consts  --      1.9437                 1.5161                 1.4083
 IR Inten    --     32.1062                 3.2521                 5.7389

                     70                     71                     72
                      A                      A                      A
 Frequencies --   1516.4515              1529.9293              1532.0880
 Red. masses --      1.0548                 1.1006                 1.0833
 Frc consts  --      1.4291                 1.5179                 1.4982
 IR Inten    --      4.0193                 3.3155                 4.6930

                     73                     74                     75
                      A                      A                      A
 Frequencies --   1542.6593              1550.3911              1563.8450
 Red. masses --      1.0625                 1.4989                 1.7534
 Frc consts  --      1.4898                 2.1228                 2.5265
 IR Inten    --      9.3350                16.0321                12.9143

                     76                     77                     78
                      A                      A                      A
 Frequencies --   1598.1047              1679.2971              3008.8938
 Red. masses --      2.0949                 1.9789                 1.0482
 Frc consts  --      3.1523                 3.2880                 5.5913
 IR Inten    --     90.1252               329.5601                31.9095

                     79                     80                     81
                      A                      A                      A
 Frequencies --   3018.9958              3056.6386              3077.7266
 Red. masses --      1.0551                 1.0584                 1.0336
 Frc consts  --      5.6659                 5.8264                 5.7686
 IR Inten    --     62.9919                27.7491                22.7682

                     82                     83                     84
                      A                      A                      A
 Frequencies --   3078.1374              3081.0733              3097.9030
 Red. masses --      1.0962                 1.0956                 1.0933
 Frc consts  --      6.1194                 6.1280                 6.1821
 IR Inten    --     24.6985                35.3925                31.9446

                     85                     86                     87
                      A                      A                      A
 Frequencies --   3104.9535              3135.7619              3157.1419
 Red. masses --      1.1045                 1.1010                 1.1065
 Frc consts  --      6.2738                 6.3786                 6.4979
 IR Inten    --     32.5700                30.2524                 2.2810

                     88                     89                     90
                      A                      A                      A
 Frequencies --   3170.7424              3263.0760              3483.0764
 Red. masses --      1.1063                 1.0971                 1.0732
 Frc consts  --      6.5529                 6.8824                 7.6711
 IR Inten    --      6.2409                 2.0487                25.7978

                     91                     92                     93
                      A                      A                      A
 Frequencies --   3562.2038              3673.9652              3678.6047
 Red. masses --      1.0465                 1.0670                 1.1001
 Frc consts  --      7.8238                 8.4854                 8.7713
 IR Inten    --     39.1070                94.9185                48.3453

 - Thermochemistry -
 -------------------
 Temperature   298.150 Kelvin.  Pressure   1.00000 Atm.
 Atom     1 has atomic number  6 and mass  12.00000

 Molecular mass:   264.08923 amu.
 Principal axes and moments of inertia in atomic units:
                           1         2         3
     Eigenvalues --  3305.548454796.986845973.16415
           X            0.99960  -0.02796  -0.00319
           Y            0.02808   0.99853   0.04641
           Z            0.00189  -0.04648   0.99892
 This molecule is an asymmetric top.
 Rotational symmetry number  1.
 Warning -- assumption of classical behavior for rotation
           may cause significant error
 Rotational temperatures (Kelvin)      0.02620     0.01806     0.01450
 Rotational constants (GHZ):           0.54597     0.37622     0.30214
 Zero-point vibrational energy     707277.0 (Joules/Mol)
                                  169.04325 (Kcal/Mol)
 Warning -- explicit consideration of  29 degrees of freedom as
           vibrations may cause significant error
 Vibrational temperatures:     41.34    55.86    81.56   120.87   135.85
          (Kelvin)            153.28   185.20   195.25   237.74   253.74
                              280.47   295.89   321.90   366.12   397.20
                              423.95   441.97   488.69   529.40   551.91
                              595.47   600.86   638.23   668.47   759.76
                              779.16   811.09   832.70   854.34   896.63
                              940.42   947.90  1020.46  1052.10  1154.67
                             1209.20  1263.23  1278.44  1336.21  1385.04
                             1417.90  1509.58  1548.70  1575.43  1577.01
                             1604.69  1635.67  1637.91  1693.23  1696.84
                             1706.78  1759.73  1766.49  1818.20  1824.02
                             1841.85  1890.05  1911.09  1973.81  1976.27
                             2019.87  2038.97  2058.81  2079.30  2089.50
                             2107.41  2144.46  2156.51  2174.77  2181.84
                             2201.23  2204.33  2219.54  2230.67  2250.02
                             2299.32  2416.13  4329.13  4343.66  4397.82
                             4428.16  4428.75  4432.98  4457.19  4467.34
                             4511.66  4542.42  4561.99  4694.84  5011.37
                             5125.22  5286.02  5292.69

 Zero-point correction=                           0.269388 (Hartree/Particle)
 Thermal correction to Energy=                    0.287488
 Thermal correction to Enthalpy=                  0.288432
 Thermal correction to Gibbs Free Energy=         0.222839
 Sum of electronic and zero-point Energies=          -1232.270346
 Sum of electronic and thermal Energies=             -1232.252245
 Sum of electronic and thermal Enthalpies=           -1232.251301
 Sum of electronic and thermal Free Energies=        -1232.316895

                     E (Thermal)             CV                S
                      KCal/Mol        Cal/Mol-Kelvin    Cal/Mol-Kelvin
 Total                  180.402             66.666            138.053
 Electronic               0.000              0.000              0.000
 Translational            0.889              2.981             42.613
 Rotational               0.889              2.981             32.915
 Vibrational            178.624             60.704             62.525
 Vibration     1          0.593              1.984              5.915
 Vibration     2          0.594              1.981              5.318
 Vibration     3          0.596              1.975              4.569
 Vibration     4          0.601              1.960              3.795
 Vibration     5          0.603              1.953              3.566
 Vibration     6          0.605              1.944              3.331
 Vibration     7          0.611              1.925              2.965
 Vibration     8          0.614              1.918              2.864
 Vibration     9          0.624              1.885              2.489
 Vibration    10          0.628              1.871              2.367
 Vibration    11          0.636              1.847              2.180
 Vibration    12          0.640              1.832              2.082
 Vibration    13          0.649              1.805              1.929
 Vibration    14          0.665              1.755              1.699
 Vibration    15          0.678              1.718              1.558
 Vibration    16          0.689              1.684              1.447
 Vibration    17          0.697              1.660              1.377
 Vibration    18          0.720              1.596              1.214
 Vibration    19          0.741              1.538              1.088
 Vibration    20          0.753              1.505              1.025
 Vibration    21          0.777              1.440              0.913
 Vibration    22          0.781              1.432              0.900
 Vibration    23          0.803              1.375              0.815
 Vibration    24          0.822              1.329              0.753
 Vibration    25          0.883              1.188              0.592
 Vibration    26          0.897              1.158              0.562
 Vibration    27          0.920              1.110              0.516
 Vibration    28          0.935              1.077              0.488
 Vibration    29          0.951              1.045              0.460

                           ! Non-Optimized Parameters !
 Normal termination of Gaussian 16 at Fri Dec 11 13:26:25 2020.

 ----------------------------------------------------------------------
 # B3LYP/6-311++G(d,p) empiricaldispersion=gd3bj scf=xqc pop=npa geom=c
 heck
 ----------------------------------------------------------------------

 ---------------------------------------
 CID_114154924_JID_7760_Energie_neutraal
 ---------------------------------------
 Structure from the checkpoint file:  "JID_7760.chk"
 Charge =  0 Multiplicity = 1

 SCF Done:  E(RB3LYP) =  -1232.82488927     A.U. after   15 cycles
 Normal termination of Gaussian 16 at Fri Dec 11 13:31:42 2020.

 ----------------------------------------------------------------------
 # B3LYP/6-311++G(d,p) empiricaldispersion=gd3bj scf=xqc pop=npa geom=c
 heck
 ----------------------------------------------------------------------

 -------------------------------------
 CID_114154924_JID_7760_Energie_kation
 -------------------------------------
 Structure from the checkpoint file:  "JID_7760.chk"
 Charge =  1 Multiplicity = 2

 SCF Done:  E(UB3LYP) =  -1232.52670114     A.U. after   25 cycles
 Normal termination of Gaussian 16 at Fri Dec 11 13:43:35 2020.
 Gaussian 16:  ES64L-G16RevA.03 25-Dec-2016

 ----------------------------------------------------------------------
 # B3LYP/6-311++G(d,p) empiricaldispersion=gd3bj scf=xqc pop=npa geom=c
 heck
 ----------------------------------------------------------------------

 ------------------------------------
 CID_114154924_JID_7760_Energie_anion
 ------------------------------------
 Structure from the checkpoint file:  "JID_7760.chk"
 Charge = -1 Multiplicity = 2

                         Standard orientation:
 ---------------------------------------------------------------------
 Center     Atomic      Atomic             Coordinates (Angstroms)
 Number     Number       Type             X           Y           Z
 ---------------------------------------------------------------------
      1          6           0        0.557589    2.578727    0.636458
      2          7           0        1.515448    1.647989    0.054027
      3          6           0        2.531191    1.934578   -0.785623
      4          7           0        3.149407    0.859761   -1.257683
      5          6           0        2.495854   -0.209482   -0.708539
      6          6           0        1.464125    0.247165    0.117841
      7         16           0        0.428454   -0.647823    1.158319
      8          8           0        0.739138   -2.076042    0.884144
      9          8           0        0.446655   -0.189358    2.550640
     10          7           0       -1.099629   -0.219803    0.585785
     11          6           0       -1.410810   -0.458139   -0.834811
     12          6           0       -1.424571   -1.964264   -1.207115
     13          8           0       -1.897858   -2.762786   -0.134593
     14          6           0       -2.750532    0.221045   -1.135886
     15          8           0       -2.725376    1.616922   -0.897476
     16          6           0       -3.319483    2.022470    0.324572
     17          7           0        2.829584   -1.496686   -1.029088
     18          1           0        0.433843    2.358897    1.698838
     19          1           0       -0.408670    2.486288    0.132896
     20          1           0        0.949373    3.590392    0.514210
     21          1           0        2.788605    2.955513   -1.035667
     22          1           0       -1.786059   -0.673691    1.191671
     23          1           0       -0.641030    0.056403   -1.418245
     24          1           0       -2.096711   -2.126304   -2.057581
     25          1           0       -0.418503   -2.272036   -1.512146
     26          1           0       -1.115324   -2.940817    0.418303
     27          1           0       -2.968978    0.078465   -2.200975
     28          1           0       -3.555506   -0.267365   -0.565442
     29          1           0       -4.357378    1.664964    0.401198
     30          1           0       -2.752074    1.669532    1.194591
     31          1           0       -3.325690    3.115807    0.321217
     32          1           0        3.774902   -1.610692   -1.369135
     33          1           0        2.499627   -2.201500   -0.381224
 ---------------------------------------------------------------------

 SCF Done:  E(UB3LYP) =  -1232.81403747     A.U. after   33 cycles
 SCF Done:  E(UB3LYP) =  -1232.81403747     a.u. after    1 cycles

 The electronic state is 2-A.
 Alpha  occ. eigenvalues --  -88.98611 -19.04223 -19.04113 -19.03795 -19.03078
 Alpha  occ. eigenvalues --  -14.29266 -14.25939 -14.23797 -14.21465 -10.16084
 Alpha  occ. eigenvalues --  -10.14827 -10.14072 -10.13803 -10.13410 -10.12936
 Alpha  occ. eigenvalues --  -10.11981 -10.11675  -8.04682  -6.00969  -6.00901
 Alpha  occ. eigenvalues --   -6.00825  -1.03634  -0.95418  -0.94621  -0.94531
 Alpha  occ. eigenvalues --   -0.92297  -0.85009  -0.84555  -0.79245  -0.70281
 Alpha  occ. eigenvalues --   -0.68482  -0.63015  -0.62286  -0.59488  -0.56211
 Alpha  occ. eigenvalues --   -0.53296  -0.52234  -0.50242  -0.46767  -0.44547
 Alpha  occ. eigenvalues --   -0.42772  -0.42430  -0.41540  -0.41028  -0.40342
 Alpha  occ. eigenvalues --   -0.39140  -0.38886  -0.37459  -0.36917  -0.36430
 Alpha  occ. eigenvalues --   -0.35556  -0.33816  -0.32976  -0.32512  -0.32042
 Alpha  occ. eigenvalues --   -0.31657  -0.29221  -0.26810  -0.25899  -0.25049
 Alpha  occ. eigenvalues --   -0.24686  -0.24321  -0.23917  -0.23026  -0.21283
 Alpha  occ. eigenvalues --   -0.20289  -0.19275  -0.18624  -0.17054  -0.13027
 Alpha  occ. eigenvalues --    0.04142
 Alpha virt. eigenvalues --    0.05989   0.06163   0.06657   0.07167   0.08266
 Alpha virt. eigenvalues --    0.08618   0.09940   0.10079   0.10232   0.10830
 Alpha virt. eigenvalues --    0.11468   0.11966   0.12181   0.12771   0.12966

  Beta  occ. eigenvalues --  -88.98605 -19.04215 -19.04106 -19.03775 -19.03054
  Beta  occ. eigenvalues --  -14.29223 -14.25932 -14.23774 -14.21475 -10.16052
  Beta  occ. eigenvalues --  -10.14763 -10.14057 -10.13795 -10.13406 -10.12922
  Beta  occ. eigenvalues --  -10.11942 -10.11637  -8.04674  -6.00962  -6.00891
  Beta  occ. eigenvalues --   -6.00819  -1.03575  -0.95403  -0.94586  -0.94489
  Beta  occ. eigenvalues --   -0.92242  -0.84970  -0.84519  -0.79207  -0.70238
  Beta  occ. eigenvalues --   -0.68434  -0.62951  -0.62245  -0.59414  -0.56150
  Beta  occ. eigenvalues --   -0.53251  -0.52167  -0.50195  -0.46717  -0.44487
  Beta  occ. eigenvalues --   -0.42746  -0.42392  -0.41488  -0.40986  -0.40305
  Beta  occ. eigenvalues --   -0.39106  -0.38772  -0.37410  -0.36874  -0.36403
  Beta  occ. eigenvalues --   -0.35526  -0.33764  -0.32952  -0.32438  -0.31982
  Beta  occ. eigenvalues --   -0.31618  -0.29192  -0.26770  -0.25874  -0.24981
  Beta  occ. eigenvalues --   -0.24598  -0.24291  -0.23876  -0.22991  -0.21265
  Beta  occ. eigenvalues --   -0.20281  -0.19251  -0.18536  -0.17036  -0.12863
  Beta virt. eigenvalues --    0.06173   0.06678   0.06936   0.07555   0.07743
  Beta virt. eigenvalues --    0.08529   0.09275   0.10054   0.10451   0.10539
  Beta virt. eigenvalues --    0.11250   0.11647   0.12088   0.12397   0.12910

 Mulliken charges and spin densities:
               1          2
     1  C    0.429003  -0.827545
     2  N    0.044675   0.104358
     3  C    0.236196  -0.096173
     4  N   -0.180613  -0.007384
     5  C   -0.101263   0.262920
     6  C   -1.291209   0.280539
     7  S    2.442830  -1.921744
     8  O   -0.291798   0.021421
     9  O   -0.069522   0.019702
    10  N   -0.552415   0.197187
    11  C   -0.373489   0.327710
    12  C   -0.584613  -0.146147
    13  O   -0.197937  -0.014606
    14  C    0.014228  -0.483485
    15  O   -0.123223   0.066381
    16  C    0.758280  -1.071383
    17  N   -0.333807  -0.018164
    18  H   -0.053440   0.275655
    19  H    0.361705  -0.142318
    20  H   -0.838226   1.013801
    21  H   -0.677120   0.874085
    22  H    0.406987  -0.016154
    23  H    0.300738  -0.012976
    24  H   -0.082208   0.256414
    25  H    0.141254   0.066649
    26  H    0.233301   0.042921
    27  H   -0.072334   0.234026
    28  H    0.089380   0.077420
    29  H   -0.373718   0.502654
    30  H   -0.166542   0.312444
    31  H   -0.363219   0.528945
    32  H    0.106281   0.178132
    33  H    0.161836   0.114714
 Sum of Mulliken charges =  -1.00000   1.00000

 Dipole moment (field-independent basis, Debye):
    X=              0.6284    Y=             -6.5547    Z=             -1.6644  Tot=              6.7918
 Quadrupole moment (field-independent basis, Debye-Ang):
   XX=           -173.9846   YY=           -178.6758   ZZ=           -146.5438
   XY=             -4.0000   XZ=              1.6214   YZ=             -1.0675

 Summary of Natural Population Analysis:

                                       Natural Population
                Natural  -----------------------------------------------
    Atom  No    Charge         Core      Valence    Rydberg      Total
 -----------------------------------------------------------------------
      C    1   -0.17980      0.99962     2.17138    0.00880     3.17980
      N    2   -0.19153      0.99962     2.67999    0.01192     3.69153
      C    3    0.14476      0.99962     1.83916    0.01647     2.85524
      N    4   -0.27786      0.99970     2.76785    0.01031     3.77786
      C    5    0.18473      0.99949     1.79960    0.01618     2.81527
      C    6   -0.14063      0.99935     2.12459    0.01670     3.14063
      S    7    1.11083      4.99913     1.78996    0.10007     6.88917
      O    8   -0.48953      0.99990     3.48385    0.00578     4.48953
      O    9   -0.45465      0.99990     3.44948    0.00526     4.45465
      N   10   -0.43366      0.99974     2.91985    0.01406     3.93366
      C   11   -0.04430      0.99958     2.03076    0.01396     3.04430
      C   12   -0.02054      0.99958     2.00930    0.01167     3.02054
      O   13   -0.37999      0.99990     3.37306    0.00703     4.37999
      C   14   -0.00791      0.99954     1.99440    0.01397     3.00791
      O   15   -0.29993      0.99989     3.28964    0.01041     4.29993
      C   16   -0.09971      0.99961     2.09035    0.00975     3.09971
      N   17   -0.39695      0.99969     2.88824    0.00902     3.89695
      H   18    0.11000      0.00000     0.38847    0.00153     0.39000
      H   19    0.10738      0.00000     0.39029    0.00233     0.39262
      H   20    0.10648      0.00000     0.39001    0.00351     0.39352
      H   21    0.09892      0.00000     0.39897    0.00211     0.40108
      H   22    0.19767      0.00000     0.30023    0.00210     0.30233
      H   23    0.10661      0.00000     0.39133    0.00207     0.39339
      H   24    0.08695      0.00000     0.41188    0.00118     0.41305
      H   25    0.09040      0.00000     0.40829    0.00131     0.40960
      H   26    0.24180      0.00000     0.25487    0.00333     0.25820
      H   27    0.09232      0.00000     0.40638    0.00130     0.40768
      H   28    0.08488      0.00000     0.41352    0.00160     0.41512
      H   29    0.07921      0.00000     0.41907    0.00172     0.42079
      H   30    0.08482      0.00000     0.41347    0.00171     0.41518
      H   31    0.09379      0.00000     0.40461    0.00160     0.40621
      H   32    0.19141      0.00000     0.30665    0.00195     0.30859
      H   33    0.20404      0.00000     0.29417    0.00179     0.29596
 =======================================================================
   * Total *    0.00000     20.99386    48.69367    0.31246    70.00000

 Normal termination of Gaussian 16 at Fri Dec 11 13:59:33 2020.
