 Gaussian 16, Revision A.03,

 -----------------------------------------------------------
 # opt freq B3LYP/6-31G(d) empiricaldispersion=gd3bj scf=xqc
 -----------------------------------------------------------

 --------------------------------
 CID_114614748_JID_10236_neutraal
 --------------------------------
 Symbolic Z-matrix:
 Charge =  0 Multiplicity = 1

 SCF Done:  E(RB3LYP) =  -1653.80161627     A.U. after   15 cycles
 SCF Done:  E(RB3LYP) =  -1653.80945235     A.U. after   13 cycles
 SCF Done:  E(RB3LYP) =  -1653.81068769     A.U. after   13 cycles
 SCF Done:  E(RB3LYP) =  -1653.81106672     A.U. after   13 cycles
 SCF Done:  E(RB3LYP) =  -1653.81145966     A.U. after   13 cycles
 SCF Done:  E(RB3LYP) =  -1653.81176569     A.U. after   13 cycles
 SCF Done:  E(RB3LYP) =  -1653.81189354     A.U. after   11 cycles
 SCF Done:  E(RB3LYP) =  -1653.81196409     A.U. after   11 cycles
 SCF Done:  E(RB3LYP) =  -1653.81201098     A.U. after   11 cycles
 SCF Done:  E(RB3LYP) =  -1653.81205805     A.U. after   11 cycles
 SCF Done:  E(RB3LYP) =  -1653.81234228     A.U. after    7 cycles
 SCF Done:  E(RB3LYP) =  -1653.81234233     A.U. after    8 cycles
 SCF Done:  E(RB3LYP) =  -1653.81234235     A.U. after    8 cycles
 SCF Done:  E(RB3LYP) =  -1653.81234238     A.U. after    8 cycles
 SCF Done:  E(RB3LYP) =  -1653.81234239     A.U. after    8 cycles
 SCF Done:  E(RB3LYP) =  -1653.81234240     A.U. after    7 cycles
 Optimization completed.
    -- Stationary point found.
 Normal termination of Gaussian 16 at Sun Dec 13 21:00:29 2020.

 --------------------------------------------------------------------
 #N Geom=AllCheck Guess=TCheck SCRF=Check GenChk RB3LYP/6-31G(d) Freq
 --------------------------------------------------------------------

 Structure from the checkpoint file:  "JID_10236.chk"
 --------------------------------
 CID_114614748_JID_10236_neutraal
 --------------------------------
 Charge =  0 Multiplicity = 1

 SCF Done:  E(RB3LYP) =  -1653.81234240     A.U. after    1 cycles

  Exact polarizability: 243.243  25.747 179.116   8.076 -17.373 142.434
 Approx polarizability: 298.799  40.487 312.455  15.182 -49.903 254.670

                      1                      2                      3
                      A                      A                      A
 Frequencies --     12.1985                15.5220                27.6586
 Red. masses --      5.0369                 7.6301                 3.3869
 Frc consts  --      0.0004                 0.0011                 0.0015
 IR Inten    --      3.2587                 3.0398                 0.6259

                      4                      5                      6
                      A                      A                      A
 Frequencies --     48.2843                50.2896                67.8262
 Red. masses --      4.7962                 4.0433                 2.7992
 Frc consts  --      0.0066                 0.0060                 0.0076
 IR Inten    --      2.8515                 0.9868                 0.9612

                      7                      8                      9
                      A                      A                      A
 Frequencies --     79.1989               110.6567               123.4170
 Red. masses --      5.3491                 6.0170                 7.4290
 Frc consts  --      0.0198                 0.0434                 0.0667
 IR Inten    --      3.8387                 0.7837                 1.0353

                     10                     11                     12
                      A                      A                      A
 Frequencies --    170.1380               185.3536               218.7656
 Red. masses --      5.1842                 4.3639                 2.3022
 Frc consts  --      0.0884                 0.0883                 0.0649
 IR Inten    --      1.1928                 1.2725                 5.0164

                     13                     14                     15
                      A                      A                      A
 Frequencies --    232.9574               238.3308               248.9098
 Red. masses --      1.9070                 4.1101                 5.1273
 Frc consts  --      0.0610                 0.1376                 0.1872
 IR Inten    --      0.4469                 2.3057                 2.9688

                     16                     17                     18
                      A                      A                      A
 Frequencies --    276.9798               300.5262               323.0824
 Red. masses --      2.8564                 3.5899                 3.8361
 Frc consts  --      0.1291                 0.1910                 0.2359
 IR Inten    --      0.8317                 7.9967                 9.5046

                     19                     20                     21
                      A                      A                      A
 Frequencies --    326.5376               371.4826               390.4623
 Red. masses --      3.1932                 3.9278                 1.5661
 Frc consts  --      0.2006                 0.3194                 0.1407
 IR Inten    --      5.7882                 8.1113               136.1009

                     22                     23                     24
                      A                      A                      A
 Frequencies --    396.8200               406.3047               440.3983
 Red. masses --      2.8042                 2.9313                 5.7607
 Frc consts  --      0.2602                 0.2851                 0.6583
 IR Inten    --     39.0465                26.1136                 4.6983

                     25                     26                     27
                      A                      A                      A
 Frequencies --    481.8194               490.4467               535.6212
 Red. masses --      2.4411                 3.6897                 2.3047
 Frc consts  --      0.3339                 0.5229                 0.3896
 IR Inten    --     51.9645                 7.7137                24.3890

                     28                     29                     30
                      A                      A                      A
 Frequencies --    545.4611               556.1010               589.7677
 Red. masses --      3.1923                 7.2952                 4.2820
 Frc consts  --      0.5596                 1.3292                 0.8775
 IR Inten    --      5.2275                24.6173                55.8308

                     31                     32                     33
                      A                      A                      A
 Frequencies --    608.2446               617.3743               632.1445
 Red. masses --      1.3743                 4.6212                 4.2035
 Frc consts  --      0.2996                 1.0378                 0.9897
 IR Inten    --      6.5944               126.9604                31.9917

                     34                     35                     36
                      A                      A                      A
 Frequencies --    665.8316               669.7264               758.3734
 Red. masses --      6.4140                 3.2737                 3.6536
 Frc consts  --      1.6753                 0.8651                 1.2380
 IR Inten    --      3.7644                 9.8362                 5.6338

                     37                     38                     39
                      A                      A                      A
 Frequencies --    777.5057               789.5669               799.2884
 Red. masses --      6.4310                 4.3988                 3.9425
 Frc consts  --      2.2905                 1.6157                 1.4840
 IR Inten    --     20.0793                 5.4270                12.8276

                     40                     41                     42
                      A                      A                      A
 Frequencies --    849.9750               863.4495               876.5337
 Red. masses --      1.5434                 1.4943                 2.3009
 Frc consts  --      0.6569                 0.6564                 1.0416
 IR Inten    --     15.4685                20.2458               182.2327

                     43                     44                     45
                      A                      A                      A
 Frequencies --    926.4540               938.8913               953.0581
 Red. masses --      2.4815                 2.5671                 2.8405
 Frc consts  --      1.2549                 1.3333                 1.5201
 IR Inten    --     20.7389                16.9939                58.4804

                     46                     47                     48
                      A                      A                      A
 Frequencies --    964.7714               972.8181               986.0504
 Red. masses --      2.7750                 1.3498                 2.0335
 Frc consts  --      1.5218                 0.7526                 1.1649
 IR Inten    --     79.0579                 2.3115                 5.1140

                     49                     50                     51
                      A                      A                      A
 Frequencies --    987.3597               990.0304              1037.0450
 Red. masses --      2.3919                 1.3314                 4.1931
 Frc consts  --      1.3739                 0.7689                 2.6569
 IR Inten    --     16.5821                 0.1215                10.0533

                     52                     53                     54
                      A                      A                      A
 Frequencies --   1045.2177              1054.7298              1102.3467
 Red. masses --      2.4512                 1.5443                 5.1849
 Frc consts  --      1.5778                 1.0122                 3.7122
 IR Inten    --     18.1671                 5.6439               106.7518

                     55                     56                     57
                      A                      A                      A
 Frequencies --   1125.9253              1142.5102              1149.1785
 Red. masses --      4.7913                 2.4982                 2.7874
 Frc consts  --      3.5787                 1.9213                 2.1688
 IR Inten    --     55.0599                36.2436               113.3625

                     58                     59                     60
                      A                      A                      A
 Frequencies --   1154.9360              1171.9560              1179.8590
 Red. masses --      2.2746                 1.4974                 2.1870
 Frc consts  --      1.7876                 1.2118                 1.7938
 IR Inten    --     24.5196                21.7398                 2.8914

                     61                     62                     63
                      A                      A                      A
 Frequencies --   1186.5681              1236.8351              1254.5103
 Red. masses --      1.8867                 1.1794                 1.2157
 Frc consts  --      1.5651                 1.0630                 1.1273
 IR Inten    --      6.5929                 6.1354                 3.1750

                     64                     65                     66
                      A                      A                      A
 Frequencies --   1276.7369              1298.3017              1303.4827
 Red. masses --      1.3147                 3.9124                 1.3142
 Frc consts  --      1.2627                 3.8855                 1.3156
 IR Inten    --      9.2690                68.7178                21.2565

                     67                     68                     69
                      A                      A                      A
 Frequencies --   1311.9598              1321.1275              1331.4629
 Red. masses --      3.0504                 1.4774                 1.7072
 Frc consts  --      3.0935                 1.5193                 1.7832
 IR Inten    --     33.3412                14.2871                19.5839

                     70                     71                     72
                      A                      A                      A
 Frequencies --   1351.3565              1357.6322              1361.7721
 Red. masses --      1.6879                 1.4389                 3.3840
 Frc consts  --      1.8161                 1.5625                 3.6974
 IR Inten    --     20.1157                15.6886                81.4214

                     73                     74                     75
                      A                      A                      A
 Frequencies --   1369.8022              1391.7261              1397.5244
 Red. masses --      1.2695                 3.8687                 1.3015
 Frc consts  --      1.4035                 4.4149                 1.4976
 IR Inten    --      0.7169               107.0762                 5.5032

                     76                     77                     78
                      A                      A                      A
 Frequencies --   1412.8037              1422.9305              1449.9543
 Red. masses --      3.0663                 1.3813                 1.2527
 Frc consts  --      3.6060                 1.6478                 1.5517
 IR Inten    --     54.3709                14.0649                10.3215

                     79                     80                     81
                      A                      A                      A
 Frequencies --   1459.1182              1512.4659              1512.7117
 Red. masses --      1.2549                 1.1877                 1.9417
 Frc consts  --      1.5741                 1.6007                 2.6178
 IR Inten    --     52.5562                 0.3736                15.7489

                     82                     83                     84
                      A                      A                      A
 Frequencies --   1525.4017              1532.3090              1541.1514
 Red. masses --      1.0763                 1.0759                 1.0693
 Frc consts  --      1.4756                 1.4884                 1.4963
 IR Inten    --      4.4801                 3.5447                 3.4360

                     85                     86                     87
                      A                      A                      A
 Frequencies --   1554.0735              1608.4027              1634.1884
 Red. masses --      1.1032                 6.1586                 5.9146
 Frc consts  --      1.5698                 9.3869                 9.3063
 IR Inten    --      0.8067                27.0038                48.4204

                     88                     89                     90
                      A                      A                      A
 Frequencies --   1659.8260              2997.2965              3005.4752
 Red. masses --      1.2480                 1.0715                 1.0731
 Frc consts  --      2.0258                 5.6715                 5.7109
 IR Inten    --    174.5158                45.4772               112.5273

                     91                     92                     93
                      A                      A                      A
 Frequencies --   3060.9823              3066.3152              3071.8839
 Red. masses --      1.0703                 1.0603                 1.0576
 Frc consts  --      5.9083                 5.8738                 5.8799
 IR Inten    --      4.5960                14.4415                27.3178

                     94                     95                     96
                      A                      A                      A
 Frequencies --   3108.6800              3111.6119              3122.2756
 Red. masses --      1.0930                 1.0941                 1.0963
 Frc consts  --      6.2233                 6.2414                 6.2968
 IR Inten    --     42.5083                 5.4614                22.1732

                     97                     98                     99
                      A                      A                      A
 Frequencies --   3129.7125              3132.3309              3163.9556
 Red. masses --      1.0918                 1.0979                 1.1025
 Frc consts  --      6.3007                 6.3468                 6.5028
 IR Inten    --     30.4382                20.5710                10.6456

                    100                    101                    102
                      A                      A                      A
 Frequencies --   3214.2425              3215.8577              3230.6216
 Red. masses --      1.0907                 1.0896                 1.0954
 Frc consts  --      6.6391                 6.6389                 6.7357
 IR Inten    --      3.0471                 0.4299                 1.2204

                    103                    104                    105
                      A                      A                      A
 Frequencies --   3531.6323              3558.5068              3683.2779
 Red. masses --      1.0747                 1.0452                 1.1044
 Frc consts  --      7.8977                 7.7980                 8.8278
 IR Inten    --     30.1344                55.0820                36.6871

 - Thermochemistry -
 -------------------
 Temperature   298.150 Kelvin.  Pressure   1.00000 Atm.
 Atom     1 has atomic number  6 and mass  12.00000

 Molecular mass:   315.07114 amu.
 Principal axes and moments of inertia in atomic units:
                           1         2         3
     Eigenvalues --  3286.89026********************
           X            0.99991  -0.01319   0.00101
           Y            0.01320   0.99989  -0.00739
           Z           -0.00091   0.00741   0.99997
 This molecule is an asymmetric top.
 Rotational symmetry number  1.
 Warning -- assumption of classical behavior for rotation
           may cause significant error
 Rotational temperatures (Kelvin)      0.02635     0.00623     0.00551
 Rotational constants (GHZ):           0.54907     0.12972     0.11478
 Zero-point vibrational energy     777771.6 (Joules/Mol)
                                  185.89188 (Kcal/Mol)
 Warning -- explicit consideration of  32 degrees of freedom as
           vibrations may cause significant error
 Vibrational temperatures:     17.55    22.33    39.79    69.47    72.36
          (Kelvin)             97.59   113.95   159.21   177.57   244.79
                              266.68   314.75   335.17   342.90   358.13
                              398.51   432.39   464.84   469.81   534.48
                              561.79   570.94   584.58   633.63   693.23
                              705.64   770.64   784.80   800.11   848.54
                              875.13   888.26   909.51   957.98   963.59
                             1091.13  1118.66  1136.01  1150.00  1222.92
                             1242.31  1261.14  1332.96  1350.86  1371.24
                             1388.09  1399.67  1418.71  1420.59  1424.43
                             1492.08  1503.84  1517.52  1586.03  1619.96
                             1643.82  1653.41  1661.70  1686.18  1697.55
                             1707.21  1779.53  1804.96  1836.94  1867.97
                             1875.42  1887.62  1900.81  1915.68  1944.30
                             1953.33  1959.29  1970.84  2002.38  2010.73
                             2032.71  2047.28  2086.16  2099.35  2176.10
                             2176.45  2194.71  2204.65  2217.37  2235.97
                             2314.13  2351.23  2388.12  4312.44  4324.21
                             4404.07  4411.74  4419.76  4472.70  4476.92
                             4492.26  4502.96  4506.73  4552.23  4624.58
                             4626.90  4648.14  5081.23  5119.90  5299.42

 Zero-point correction=                           0.296238 (Hartree/Particle)
 Thermal correction to Energy=                    0.316086
 Thermal correction to Enthalpy=                  0.317030
 Thermal correction to Gibbs Free Energy=         0.243759
 Sum of electronic and zero-point Energies=          -1653.516105
 Sum of electronic and thermal Energies=             -1653.496256
 Sum of electronic and thermal Enthalpies=           -1653.495312
 Sum of electronic and thermal Free Energies=        -1653.568583

                     E (Thermal)             CV                S
                      KCal/Mol        Cal/Mol-Kelvin    Cal/Mol-Kelvin
 Total                  198.347             73.843            154.211
 Electronic               0.000              0.000              0.000
 Translational            0.889              2.981             43.139
 Rotational               0.889              2.981             34.929
 Vibrational            196.569             67.882             76.143
 Vibration     1          0.593              1.987              7.616
 Vibration     2          0.593              1.986              7.138
 Vibration     3          0.593              1.984              5.991
 Vibration     4          0.595              1.978              4.886
 Vibration     5          0.595              1.977              4.806
 Vibration     6          0.598              1.970              4.215
 Vibration     7          0.600              1.963              3.911
 Vibration     8          0.606              1.941              3.257
 Vibration     9          0.610              1.929              3.046
 Vibration    10          0.625              1.879              2.434
 Vibration    11          0.631              1.860              2.274
 Vibration    12          0.647              1.812              1.969
 Vibration    13          0.654              1.791              1.856
 Vibration    14          0.656              1.782              1.815
 Vibration    15          0.662              1.765              1.738
 Vibration    16          0.678              1.716              1.552
 Vibration    17          0.693              1.673              1.414
 Vibration    18          0.708              1.629              1.294
 Vibration    19          0.710              1.622              1.277
 Vibration    20          0.743              1.531              1.074
 Vibration    21          0.758              1.491              0.998
 Vibration    22          0.763              1.477              0.974
 Vibration    23          0.771              1.457              0.940
 Vibration    24          0.800              1.382              0.825
 Vibration    25          0.838              1.290              0.705
 Vibration    26          0.846              1.271              0.682
 Vibration    27          0.891              1.171              0.575
 Vibration    28          0.901              1.150              0.554
 Vibration    29          0.912              1.126              0.532
 Vibration    30          0.947              1.054              0.468
 Vibration    31          0.967              1.014              0.436
 Vibration    32          0.977              0.995              0.421

                           ! Non-Optimized Parameters !
 Normal termination of Gaussian 16 at Sun Dec 13 21:17:41 2020.

 ----------------------------------------------------------------------
 # B3LYP/6-311++G(d,p) empiricaldispersion=gd3bj scf=xqc pop=npa geom=c
 heck
 ----------------------------------------------------------------------

 ----------------------------------------
 CID_114614748_JID_10236_Energie_neutraal
 ----------------------------------------
 Structure from the checkpoint file:  "JID_10236.chk"
 Charge =  0 Multiplicity = 1

 SCF Done:  E(RB3LYP) =  -1654.11027264     A.U. after   17 cycles
 Normal termination of Gaussian 16 at Sun Dec 13 21:25:33 2020.

 ----------------------------------------------------------------------
 # B3LYP/6-311++G(d,p) empiricaldispersion=gd3bj scf=xqc pop=npa geom=c
 heck
 ----------------------------------------------------------------------

 --------------------------------------
 CID_114614748_JID_10236_Energie_kation
 --------------------------------------
 Structure from the checkpoint file:  "JID_10236.chk"
 Charge =  1 Multiplicity = 2

 SCF Done:  E(UB3LYP) =  -1653.81399388     A.U. after   30 cycles
 Normal termination of Gaussian 16 at Sun Dec 13 21:45:04 2020.
 Gaussian 16:  ES64L-G16RevA.03 25-Dec-2016

 ----------------------------------------------------------------------
 # B3LYP/6-311++G(d,p) empiricaldispersion=gd3bj scf=xqc pop=npa geom=c
 heck
 ----------------------------------------------------------------------

 -------------------------------------
 CID_114614748_JID_10236_Energie_anion
 -------------------------------------
 Structure from the checkpoint file:  "JID_10236.chk"
 Charge = -1 Multiplicity = 2

                         Standard orientation:
 ---------------------------------------------------------------------
 Center     Atomic      Atomic             Coordinates (Angstroms)
 Number     Number       Type             X           Y           Z
 ---------------------------------------------------------------------
      1          6           0        2.194950   -1.360858   -1.593782
      2          6           0        2.072610   -0.484582   -0.345414
      3          6           0        3.361448   -0.372433    0.498521
      4          6           0        4.586619    0.162669   -0.291638
      5          6           0        5.538699   -1.055586   -0.381075
      6          8           0        4.766611   -2.197180   -0.023094
      7          6           0        3.860436   -1.748911    0.976686
      8          7           0        1.557346    0.834653   -0.773789
      9         16           0        0.709175    1.790255    0.310388
     10          8           0        1.127526    1.565161    1.699232
     11          8           0        0.716352    3.132712   -0.277561
     12          6           0       -0.932123    1.097989    0.159793
     13          6           0       -1.458015    0.295376    1.174806
     14          7           0       -2.665930   -0.265698    1.097419
     15          6           0       -3.403247   -0.018319    0.006544
     16          6           0       -2.963779    0.799933   -1.048132
     17          6           0       -1.694882    1.360937   -0.975685
     18          6           0       -4.744264   -0.683344   -0.078026
     19         16           0       -4.949688   -2.297714    0.216490
     20          7           0       -5.738305    0.138013   -0.490228
     21          1           0        2.880609   -0.916307   -2.323733
     22          1           0        1.216966   -1.465414   -2.071373
     23          1           0        2.585842   -2.348617   -1.340660
     24          1           0        1.293685   -0.911278    0.297824
     25          1           0        3.130818    0.269867    1.350593
     26          1           0        5.060054    1.002268    0.223998
     27          1           0        4.307945    0.516566   -1.290053
     28          1           0        5.941138   -1.229791   -1.382350
     29          1           0        6.381839   -0.936016    0.317248
     30          1           0        4.372453   -1.653308    1.947802
     31          1           0        3.070919   -2.499828    1.076218
     32          1           0        2.225479    1.418444   -1.273539
     33          1           0       -0.880853    0.109309    2.075809
     34          1           0       -3.594523    0.959755   -1.916098
     35          1           0       -1.301530    1.986781   -1.769712
     36          1           0       -5.632701    1.143431   -0.449361
     37          1           0       -6.676341   -0.238049   -0.540673
 ---------------------------------------------------------------------

 SCF Done:  E(UB3LYP) =  -1654.14801054     A.U. after   29 cycles

 The electronic state is 2-A.
 Alpha  occ. eigenvalues --  -88.95098 -88.64920 -19.05793 -19.00799 -19.00747
 Alpha  occ. eigenvalues --  -14.24181 -14.21426 -14.16707 -10.15338 -10.14583
 Alpha  occ. eigenvalues --  -10.13473 -10.10712 -10.10368 -10.10189 -10.08370
 Alpha  occ. eigenvalues --  -10.08284 -10.06823 -10.06439 -10.06094 -10.05576
 Alpha  occ. eigenvalues --   -8.01227  -7.73709  -5.97544  -5.97502  -5.97264
 Alpha  occ. eigenvalues --   -5.70051  -5.69656  -5.69247  -1.01050  -0.97785
 Alpha  occ. eigenvalues --   -0.90148  -0.83507  -0.82387  -0.80251  -0.72672
 Alpha  occ. eigenvalues --   -0.68986  -0.68162  -0.65585  -0.65066  -0.60531
 Alpha  occ. eigenvalues --   -0.56888  -0.55344  -0.53636  -0.51577  -0.50132
 Alpha  occ. eigenvalues --   -0.49067  -0.45424  -0.44280  -0.43118  -0.42415
 Alpha  occ. eigenvalues --   -0.41943  -0.40278  -0.39425  -0.37974  -0.37468
 Alpha  occ. eigenvalues --   -0.36455  -0.35477  -0.34160  -0.33315  -0.32270
 Alpha  occ. eigenvalues --   -0.32106  -0.31168  -0.30580  -0.29269  -0.28578
 Alpha  occ. eigenvalues --   -0.28212  -0.26956  -0.26767  -0.26128  -0.25435
 Alpha  occ. eigenvalues --   -0.24208  -0.23947  -0.22320  -0.21954  -0.21184
 Alpha  occ. eigenvalues --   -0.20013  -0.19499  -0.18284  -0.16346  -0.14630
 Alpha  occ. eigenvalues --   -0.12564  -0.10018  -0.07140   0.01918
 Alpha virt. eigenvalues --    0.05140   0.06811   0.07827   0.07900   0.08137
 Alpha virt. eigenvalues --    0.09198   0.09731   0.10034   0.10296   0.10476
 Alpha virt. eigenvalues --    0.10819   0.11060   0.11671   0.12197   0.13118

  Beta  occ. eigenvalues --  -88.95093 -88.64855 -19.05793 -19.00770 -19.00716
  Beta  occ. eigenvalues --  -14.24155 -14.21320 -14.16481 -10.15337 -10.14583
  Beta  occ. eigenvalues --  -10.13472 -10.10711 -10.10189 -10.10067 -10.08411
  Beta  occ. eigenvalues --  -10.08284 -10.06489 -10.06150 -10.05914 -10.05619
  Beta  occ. eigenvalues --   -8.01221  -7.73651  -5.97526  -5.97489  -5.97268
  Beta  occ. eigenvalues --   -5.70019  -5.69460  -5.69204  -1.00962  -0.97785
  Beta  occ. eigenvalues --   -0.90081  -0.83453  -0.81902  -0.79872  -0.72643
  Beta  occ. eigenvalues --   -0.68578  -0.68032  -0.65490  -0.64661  -0.60055
  Beta  occ. eigenvalues --   -0.56816  -0.55133  -0.53595  -0.51291  -0.50047
  Beta  occ. eigenvalues --   -0.48832  -0.45053  -0.44270  -0.42986  -0.42351
  Beta  occ. eigenvalues --   -0.41790  -0.40212  -0.39383  -0.37947  -0.37243
  Beta  occ. eigenvalues --   -0.36412  -0.35209  -0.34029  -0.33284  -0.32164
  Beta  occ. eigenvalues --   -0.32036  -0.31164  -0.30573  -0.28939  -0.28510
  Beta  occ. eigenvalues --   -0.27391  -0.26801  -0.26368  -0.26117  -0.25406
  Beta  occ. eigenvalues --   -0.24113  -0.22888  -0.21974  -0.21740  -0.21060
  Beta  occ. eigenvalues --   -0.19925  -0.19406  -0.17800  -0.15292  -0.13333
  Beta  occ. eigenvalues --   -0.12246  -0.08975  -0.06877
  Beta virt. eigenvalues --    0.05133   0.06796   0.07600   0.07878   0.07902
  Beta virt. eigenvalues --    0.08154   0.09559   0.09766   0.10042   0.10353
  Beta virt. eigenvalues --    0.10607   0.11045   0.11493   0.11895   0.12613

 Mulliken charges and spin densities:
               1          2
     1  C   -0.531926  -0.001214
     2  C   -0.867045  -0.001050
     3  C    0.468081  -0.006071
     4  C   -0.249112   0.000558
     5  C   -0.379027  -0.000106
     6  O   -0.079238   0.000032
     7  C   -0.609686   0.002271
     8  N    0.072631   0.003548
     9  S    0.376407   0.001074
    10  O   -0.136776   0.005240
    11  O   -0.169525  -0.008490
    12  C   -0.350759   0.201232
    13  C   -0.418436   0.003545
    14  N    0.115439   0.100640
    15  C    0.053467   0.132709
    16  C   -0.627445   0.114912
    17  C    0.380663   0.085233
    18  C   -0.234296   0.129388
    19  S   -0.760973   0.147890
    20  N   -0.300892   0.058203
    21  H    0.139645  -0.000003
    22  H    0.167986   0.001578
    23  H    0.187652   0.000110
    24  H    0.230727  -0.002862
    25  H    0.289223   0.001465
    26  H    0.177245  -0.000191
    27  H    0.113780   0.002468
    28  H    0.164852  -0.000025
    29  H    0.126115   0.000732
    30  H    0.139316  -0.000250
    31  H    0.199173   0.001047
    32  H    0.274533   0.009539
    33  H    0.188715   0.002421
    34  H    0.137621   0.035185
    35  H    0.221642  -0.018505
    36  H    0.229671  -0.005924
    37  H    0.260552   0.003671
 Sum of Mulliken charges =  -1.00000   1.00000

 Dipole moment (field-independent basis, Debye):
    X=             11.5456    Y=              2.7815    Z=             -3.2062  Tot=             12.3011
 Quadrupole moment (field-independent basis, Debye-Ang):
   XX=           -195.4856   YY=           -176.6053   ZZ=           -146.3322
   XY=            -28.7692   XZ=              5.6010   YZ=             -3.2344

 Summary of Natural Population Analysis:

                                       Natural Population
                Natural  -----------------------------------------------
    Atom  No    Charge         Core      Valence    Rydberg      Total
 -----------------------------------------------------------------------
      C    1   -0.29083      0.99964     2.28527    0.00592     3.29083
      C    2   -0.01364      0.99958     2.00181    0.01224     3.01364
      C    3   -0.13396      0.99957     2.12519    0.00920     3.13396
      C    4   -0.20817      0.99963     2.20168    0.00685     3.20817
      C    5   -0.01234      0.99962     2.00223    0.01049     3.01234
      O    6   -0.30222      0.99990     3.29157    0.01075     4.30222
      C    7   -0.01261      0.99959     2.00185    0.01118     3.01261
      N    8   -0.44051      0.99974     2.92545    0.01532     3.94051
      S    9    1.11271      4.99919     1.78763    0.10047     6.88729
      O   10   -0.47200      0.99990     3.46668    0.00541     4.47200
      O   11   -0.46954      0.99991     3.46433    0.00530     4.46954
      C   12   -0.11895      0.99935     2.10541    0.01419     3.11895
      C   13    0.02308      0.99952     1.96359    0.01380     2.97692
      N   14   -0.19154      0.99968     2.68060    0.01126     3.69154
      C   15    0.13393      0.99947     1.84991    0.01670     2.86607
      C   16   -0.12803      0.99952     2.12090    0.00761     3.12803
      C   17   -0.04725      0.99952     2.03808    0.00964     3.04725
      C   18    0.09336      0.99962     1.88775    0.01926     2.90664
      S   19   -0.08751      4.99951     3.07255    0.01545     8.08751
      N   20   -0.37732      0.99968     2.86694    0.01071     3.87732
      H   21    0.09267      0.00000     0.40643    0.00090     0.40733
      H   22    0.10947      0.00000     0.38967    0.00085     0.39053
      H   23    0.10564      0.00000     0.39343    0.00093     0.39436
      H   24    0.10785      0.00000     0.39042    0.00173     0.39215
      H   25    0.12251      0.00000     0.37629    0.00120     0.37749
      H   26    0.10320      0.00000     0.39585    0.00095     0.39680
      H   27    0.09714      0.00000     0.40175    0.00111     0.40286
      H   28    0.08879      0.00000     0.41017    0.00104     0.41121
      H   29    0.07553      0.00000     0.42303    0.00144     0.42447
      H   30    0.07963      0.00000     0.41906    0.00131     0.42037
      H   31    0.09504      0.00000     0.40398    0.00098     0.40496
      H   32    0.19172      0.00000     0.30646    0.00182     0.30828
      H   33    0.09553      0.00000     0.40312    0.00135     0.40447
      H   34    0.10027      0.00000     0.39828    0.00145     0.39973
      H   35    0.10269      0.00000     0.39625    0.00107     0.39731
      H   36    0.18771      0.00000     0.31091    0.00138     0.31229
      H   37    0.18794      0.00000     0.30815    0.00390     0.31206
 =======================================================================
   * Total *    0.00000     27.99214    54.67268    0.33517    83.00000

 Normal termination of Gaussian 16 at Sun Dec 13 22:03:26 2020.
