 Gaussian 16, Revision A.03,

 -----------------------------------------------------------
 # opt freq B3LYP/6-31G(d) empiricaldispersion=gd3bj scf=xqc
 -----------------------------------------------------------

 -------------------------------
 CID_144867040_JID_3403_neutraal
 -------------------------------
 Symbolic Z-matrix:
 Charge =  0 Multiplicity = 1

 SCF Done:  E(RB3LYP) =  -581.700083287     A.U. after   14 cycles
 SCF Done:  E(RB3LYP) =  -581.702140920     A.U. after   13 cycles
 SCF Done:  E(RB3LYP) =  -581.700826928     A.U. after   13 cycles
 SCF Done:  E(RB3LYP) =  -581.703513858     A.U. after   12 cycles
 SCF Done:  E(RB3LYP) =  -581.703424176     A.U. after   12 cycles
 SCF Done:  E(RB3LYP) =  -581.703653030     A.U. after   11 cycles
 SCF Done:  E(RB3LYP) =  -581.703689961     A.U. after   12 cycles
 SCF Done:  E(RB3LYP) =  -581.703724851     A.U. after   12 cycles
 SCF Done:  E(RB3LYP) =  -581.703755270     A.U. after   12 cycles
 SCF Done:  E(RB3LYP) =  -581.703776042     A.U. after   12 cycles
 SCF Done:  E(RB3LYP) =  -581.707744861     A.U. after   11 cycles
 SCF Done:  E(RB3LYP) =  -581.707745430     A.U. after   10 cycles
 SCF Done:  E(RB3LYP) =  -581.707745943     A.U. after    9 cycles
 SCF Done:  E(RB3LYP) =  -581.707746044     A.U. after    8 cycles
 SCF Done:  E(RB3LYP) =  -581.707746038     A.U. after    7 cycles
 Optimization completed.
    -- Stationary point found.
 Normal termination of Gaussian 16 at Wed Dec  9 23:35:26 2020.

 --------------------------------------------------------------------
 #N Geom=AllCheck Guess=TCheck SCRF=Check GenChk RB3LYP/6-31G(d) Freq
 --------------------------------------------------------------------

 Structure from the checkpoint file:  "JID_3403.chk"
 -------------------------------
 CID_144867040_JID_3403_neutraal
 -------------------------------
 Charge =  0 Multiplicity = 1

 SCF Done:  E(RB3LYP) =  -581.707746038     A.U. after    1 cycles

  Exact polarizability: 135.230  -0.932 119.466   0.482  -3.352  97.965
 Approx polarizability: 171.246  -6.179 164.049   4.054  -5.680 150.306

                      1                      2                      3
                      A                      A                      A
 Frequencies --     23.3635                38.1426                60.4849
 Red. masses --      3.6539                 3.2999                 4.6123
 Frc consts  --      0.0012                 0.0028                 0.0099
 IR Inten    --      1.4681                 0.3054                 3.1795

                      4                      5                      6
                      A                      A                      A
 Frequencies --     76.3657               104.8132               125.2108
 Red. masses --      3.3337                 2.5402                 2.5122
 Frc consts  --      0.0115                 0.0164                 0.0232
 IR Inten    --      1.6945                 2.4091                 1.1270

                      7                      8                      9
                      A                      A                      A
 Frequencies --    147.5001               172.2790               184.2909
 Red. masses --      3.3604                 2.1382                 2.6541
 Frc consts  --      0.0431                 0.0374                 0.0531
 IR Inten    --      4.3484                 3.6269                 0.9780

                     10                     11                     12
                      A                      A                      A
 Frequencies --    207.9234               268.6047               299.4213
 Red. masses --      1.9979                 1.7182                 2.3073
 Frc consts  --      0.0509                 0.0730                 0.1219
 IR Inten    --      2.0165                 1.2133                 0.9837

                     13                     14                     15
                      A                      A                      A
 Frequencies --    319.8642               369.7521               374.3585
 Red. masses --      2.3385                 2.2602                 1.9498
 Frc consts  --      0.1410                 0.1821                 0.1610
 IR Inten    --      0.6958                 0.0254                 1.4363

                     16                     17                     18
                      A                      A                      A
 Frequencies --    403.8076               483.6498               551.4363
 Red. masses --      2.4335                 2.1563                 2.3810
 Frc consts  --      0.2338                 0.2972                 0.4266
 IR Inten    --      4.3890                 0.6612                 2.3480

                     19                     20                     21
                      A                      A                      A
 Frequencies --    609.0784               628.8662               728.3024
 Red. masses --      2.5011                 2.6303                 1.9906
 Frc consts  --      0.5467                 0.6129                 0.6221
 IR Inten    --      3.5880                 3.2421                 8.5420

                     22                     23                     24
                      A                      A                      A
 Frequencies --    742.6803               748.1688               774.1143
 Red. masses --      1.7956                 1.6859                 2.1929
 Frc consts  --      0.5835                 0.5560                 0.7742
 IR Inten    --      1.7063                18.5573                 3.1885

                     25                     26                     27
                      A                      A                      A
 Frequencies --    819.8072               841.2502               867.7849
 Red. masses --      1.9574                 1.8665                 2.2622
 Frc consts  --      0.7751                 0.7783                 1.0037
 IR Inten    --      4.8427                 0.2328                 6.0948

                     28                     29                     30
                      A                      A                      A
 Frequencies --    889.3990               903.2232               936.8637
 Red. masses --      2.0579                 2.2316                 2.0243
 Frc consts  --      0.9591                 1.0727                 1.0468
 IR Inten    --      1.3131                22.7526                 6.4982

                     31                     32                     33
                      A                      A                      A
 Frequencies --    942.2292               958.8770               989.3747
 Red. masses --      1.8454                 1.8727                 1.6714
 Frc consts  --      0.9653                 1.0145                 0.9639
 IR Inten    --     15.2424                 2.5036                 2.8484

                     34                     35                     36
                      A                      A                      A
 Frequencies --   1009.9532              1024.6412              1036.9053
 Red. masses --      1.9864                 1.7078                 1.8205
 Frc consts  --      1.1938                 1.0564                 1.1532
 IR Inten    --      2.1146                 3.7876                13.7024

                     37                     38                     39
                      A                      A                      A
 Frequencies --   1077.7394              1086.6064              1099.3104
 Red. masses --      2.2860                 1.4363                 2.4029
 Frc consts  --      1.5644                 0.9992                 1.7109
 IR Inten    --     10.4327                11.4033                82.8993

                     40                     41                     42
                      A                      A                      A
 Frequencies --   1117.5967              1152.9124              1155.7539
 Red. masses --      2.3135                 2.1214                 2.2668
 Frc consts  --      1.7025                 1.6614                 1.7840
 IR Inten    --      4.6749                32.5416                 3.7663

                     43                     44                     45
                      A                      A                      A
 Frequencies --   1166.8080              1196.1322              1230.5563
 Red. masses --      2.0506                 1.5116                 1.4453
 Frc consts  --      1.6449                 1.2742                 1.2895
 IR Inten    --      3.9538                 6.4090                 6.4971

                     46                     47                     48
                      A                      A                      A
 Frequencies --   1237.5768              1261.1315              1266.5541
 Red. masses --      1.3408                 1.3087                 1.3247
 Frc consts  --      1.2099                 1.2264                 1.2521
 IR Inten    --      4.4525                 2.6376                 0.5771

                     49                     50                     51
                      A                      A                      A
 Frequencies --   1311.8737              1321.2572              1325.7223
 Red. masses --      1.1818                 1.2840                 1.4057
 Frc consts  --      1.1984                 1.3206                 1.4556
 IR Inten    --      0.8783                 1.7008                 4.4300

                     52                     53                     54
                      A                      A                      A
 Frequencies --   1343.0643              1347.0345              1371.0768
 Red. masses --      1.3118                 1.1461                 1.4495
 Frc consts  --      1.3942                 1.2252                 1.6055
 IR Inten    --      1.6867                 2.5444                26.2228

                     55                     56                     57
                      A                      A                      A
 Frequencies --   1385.3683              1394.5446              1398.3929
 Red. masses --      1.3916                 1.5244                 1.2996
 Frc consts  --      1.5736                 1.7466                 1.4974
 IR Inten    --      5.4657                 4.0517                19.6599

                     58                     59                     60
                      A                      A                      A
 Frequencies --   1412.2949              1424.4540              1428.3312
 Red. masses --      1.4341                 1.4102                 1.4308
 Frc consts  --      1.6853                 1.6859                 1.7199
 IR Inten    --     14.7218                 4.4509                23.4074

                     61                     62                     63
                      A                      A                      A
 Frequencies --   1438.3045              1443.0037              1444.1992
 Red. masses --      1.2646                 1.3491                 1.3431
 Frc consts  --      1.5414                 1.6552                 1.6505
 IR Inten    --      8.8337                 2.9968                 2.1242

                     64                     65                     66
                      A                      A                      A
 Frequencies --   1476.4493              1504.7855              1511.6666
 Red. masses --      1.1389                 1.0811                 1.0813
 Frc consts  --      1.4627                 1.4423                 1.4558
 IR Inten    --     16.4643                 2.7290                 1.4438

                     67                     68                     69
                      A                      A                      A
 Frequencies --   1517.9196              1526.9638              1529.5123
 Red. masses --      1.0862                 1.0800                 1.0463
 Frc consts  --      1.4746                 1.4837                 1.4422
 IR Inten    --      0.9260                 8.9788                 4.5890

                     70                     71                     72
                      A                      A                      A
 Frequencies --   1535.4585              1538.1191              1545.4036
 Red. masses --      1.1046                 1.0593                 1.0851
 Frc consts  --      1.5344                 1.4766                 1.5269
 IR Inten    --      4.8357                 3.7203                 3.1743

                     73                     74                     75
                      A                      A                      A
 Frequencies --   1826.0730              2903.0093              2955.8217
 Red. masses --      9.5947                 1.0839                 1.0832
 Frc consts  --     18.8504                 5.3821                 5.5761
 IR Inten    --    132.4787               167.4641                67.3850

                     76                     77                     78
                      A                      A                      A
 Frequencies --   3022.3958              3028.0532              3035.6354
 Red. masses --      1.0692                 1.0660                 1.0642
 Frc consts  --      5.7544                 5.7590                 5.7781
 IR Inten    --     19.8821                 9.9335                26.2863

                     79                     80                     81
                      A                      A                      A
 Frequencies --   3038.8508              3040.8433              3041.9445
 Red. masses --      1.0610                 1.0821                 1.0453
 Frc consts  --      5.7728                 5.8953                 5.6987
 IR Inten    --     56.0654                38.7903                27.8379

                     82                     83                     84
                      A                      A                      A
 Frequencies --   3047.7053              3062.7158              3062.9800
 Red. masses --      1.0647                 1.0975                 1.0982
 Frc consts  --      5.8265                 6.0658                 6.0702
 IR Inten    --     19.8343                20.7247                22.9071

                     85                     86                     87
                      A                      A                      A
 Frequencies --   3077.2600              3083.1995              3087.4446
 Red. masses --      1.0607                 1.0973                 1.0640
 Frc consts  --      5.9181                 6.1459                 5.9760
 IR Inten    --     26.0295                37.5075                17.3473

                     88                     89                     90
                      A                      A                      A
 Frequencies --   3089.9081              3096.0796              3111.0145
 Red. masses --      1.0939                 1.0944                 1.0992
 Frc consts  --      6.1532                 6.1808                 6.2681
 IR Inten    --     17.0486                75.8657                45.9530

                     91                     92                     93
                      A                      A                      A
 Frequencies --   3113.0835              3118.1424              3133.8637
 Red. masses --      1.1013                 1.1037                 1.1063
 Frc consts  --      6.2885                 6.3223                 6.4018
 IR Inten    --     60.1185                11.8323                42.4898

 - Thermochemistry -
 -------------------
 Temperature   298.150 Kelvin.  Pressure   1.00000 Atm.
 Atom     1 has atomic number  6 and mass  12.00000

 Molecular mass:   184.14633 amu.
 Principal axes and moments of inertia in atomic units:
                           1         2         3
     Eigenvalues --  1398.719194199.080875035.31706
           X            0.99985  -0.01698  -0.00300
           Y            0.01698   0.99986   0.00113
           Z            0.00298  -0.00118   0.99999
 This molecule is an asymmetric top.
 Rotational symmetry number  1.
 Warning -- assumption of classical behavior for rotation
           may cause significant error
 Rotational temperatures (Kelvin)      0.06192     0.02063     0.01720
 Rotational constants (GHZ):           1.29028     0.42979     0.35842
 Zero-point vibrational energy     784527.1 (Joules/Mol)
                                  187.50648 (Kcal/Mol)
 Warning -- explicit consideration of  19 degrees of freedom as
           vibrations may cause significant error
 Vibrational temperatures:     33.61    54.88    87.02   109.87   150.80
          (Kelvin)            180.15   212.22   247.87   265.15   299.16
                              386.46   430.80   460.21   531.99   538.62
                              580.99   695.86   793.39   876.33   904.80
                             1047.86  1068.55  1076.45  1113.78  1179.52
                             1210.37  1248.55  1279.65  1299.54  1347.94
                             1355.66  1379.61  1423.49  1453.10  1474.23
                             1491.88  1550.63  1563.38  1581.66  1607.97
                             1658.78  1662.87  1678.78  1720.97  1770.50
                             1780.60  1814.49  1822.29  1887.49  1900.99
                             1907.42  1932.37  1938.08  1972.67  1993.24
                             2006.44  2011.98  2031.98  2049.47  2055.05
                             2069.40  2076.16  2077.88  2124.28  2165.05
                             2174.95  2183.95  2196.96  2200.63  2209.18
                             2213.01  2223.49  2627.31  4176.78  4252.77
                             4348.55  4356.69  4367.60  4372.23  4375.10
                             4376.68  4384.97  4406.56  4406.95  4427.49
                             4436.04  4442.14  4445.69  4454.57  4476.06
                             4479.03  4486.31  4508.93

 Zero-point correction=                           0.298811 (Hartree/Particle)
 Thermal correction to Energy=                    0.313134
 Thermal correction to Enthalpy=                  0.314078
 Thermal correction to Gibbs Free Energy=         0.255995
 Sum of electronic and zero-point Energies=           -581.408935
 Sum of electronic and thermal Energies=              -581.394612
 Sum of electronic and thermal Enthalpies=            -581.393668
 Sum of electronic and thermal Free Energies=         -581.451752

                     E (Thermal)             CV                S
                      KCal/Mol        Cal/Mol-Kelvin    Cal/Mol-Kelvin
 Total                  196.494             52.750            122.247
 Electronic               0.000              0.000              0.000
 Translational            0.889              2.981             41.538
 Rotational               0.889              2.981             31.759
 Vibrational            194.717             46.788             48.950
 Vibration     1          0.593              1.985              6.326
 Vibration     2          0.594              1.982              5.353
 Vibration     3          0.597              1.973              4.441
 Vibration     4          0.599              1.965              3.982
 Vibration     5          0.605              1.945              3.363
 Vibration     6          0.610              1.928              3.018
 Vibration     7          0.617              1.905              2.704
 Vibration     8          0.626              1.877              2.410
 Vibration     9          0.631              1.861              2.284
 Vibration    10          0.641              1.829              2.062
 Vibration    11          0.673              1.731              1.605
 Vibration    12          0.692              1.675              1.420
 Vibration    13          0.706              1.636              1.311
 Vibration    14          0.742              1.534              1.081
 Vibration    15          0.745              1.525              1.062
 Vibration    16          0.769              1.462              0.949
 Vibration    17          0.840              1.286              0.700
 Vibration    18          0.907              1.137              0.541
 Vibration    19          0.968              1.013              0.434

 Optimization completed.
    -- Stationary point found.
 Normal termination of Gaussian 16 at Wed Dec  9 23:45:35 2020.

 ----------------------------------------------------------------------
 # B3LYP/6-311++G(d,p) empiricaldispersion=gd3bj scf=xqc pop=npa geom=c
 heck
 ----------------------------------------------------------------------

 ---------------------------------------
 CID_144867040_JID_3403_Energie_neutraal
 ---------------------------------------
 Structure from the checkpoint file:  "JID_3403.chk"
 Charge =  0 Multiplicity = 1

 SCF Done:  E(RB3LYP) =  -581.873549657     A.U. after   13 cycles
 Normal termination of Gaussian 16 at Wed Dec  9 23:50:05 2020.

 ----------------------------------------------------------------------
 # B3LYP/6-311++G(d,p) empiricaldispersion=gd3bj scf=xqc pop=npa geom=c
 heck
 ----------------------------------------------------------------------

 -------------------------------------
 CID_144867040_JID_3403_Energie_kation
 -------------------------------------
 Structure from the checkpoint file:  "JID_3403.chk"
 Charge =  1 Multiplicity = 2

 SCF Done:  E(UB3LYP) =  -581.549885284     A.U. after   19 cycles
 Normal termination of Gaussian 16 at Wed Dec  9 23:59:25 2020.
 Gaussian 16:  ES64L-G16RevA.03 25-Dec-2016

 ----------------------------------------------------------------------
 # B3LYP/6-311++G(d,p) empiricaldispersion=gd3bj scf=xqc pop=npa geom=c
 heck
 ----------------------------------------------------------------------

 ------------------------------------
 CID_144867040_JID_3403_Energie_anion
 ------------------------------------
 Structure from the checkpoint file:  "JID_3403.chk"
 Charge = -1 Multiplicity = 2

                         Standard orientation:
 ---------------------------------------------------------------------
 Center     Atomic      Atomic             Coordinates (Angstroms)
 Number     Number       Type             X           Y           Z
 ---------------------------------------------------------------------
      1          6           0        3.920134   -1.520694   -0.471805
      2          6           0        2.439867   -1.559848   -0.080891
      3          6           0        2.066177   -0.595089    1.053217
      4          6           0        2.369989    0.887382    0.780761
      5          6           0        1.763822    1.492164   -0.496085
      6          6           0        0.241899    1.496240   -0.626937
      7          6           0       -0.583833    1.956055    0.577504
      8          6           0       -1.964579    1.358160    0.264478
      9          6           0       -1.632052    0.102412   -0.583856
     10          8           0       -0.230078    0.165802   -0.876737
     11          6           0       -1.895558   -1.223834    0.118950
     12          6           0       -3.359129   -1.543876    0.283139
     13          8           0       -4.265386   -0.820083   -0.071721
     14          1           0        4.204833   -0.547556   -0.888036
     15          1           0        4.149566   -2.279633   -1.228283
     16          1           0        4.565101   -1.708888    0.396005
     17          1           0        1.813578   -1.344255   -0.953104
     18          1           0        2.180187   -2.579263    0.235796
     19          1           0        0.999184   -0.713303    1.269642
     20          1           0        2.605953   -0.887985    1.965554
     21          1           0        2.049170    1.476491    1.649821
     22          1           0        3.457349    1.025741    0.722615
     23          1           0        2.096382    2.536142   -0.571986
     24          1           0        2.165857    0.982859   -1.380400
     25          1           0       -0.020571    2.128563   -1.493925
     26          1           0       -0.175716    1.525923    1.497644
     27          1           0       -0.600250    3.044346    0.690110
     28          1           0       -2.536535    1.109587    1.162276
     29          1           0       -2.571447    2.055472   -0.320152
     30          1           0       -2.197772    0.122329   -1.524137
     31          1           0       -1.421300   -2.046700   -0.435664
     32          1           0       -1.424910   -1.237895    1.113982
     33          1           0       -3.575372   -2.522164    0.769064
 ---------------------------------------------------------------------

 SCF Done:  E(UB3LYP) =  -581.860812876     A.U. after   33 cycles
 SCF Done:  E(UB3LYP) =  -581.860812876     a.u. after    1 cycles

 The electronic state is 2-A.
 Alpha  occ. eigenvalues --  -19.01302 -18.99741 -10.13166 -10.11631 -10.11369
 Alpha  occ. eigenvalues --  -10.07017 -10.06551 -10.06318 -10.06081 -10.05717
 Alpha  occ. eigenvalues --  -10.05386 -10.05351 -10.05238  -0.93437  -0.92939
 Alpha  occ. eigenvalues --   -0.70512  -0.68570  -0.67729  -0.64268  -0.60257
 Alpha  occ. eigenvalues --   -0.56524  -0.52244  -0.49602  -0.47469  -0.44869
 Alpha  occ. eigenvalues --   -0.43492  -0.39792  -0.38986  -0.36735  -0.35948
 Alpha  occ. eigenvalues --   -0.34799  -0.33939  -0.32907  -0.31946  -0.31357
 Alpha  occ. eigenvalues --   -0.29579  -0.29444  -0.28990  -0.27234  -0.26231
 Alpha  occ. eigenvalues --   -0.25758  -0.25091  -0.24046  -0.23400  -0.22738
 Alpha  occ. eigenvalues --   -0.21670  -0.21365  -0.20815  -0.20230  -0.15684
 Alpha  occ. eigenvalues --   -0.13782   0.04710
 Alpha virt. eigenvalues --    0.06348   0.06936   0.07605   0.07960   0.08914
 Alpha virt. eigenvalues --    0.09498   0.09815   0.10248   0.10426   0.11458
 Alpha virt. eigenvalues --    0.12004   0.12298   0.12488   0.12938   0.13324

  Beta  occ. eigenvalues --  -19.01298 -18.99504 -10.12923 -10.11629 -10.11360
  Beta  occ. eigenvalues --  -10.07031 -10.06544 -10.06292 -10.06063 -10.05699
  Beta  occ. eigenvalues --  -10.05377 -10.05324 -10.05222  -0.93379  -0.92529
  Beta  occ. eigenvalues --   -0.70477  -0.68514  -0.67692  -0.64190  -0.60158
  Beta  occ. eigenvalues --   -0.56425  -0.52178  -0.49430  -0.47408  -0.44620
  Beta  occ. eigenvalues --   -0.43387  -0.39723  -0.38893  -0.36699  -0.35851
  Beta  occ. eigenvalues --   -0.34673  -0.33840  -0.32632  -0.31813  -0.31237
  Beta  occ. eigenvalues --   -0.29502  -0.29393  -0.28897  -0.27089  -0.26121
  Beta  occ. eigenvalues --   -0.25141  -0.24950  -0.23893  -0.23318  -0.22669
  Beta  occ. eigenvalues --   -0.21634  -0.21339  -0.20781  -0.20197  -0.15603
  Beta  occ. eigenvalues --   -0.13645
  Beta virt. eigenvalues --    0.06855   0.07654   0.07790   0.08368   0.09036
  Beta virt. eigenvalues --    0.09261   0.09802   0.10083   0.10553   0.10633
  Beta virt. eigenvalues --    0.11701   0.12280   0.12553   0.12600   0.13251

 Mulliken charges and spin densities:
               1          2
     1  C    0.596809  -1.285841
     2  C   -0.557917   0.328561
     3  C    0.271263  -0.255406
     4  C    0.464030  -0.786626
     5  C   -0.042492  -0.452094
     6  C   -0.175693   0.321802
     7  C    0.008032  -0.495501
     8  C   -0.165770  -0.322656
     9  C    0.306168  -0.226401
    10  O   -0.060510  -0.017245
    11  C   -0.004275   0.029870
    12  C   -0.263860  -0.040855
    13  O   -0.297370   0.073620
    14  H   -0.116254   0.248931
    15  H   -0.149608   0.275536
    16  H   -0.199360   0.337778
    17  H    0.240308  -0.085929
    18  H   -0.015516   0.141966
    19  H   -0.165763   0.286326
    20  H   -0.221754   0.396071
    21  H   -0.412066   0.567279
    22  H   -0.002471   0.167716
    23  H   -0.201004   0.354661
    24  H   -0.029967   0.216139
    25  H   -0.206257   0.378085
    26  H    0.307527  -0.170096
    27  H   -0.365748   0.527373
    28  H   -0.013176   0.185098
    29  H    0.099957   0.056759
    30  H    0.186076   0.021771
    31  H    0.041604   0.139916
    32  H    0.167213   0.004806
    33  H   -0.022154   0.078586
 Sum of Mulliken charges =  -1.00000   1.00000

 Dipole moment (field-independent basis, Debye):
    X=             -1.8648    Y=             -1.2821    Z=             -0.5213  Tot=              2.3223
 Quadrupole moment (field-independent basis, Debye-Ang):
   XX=           -164.4872   YY=           -125.0616   ZZ=           -108.3338
   XY=             -0.0186   XZ=             -4.7594   YZ=             -1.5026

 Summary of Natural Population Analysis:

                                       Natural Population
                Natural  -----------------------------------------------
    Atom  No    Charge         Core      Valence    Rydberg      Total
 -----------------------------------------------------------------------
      C    1   -0.28752      0.99967     2.28314    0.00471     3.28752
      C    2   -0.19557      0.99964     2.18713    0.00880     3.19557
      C    3   -0.19006      0.99962     2.18107    0.00937     3.19006
      C    4   -0.19133      0.99962     2.18267    0.00904     3.19133
      C    5   -0.19753      0.99960     2.18774    0.01019     3.19753
      C    6    0.06959      0.99956     1.91552    0.01534     2.93041
      C    7   -0.20372      0.99961     2.19600    0.00811     3.20372
      C    8   -0.20018      0.99962     2.19156    0.00900     3.20018
      C    9    0.06959      0.99956     1.91707    0.01378     2.93041
      O   10   -0.31259      0.99988     3.30374    0.00897     4.31259
      C   11   -0.24832      0.99959     2.24062    0.00812     3.24832
      C   12    0.25374      0.99975     1.72683    0.01969     2.74626
      O   13   -0.26627      0.99988     3.25976    0.00663     4.26627
      H   14    0.09561      0.00000     0.40339    0.00100     0.40439
      H   15    0.09635      0.00000     0.40283    0.00082     0.40365
      H   16    0.09491      0.00000     0.40396    0.00113     0.40509
      H   17    0.10248      0.00000     0.39578    0.00174     0.39752
      H   18    0.09212      0.00000     0.40685    0.00103     0.40788
      H   19    0.09908      0.00000     0.39910    0.00183     0.40092
      H   20    0.09192      0.00000     0.40692    0.00116     0.40808
      H   21    0.09686      0.00000     0.40179    0.00135     0.40314
      H   22    0.09760      0.00000     0.40114    0.00126     0.40240
      H   23    0.10233      0.00000     0.39636    0.00130     0.39767
      H   24    0.10041      0.00000     0.39832    0.00127     0.39959
      H   25    0.07802      0.00000     0.42069    0.00130     0.42198
      H   26    0.09843      0.00000     0.40008    0.00149     0.40157
      H   27    0.10413      0.00000     0.39441    0.00146     0.39587
      H   28    0.10359      0.00000     0.39550    0.00092     0.39641
      H   29    0.10054      0.00000     0.39845    0.00100     0.39946
      H   30    0.08690      0.00000     0.41188    0.00122     0.41310
      H   31    0.11319      0.00000     0.38527    0.00154     0.38681
      H   32    0.10943      0.00000     0.38865    0.00192     0.39057
      H   33    0.03629      0.00000     0.46069    0.00302     0.46371
 =======================================================================
   * Total *    0.00000     12.99559    37.84491    0.15950    51.00000

 Normal termination of Gaussian 16 at Thu Dec 10 00:15:38 2020.
