 Gaussian 16, Revision A.03,

 -----------------------------------------------------------
 # opt freq B3LYP/6-31G(d) empiricaldispersion=gd3bj scf=xqc
 -----------------------------------------------------------

 -------------------------------
 CID_116179428_JID_7938_neutraal
 -------------------------------
 Symbolic Z-matrix:
 Charge =  0 Multiplicity = 1

 SCF Done:  E(RB3LYP) =  -1141.10402049     A.U. after   15 cycles
 SCF Done:  E(RB3LYP) =  -1141.11026632     A.U. after   13 cycles
 SCF Done:  E(RB3LYP) =  -1141.11105158     A.U. after   13 cycles
 SCF Done:  E(RB3LYP) =  -1141.11175238     A.U. after   12 cycles
 SCF Done:  E(RB3LYP) =  -1141.11216232     A.U. after   12 cycles
 SCF Done:  E(RB3LYP) =  -1141.11212510     A.U. after   13 cycles
 SCF Done:  E(RB3LYP) =  -1141.11244246     A.U. after   11 cycles
 SCF Done:  E(RB3LYP) =  -1141.11254174     A.U. after   11 cycles
 SCF Done:  E(RB3LYP) =  -1141.11257560     A.U. after   11 cycles
 SCF Done:  E(RB3LYP) =  -1141.11258228     A.U. after   10 cycles
 SCF Done:  E(RB3LYP) =  -1141.11258587     A.U. after    9 cycles
 SCF Done:  E(RB3LYP) =  -1141.11258840     A.U. after    9 cycles
 SCF Done:  E(RB3LYP) =  -1141.11258929     A.U. after    9 cycles
 SCF Done:  E(RB3LYP) =  -1141.11258955     A.U. after    8 cycles
 Optimization completed.
    -- Stationary point found.
 Normal termination of Gaussian 16 at Fri Dec 11 13:07:27 2020.

 --------------------------------------------------------------------
 #N Geom=AllCheck Guess=TCheck SCRF=Check GenChk RB3LYP/6-31G(d) Freq
 --------------------------------------------------------------------

 Structure from the checkpoint file:  "JID_7938.chk"
 -------------------------------
 CID_116179428_JID_7938_neutraal
 -------------------------------
 Charge =  0 Multiplicity = 1

 SCF Done:  E(RB3LYP) =  -1141.11258955     A.U. after    1 cycles

  Exact polarizability: 231.267 -17.140 153.191  16.893   8.672 100.143
 Approx polarizability: 312.382 -22.889 265.406  28.990  30.000 160.968

                      1                      2                      3
                      A                      A                      A
 Frequencies --     26.0356                33.2680                43.1129
 Red. masses --      6.2356                 5.3269                 4.7387
 Frc consts  --      0.0025                 0.0035                 0.0052
 IR Inten    --      1.2100                 0.6021                 3.1053

                      4                      5                      6
                      A                      A                      A
 Frequencies --     83.2413               113.5797               129.7209
 Red. masses --      3.4736                 5.2456                 4.5560
 Frc consts  --      0.0142                 0.0399                 0.0452
 IR Inten    --      9.5161                 0.9107                 1.7830

                      7                      8                      9
                      A                      A                      A
 Frequencies --    189.7451               199.5309               218.8613
 Red. masses --      3.1017                 2.2588                 1.8702
 Frc consts  --      0.0658                 0.0530                 0.0528
 IR Inten    --      1.8759                 1.3332                 0.4283

                     10                     11                     12
                      A                      A                      A
 Frequencies --    236.8610               244.3951               256.0975
 Red. masses --      2.3778                 2.4040                 1.3430
 Frc consts  --      0.0786                 0.0846                 0.0519
 IR Inten    --     14.9347                 0.9560                 2.5979

                     13                     14                     15
                      A                      A                      A
 Frequencies --    262.3050               293.1932               302.3250
 Red. masses --      1.0537                 5.2949                 3.9572
 Frc consts  --      0.0427                 0.2682                 0.2131
 IR Inten    --     23.0341                 4.5343                 2.6710

                     16                     17                     18
                      A                      A                      A
 Frequencies --    311.6015               320.4430               382.6269
 Red. masses --      2.8002                 3.9215                 6.4073
 Frc consts  --      0.1602                 0.2373                 0.5527
 IR Inten    --      1.9323                 3.6150                 7.1932

                     19                     20                     21
                      A                      A                      A
 Frequencies --    411.4655               431.3200               435.6244
 Red. masses --      3.3878                 3.1099                 4.0533
 Frc consts  --      0.3379                 0.3409                 0.4532
 IR Inten    --      7.4441                 5.7165                 3.9658

                     22                     23                     24
                      A                      A                      A
 Frequencies --    453.7987               542.4367               561.5646
 Red. masses --      5.2485                 2.0558                 4.0751
 Frc consts  --      0.6368                 0.3564                 0.7572
 IR Inten    --      6.4875                90.8816                11.2328

                     25                     26                     27
                      A                      A                      A
 Frequencies --    580.7584               615.3472               620.5828
 Red. masses --      4.5954                 2.6403                 2.9571
 Frc consts  --      0.9132                 0.5890                 0.6710
 IR Inten    --     10.3041                81.9421                60.4331

                     28                     29                     30
                      A                      A                      A
 Frequencies --    647.5478               675.4123               677.4636
 Red. masses --      2.3973                 2.8088                 1.9031
 Frc consts  --      0.5923                 0.7549                 0.5146
 IR Inten    --     25.9467                93.3327               223.2556

                     31                     32                     33
                      A                      A                      A
 Frequencies --    725.0670               736.4061               744.4284
 Red. masses --      7.5281                 5.8408                 4.4160
 Frc consts  --      2.3318                 1.8662                 1.4419
 IR Inten    --      5.5920                 5.6991                 9.7911

                     34                     35                     36
                      A                      A                      A
 Frequencies --    795.6525               805.9354               847.7780
 Red. masses --      1.9361                 3.1125                 1.5749
 Frc consts  --      0.7221                 1.1911                 0.6669
 IR Inten    --     33.9858                20.6702                32.8971

                     37                     38                     39
                      A                      A                      A
 Frequencies --    864.4702               878.6458               911.2744
 Red. masses --      4.4143                 3.0552                 1.2637
 Frc consts  --      1.9436                 1.3897                 0.6183
 IR Inten    --      6.3789                12.3179                 1.1322

                     40                     41                     42
                      A                      A                      A
 Frequencies --    944.9093               964.3702               965.4165
 Red. masses --      2.1202                 1.6297                 2.7018
 Frc consts  --      1.1153                 0.8930                 1.4836
 IR Inten    --      1.6807                 3.9881                 2.1687

                     43                     44                     45
                      A                      A                      A
 Frequencies --    972.3509               979.7139              1046.9863
 Red. masses --      1.4348                 2.3278                 1.6304
 Frc consts  --      0.7993                 1.3164                 1.0530
 IR Inten    --     36.9989                40.1906                 6.4611

                     46                     47                     48
                      A                      A                      A
 Frequencies --   1074.1087              1075.0142              1116.2156
 Red. masses --      3.5673                 2.5806                 1.4919
 Frc consts  --      2.4249                 1.7571                 1.0952
 IR Inten    --     28.3851                94.4731                 0.7140

                     49                     50                     51
                      A                      A                      A
 Frequencies --   1145.9412              1150.4689              1165.6542
 Red. masses --      2.4758                 1.8870                 1.7210
 Frc consts  --      1.9155                 1.4716                 1.3778
 IR Inten    --      9.6752                 5.0471                28.2200

                     52                     53                     54
                      A                      A                      A
 Frequencies --   1204.6122              1217.8419              1275.3019
 Red. masses --      3.5286                 2.0857                 1.1628
 Frc consts  --      3.0168                 1.8226                 1.1143
 IR Inten    --      1.1350               213.1646                40.4563

                     55                     56                     57
                      A                      A                      A
 Frequencies --   1304.8807              1323.0505              1341.5975
 Red. masses --      1.8938                 1.3717                 2.8643
 Frc consts  --      1.8999                 1.4147                 3.0375
 IR Inten    --     21.7912                21.4227                 4.1288

                     58                     59                     60
                      A                      A                      A
 Frequencies --   1353.0328              1365.7541              1396.4877
 Red. masses --      1.5080                 1.1902                 1.3103
 Frc consts  --      1.6266                 1.3080                 1.5055
 IR Inten    --     10.1468                 1.6014                90.1778

                     61                     62                     63
                      A                      A                      A
 Frequencies --   1411.8119              1423.9441              1437.4619
 Red. masses --      4.9781                 4.5788                 1.2547
 Frc consts  --      5.8461                 5.4700                 1.5275
 IR Inten    --      2.7124                51.4011                29.6133

                     64                     65                     66
                      A                      A                      A
 Frequencies --   1473.1935              1477.1147              1503.0853
 Red. masses --      1.3656                 1.0883                 2.9405
 Frc consts  --      1.7462                 1.3990                 3.9142
 IR Inten    --     46.0705                 6.4494                71.5022

                     67                     68                     69
                      A                      A                      A
 Frequencies --   1504.3709              1522.7451              1531.1600
 Red. masses --      1.1110                 1.0581                 1.3226
 Frc consts  --      1.4814                 1.4455                 1.8270
 IR Inten    --     13.3477                 4.8866                16.1421

                     70                     71                     72
                      A                      A                      A
 Frequencies --   1536.6110              1540.7207              1652.1359
 Red. masses --      2.1940                 1.0534                 5.6982
 Frc consts  --      3.0522                 1.4733                 9.1639
 IR Inten    --     43.5639                18.7608               495.1727

                     73                     74                     75
                      A                      A                      A
 Frequencies --   1676.5525              1693.9025              1716.4980
 Red. masses --      7.2957                 1.1829                 5.9687
 Frc consts  --     12.0823                 1.9998                10.3614
 IR Inten    --    109.8312               200.2090               281.6775

                     76                     77                     78
                      A                      A                      A
 Frequencies --   3026.0618              3052.5252              3065.7639
 Red. masses --      1.0712                 1.0386                 1.0836
 Frc consts  --      5.7795                 5.7020                 6.0006
 IR Inten    --     49.1778                21.3186                17.2298

                     79                     80                     81
                      A                      A                      A
 Frequencies --   3081.4676              3114.1602              3122.3622
 Red. masses --      1.0302                 1.1001                 1.0940
 Frc consts  --      5.7633                 6.2857                 6.2840
 IR Inten    --      7.5695                16.6032                 2.3069

                     82                     83                     84
                      A                      A                      A
 Frequencies --   3139.7970              3170.1082              3188.3107
 Red. masses --      1.1014                 1.1053                 1.0889
 Frc consts  --      6.3971                 6.5448                 6.5215
 IR Inten    --     21.7341                 3.9491                14.1780

                     85                     86                     87
                      A                      A                      A
 Frequencies --   3202.8585              3203.9465              3225.8933
 Red. masses --      1.1056                 1.0911                 1.0939
 Frc consts  --      6.6821                 6.5990                 6.7071
 IR Inten    --      3.8682                10.3992                 4.8561

                     88                     89                     90
                      A                      A                      A
 Frequencies --   3543.0071              3613.1163              3640.2492
 Red. masses --      1.0482                 1.0755                 1.0973
 Frc consts  --      7.7522                 8.2719                 8.5674
 IR Inten    --      8.4919                43.0572                 6.2272

 - Thermochemistry -
 -------------------
 Temperature   298.150 Kelvin.  Pressure   1.00000 Atm.
 Atom     1 has atomic number  6 and mass  12.00000

 Molecular mass:   253.08850 amu.
 Principal axes and moments of inertia in atomic units:
                           1         2         3
     Eigenvalues --  1682.983929197.71093**********
           X            0.99987  -0.01633   0.00068
           Y            0.01633   0.99986  -0.00252
           Z           -0.00064   0.00253   1.00000
 This molecule is an asymmetric top.
 Rotational symmetry number  1.
 Warning -- assumption of classical behavior for rotation
           may cause significant error
 Rotational temperatures (Kelvin)      0.05146     0.00942     0.00857
 Rotational constants (GHZ):           1.07235     0.19622     0.17857
 Zero-point vibrational energy     678788.5 (Joules/Mol)
                                  162.23434 (Kcal/Mol)
 Warning -- explicit consideration of  27 degrees of freedom as
           vibrations may cause significant error
 Vibrational temperatures:     37.46    47.87    62.03   119.77   163.42
          (Kelvin)            186.64   273.00   287.08   314.89   340.79
                              351.63   368.47   377.40   421.84   434.98
                              448.33   461.05   550.51   592.01   620.57
                              626.77   652.92   780.45   807.97   835.58
                              885.35   892.88   931.68   971.77   974.72
                             1043.21  1059.52  1071.07  1144.77  1159.56
                             1219.76  1243.78  1264.18  1311.12  1359.51
                             1387.51  1389.02  1399.00  1409.59  1506.38
                             1545.40  1546.71  1605.99  1648.75  1655.27
                             1677.12  1733.17  1752.20  1834.88  1877.43
                             1903.57  1930.26  1946.71  1965.02  2009.23
                             2031.28  2048.74  2068.19  2119.60  2125.24
                             2162.60  2164.45  2190.89  2203.00  2210.84
                             2216.75  2377.06  2412.19  2437.15  2469.66
                             4353.83  4391.90  4410.95  4433.54  4480.58
                             4492.38  4517.47  4561.08  4587.27  4608.20
                             4609.76  4641.34  5097.60  5198.47  5237.51

 Zero-point correction=                           0.258537 (Hartree/Particle)
 Thermal correction to Energy=                    0.275306
 Thermal correction to Enthalpy=                  0.276250
 Thermal correction to Gibbs Free Energy=         0.213255
 Sum of electronic and zero-point Energies=          -1140.854053
 Sum of electronic and thermal Energies=             -1140.837284
 Sum of electronic and thermal Enthalpies=           -1140.836340
 Sum of electronic and thermal Free Energies=        -1140.899334

                     E (Thermal)             CV                S
                      KCal/Mol        Cal/Mol-Kelvin    Cal/Mol-Kelvin
 Total                  172.757             64.114            132.583
 Electronic               0.000              0.000              0.000
 Translational            0.889              2.981             42.486
 Rotational               0.889              2.981             33.414
 Vibrational            170.979             58.153             56.683
 Vibration     1          0.593              1.985              6.111
 Vibration     2          0.594              1.983              5.624
 Vibration     3          0.595              1.980              5.111
 Vibration     4          0.600              1.961              3.813
 Vibration     5          0.607              1.938              3.207
 Vibration     6          0.612              1.924              2.950
 Vibration     7          0.633              1.854              2.230
 Vibration     8          0.638              1.841              2.137
 Vibration     9          0.647              1.812              1.968
 Vibration    10          0.656              1.784              1.826
 Vibration    11          0.660              1.772              1.771
 Vibration    12          0.666              1.752              1.688
 Vibration    13          0.670              1.742              1.646
 Vibration    14          0.688              1.686              1.455
 Vibration    15          0.694              1.669              1.404
 Vibration    16          0.700              1.652              1.354
 Vibration    17          0.706              1.634              1.308
 Vibration    18          0.752              1.507              1.029
 Vibration    19          0.775              1.445              0.921
 Vibration    20          0.792              1.402              0.854
 Vibration    21          0.796              1.393              0.840
 Vibration    22          0.812              1.352              0.784
 Vibration    23          0.898              1.156              0.560
 Vibration    24          0.917              1.114              0.521
 Vibration    25          0.937              1.073              0.484
 Vibration    26          0.975              0.999              0.424
 Vibration    27          0.981              0.988              0.416

 Optimization completed.
    -- Stationary point found.
 Normal termination of Gaussian 16 at Fri Dec 11 13:17:21 2020.

 ----------------------------------------------------------------------
 # B3LYP/6-311++G(d,p) empiricaldispersion=gd3bj scf=xqc pop=npa geom=c
 heck
 ----------------------------------------------------------------------

 ---------------------------------------
 CID_116179428_JID_7938_Energie_neutraal
 ---------------------------------------
 Structure from the checkpoint file:  "JID_7938.chk"
 Charge =  0 Multiplicity = 1

 SCF Done:  E(RB3LYP) =  -1141.35504488     A.U. after   16 cycles
 Normal termination of Gaussian 16 at Fri Dec 11 13:21:55 2020.

 ----------------------------------------------------------------------
 # B3LYP/6-311++G(d,p) empiricaldispersion=gd3bj scf=xqc pop=npa geom=c
 heck
 ----------------------------------------------------------------------

 -------------------------------------
 CID_116179428_JID_7938_Energie_kation
 -------------------------------------
 Structure from the checkpoint file:  "JID_7938.chk"
 Charge =  1 Multiplicity = 2

 SCF Done:  E(UB3LYP) =  -1141.09102915     A.U. after   26 cycles
 Normal termination of Gaussian 16 at Fri Dec 11 13:31:30 2020.
 Gaussian 16:  ES64L-G16RevA.03 25-Dec-2016

 ----------------------------------------------------------------------
 # B3LYP/6-311++G(d,p) empiricaldispersion=gd3bj scf=xqc pop=npa geom=c
 heck
 ----------------------------------------------------------------------

 ------------------------------------
 CID_116179428_JID_7938_Energie_anion
 ------------------------------------
 Structure from the checkpoint file:  "JID_7938.chk"
 Charge = -1 Multiplicity = 2

                         Standard orientation:
 ---------------------------------------------------------------------
 Center     Atomic      Atomic             Coordinates (Angstroms)
 Number     Number       Type             X           Y           Z
 ---------------------------------------------------------------------
      1          6           0       -3.927089    1.680486    0.530373
      2          6           0       -3.487789    0.580512   -0.428704
      3          6           0       -2.161843    0.817878   -1.160584
      4          7           0       -1.144887    1.448551   -0.325457
      5          6           0        0.150592    1.034344   -0.277224
      6          7           0        1.179633    1.744484    0.089505
      7          6           0        2.242107    0.833217    0.047235
      8          6           0        1.760445   -0.415557   -0.368714
      9          8           0        0.388382   -0.281224   -0.575864
     10          6           0        2.556761   -1.530886   -0.520356
     11          6           0        3.914720   -1.364691   -0.229052
     12          6           0        4.437232   -0.123061    0.192365
     13          6           0        3.594514    0.993154    0.334665
     14          7           0        5.817874    0.009156    0.411509
     15         16           0       -3.538642   -1.108967    0.372468
     16          8           0       -2.991451   -2.062378   -0.672652
     17          6           0       -2.229975   -0.915049    1.641107
     18          1           0       -3.161636    1.884008    1.284350
     19          1           0       -4.854572    1.407906    1.045215
     20          1           0       -4.116030    2.610721   -0.018989
     21          1           0       -4.255136    0.439579   -1.199770
     22          1           0       -1.788165   -0.148638   -1.511504
     23          1           0       -2.350948    1.439037   -2.047215
     24          1           0       -1.220693    2.447383   -0.185840
     25          1           0        2.157104   -2.486241   -0.842331
     26          1           0        4.588812   -2.210020   -0.336824
     27          1           0        3.985588    1.954804    0.652604
     28          1           0        6.062946    0.757859    1.048312
     29          1           0        6.276407   -0.852571    0.682204
     30          1           0       -1.263405   -0.822575    1.145456
     31          1           0       -2.433010   -0.054285    2.282442
     32          1           0       -2.250829   -1.832108    2.234947
 ---------------------------------------------------------------------

 SCF Done:  E(UB3LYP) =  -1141.34738530     A.U. after   33 cycles
 SCF Done:  E(UB3LYP) =  -1141.34875330     a.u. after    8 cycles

 The electronic state is 2-A.
 Alpha  occ. eigenvalues --  -88.85731 -19.10712 -18.99394 -14.25981 -14.22967
 Alpha  occ. eigenvalues --  -14.21214 -10.21344 -10.13683 -10.12922 -10.12914
 Alpha  occ. eigenvalues --  -10.12310 -10.11822 -10.10984 -10.09868 -10.08506
 Alpha  occ. eigenvalues --  -10.08464 -10.08239  -7.93474  -5.89740  -5.89610
 Alpha  occ. eigenvalues --   -5.89057  -1.04495  -0.92356  -0.87226  -0.83718
 Alpha  occ. eigenvalues --   -0.82746  -0.75299  -0.72831  -0.67267  -0.66191
 Alpha  occ. eigenvalues --   -0.64491  -0.61595  -0.57099  -0.55161  -0.53298
 Alpha  occ. eigenvalues --   -0.51104  -0.48858  -0.45716  -0.44220  -0.42253
 Alpha  occ. eigenvalues --   -0.41738  -0.40814  -0.39716  -0.38316  -0.37738
 Alpha  occ. eigenvalues --   -0.36270  -0.36061  -0.34662  -0.34133  -0.33850
 Alpha  occ. eigenvalues --   -0.33121  -0.31998  -0.31095  -0.29825  -0.29126
 Alpha  occ. eigenvalues --   -0.28480  -0.27678  -0.27166  -0.26874  -0.25371
 Alpha  occ. eigenvalues --   -0.23128  -0.20562  -0.19602  -0.18211  -0.14749
 Alpha  occ. eigenvalues --   -0.13670  -0.11445   0.03544
 Alpha virt. eigenvalues --    0.04454   0.06429   0.06891   0.07210   0.07575
 Alpha virt. eigenvalues --    0.07808   0.08720   0.09498   0.10023   0.10060
 Alpha virt. eigenvalues --    0.10281   0.10486   0.11027   0.11472   0.12589

  Beta  occ. eigenvalues --  -88.85729 -19.10706 -18.99389 -14.25959 -14.22920
  Beta  occ. eigenvalues --  -14.21211 -10.21332 -10.13683 -10.12918 -10.12890
  Beta  occ. eigenvalues --  -10.12300 -10.11819 -10.10970 -10.09861 -10.08494
  Beta  occ. eigenvalues --  -10.08393 -10.08224  -7.93472  -5.89739  -5.89607
  Beta  occ. eigenvalues --   -5.89054  -1.04478  -0.92345  -0.87187  -0.83685
  Beta  occ. eigenvalues --   -0.82708  -0.75269  -0.72789  -0.67241  -0.66163
  Beta  occ. eigenvalues --   -0.64447  -0.61520  -0.57042  -0.55115  -0.53273
  Beta  occ. eigenvalues --   -0.51079  -0.48810  -0.45684  -0.44162  -0.42221
  Beta  occ. eigenvalues --   -0.41680  -0.40776  -0.39672  -0.38278  -0.37699
  Beta  occ. eigenvalues --   -0.36247  -0.36036  -0.34631  -0.34100  -0.33819
  Beta  occ. eigenvalues --   -0.33094  -0.31939  -0.31070  -0.29783  -0.29083
  Beta  occ. eigenvalues --   -0.28434  -0.27655  -0.27141  -0.26842  -0.25344
  Beta  occ. eigenvalues --   -0.23094  -0.20553  -0.19566  -0.18191  -0.14731
  Beta  occ. eigenvalues --   -0.13621  -0.11411
  Beta virt. eigenvalues --    0.05667   0.06099   0.06568   0.07305   0.07627
  Beta virt. eigenvalues --    0.08190   0.08360   0.09008   0.09540   0.10276
  Beta virt. eigenvalues --    0.10350   0.10643   0.10775   0.11265   0.11761

 Mulliken charges and spin densities:
               1          2
     1  C    1.605870  -2.319219
     2  C   -1.217083   1.455151
     3  C    0.020796  -0.661825
     4  N   -0.345286   0.254332
     5  C    0.146759   0.162002
     6  N   -0.038538  -0.046622
     7  C    1.399688  -1.094471
     8  C    1.166246  -0.583799
     9  O   -0.053077  -0.003109
    10  C   -1.116401   0.319642
    11  C    0.534292  -0.222260
    12  C   -0.426005  -0.315196
    13  C   -0.999971   0.136888
    14  N   -0.247650  -0.045731
    15  S    0.851741  -0.346975
    16  O   -0.451084   0.006560
    17  C   -0.647409  -0.069314
    18  H   -0.086351   0.251193
    19  H   -0.367707   0.525221
    20  H   -0.671330   0.853685
    21  H   -0.039662   0.342897
    22  H    0.374109  -0.083808
    23  H   -0.592597   0.792360
    24  H   -0.104873   0.443630
    25  H    0.159323   0.003462
    26  H   -0.111434   0.267202
    27  H    0.149773   0.012500
    28  H   -0.139032   0.377675
    29  H   -0.158054   0.395011
    30  H    0.200675   0.041732
    31  H    0.020378   0.127098
    32  H    0.183895   0.024089
 Sum of Mulliken charges =  -1.00000   1.00000

 Dipole moment (field-independent basis, Debye):
    X=              1.1908    Y=             -3.9732    Z=              1.8075  Tot=              4.5245
 Quadrupole moment (field-independent basis, Debye-Ang):
   XX=           -233.5708   YY=           -157.7249   ZZ=           -135.3104
   XY=             15.7217   XZ=            -10.5803   YZ=             -0.2441

 Summary of Natural Population Analysis:

                                       Natural Population
                Natural  -----------------------------------------------
    Atom  No    Charge         Core      Valence    Rydberg      Total
 -----------------------------------------------------------------------
      C    1   -0.30067      0.99963     2.29313    0.00792     3.30067
      C    2   -0.19034      0.99957     2.17271    0.01807     3.19034
      C    3   -0.10263      0.99956     2.08999    0.01308     3.10263
      N    4   -0.31884      0.99965     2.80815    0.01104     3.81884
      C    5    0.36734      0.99959     1.61327    0.01981     2.63266
      N    6   -0.28181      0.99966     2.77393    0.00822     3.78181
      C    7    0.06006      0.99945     1.92773    0.01276     2.93994
      C    8    0.11504      0.99931     1.87308    0.01257     2.88496
      O    9   -0.25067      0.99985     3.24483    0.00599     4.25067
      C   10   -0.11130      0.99952     2.10361    0.00817     3.11130
      C   11   -0.13279      0.99954     2.12334    0.00991     3.13279
      C   12    0.08347      0.99951     1.90652    0.01050     2.91653
      C   13   -0.13110      0.99948     2.12247    0.00914     3.13110
      N   14   -0.39801      0.99972     2.88795    0.01034     3.89801
      S   15    0.58120      4.99943     2.36540    0.05397     7.41880
      O   16   -0.48590      0.99993     3.47992    0.00605     4.48590
      C   17   -0.38311      0.99961     2.37616    0.00734     3.38311
      H   18    0.10244      0.00000     0.39560    0.00196     0.39756
      H   19    0.10643      0.00000     0.39106    0.00250     0.39357
      H   20    0.11582      0.00000     0.37818    0.00600     0.38418
      H   21    0.11135      0.00000     0.38686    0.00178     0.38865
      H   22    0.12293      0.00000     0.37530    0.00177     0.37707
      H   23    0.10315      0.00000     0.39514    0.00170     0.39685
      H   24    0.20335      0.00000     0.29341    0.00324     0.29665
      H   25    0.10763      0.00000     0.39162    0.00075     0.39237
      H   26    0.09968      0.00000     0.39942    0.00090     0.40032
      H   27    0.10320      0.00000     0.39553    0.00127     0.39680
      H   28    0.18451      0.00000     0.31332    0.00217     0.31549
      H   29    0.18521      0.00000     0.31156    0.00323     0.31479
      H   30    0.11719      0.00000     0.38144    0.00137     0.38281
      H   31    0.10984      0.00000     0.38862    0.00154     0.39016
      H   32    0.10731      0.00000     0.39176    0.00092     0.39269
 =======================================================================
   * Total *    0.00000     20.99300    45.75100    0.25600    67.00000

 Normal termination of Gaussian 16 at Fri Dec 11 15:13:15 2020.
