 Gaussian 16, Revision A.03,

 -----------------------------------------------------------
 # opt freq B3LYP/6-31G(d) empiricaldispersion=gd3bj scf=xqc
 -----------------------------------------------------------

 ------------------------------
 CID_129647366_JID_337_neutraal
 ------------------------------
 Symbolic Z-matrix:
 Charge =  0 Multiplicity = 1

 SCF Done:  E(RB3LYP) =  -439.783646296     A.U. after   31 cycles
 SCF Done:  E(RB3LYP) =  -439.846964951     A.U. after   18 cycles
 SCF Done:  E(RB3LYP) =  -439.900379656     A.U. after   17 cycles
 SCF Done:  E(RB3LYP) =  -439.919443765     A.U. after   18 cycles
 SCF Done:  E(RB3LYP) =  -439.925789712     A.U. after   16 cycles
 SCF Done:  E(RB3LYP) =  -439.926082148     A.U. after   18 cycles
 SCF Done:  E(RB3LYP) =  -439.929076775     A.U. after   16 cycles
 SCF Done:  E(RB3LYP) =  -439.933075942     A.U. after   18 cycles
 SCF Done:  E(RB3LYP) =  -439.899307014     A.U. after   17 cycles
 SCF Done:  E(RB3LYP) =  -439.939497356     A.U. after   16 cycles
 SCF Done:  E(RB3LYP) =  -439.948179368     A.U. after   10 cycles
 SCF Done:  E(RB3LYP) =  -439.948179453     A.U. after    9 cycles
 SCF Done:  E(RB3LYP) =  -439.948179486     A.U. after    9 cycles
 SCF Done:  E(RB3LYP) =  -439.948179512     A.U. after    9 cycles
 SCF Done:  E(RB3LYP) =  -439.948179553     A.U. after    9 cycles
 SCF Done:  E(RB3LYP) =  -439.948179582     A.U. after    9 cycles
 Optimization completed.
    -- Stationary point found.
 Normal termination of Gaussian 16 at Tue Dec  8 10:28:38 2020.

 --------------------------------------------------------------------
 #N Geom=AllCheck Guess=TCheck SCRF=Check GenChk RB3LYP/6-31G(d) Freq
 --------------------------------------------------------------------

 Structure from the checkpoint file:  "JID_337.chk"
 ------------------------------
 CID_129647366_JID_337_neutraal
 ------------------------------
 Charge =  0 Multiplicity = 1

 SCF Done:  E(RB3LYP) =  -439.948179582     A.U. after    1 cycles

  Exact polarizability: 180.535  32.005 114.746 -10.005  -6.981  53.706
 Approx polarizability: 466.564 167.636 241.810 -47.656 -32.340  89.756

                      1                      2                      3
                      A                      A                      A
 Frequencies --     24.3188                53.3613                58.2652
 Red. masses --      3.2057                 5.5997                 5.8051
 Frc consts  --      0.0011                 0.0094                 0.0116
 IR Inten    --      0.2256                 0.7822                 6.7276

                      4                      5                      6
                      A                      A                      A
 Frequencies --    134.2232               153.0841               176.5104
 Red. masses --      6.1877                 5.3054                 3.0164
 Frc consts  --      0.0657                 0.0733                 0.0554
 IR Inten    --     44.8101                22.0067                 2.2257

                      7                      8                      9
                      A                      A                      A
 Frequencies --    236.7381               258.3022               352.7141
 Red. masses --      3.2017                 3.2499                 2.0830
 Frc consts  --      0.1057                 0.1278                 0.1527
 IR Inten    --      3.6908                14.2916                 5.6246

                     10                     11                     12
                      A                      A                      A
 Frequencies --    360.9271               390.6264               403.5831
 Red. masses --      4.5892                 1.6668                 2.7897
 Frc consts  --      0.3522                 0.1499                 0.2677
 IR Inten    --     21.4839                27.1782               104.3145

                     13                     14                     15
                      A                      A                      A
 Frequencies --    485.5276               503.0593               552.7500
 Red. masses --      3.3542                 2.8027                 4.0349
 Frc consts  --      0.4659                 0.4179                 0.7263
 IR Inten    --      1.4328                12.8680                32.8864

                     16                     17                     18
                      A                      A                      A
 Frequencies --    641.1819               707.4329               737.6991
 Red. masses --      4.2715                 1.6672                 1.2785
 Frc consts  --      1.0347                 0.4916                 0.4099
 IR Inten    --    192.9092                43.2751                42.2645

                     19                     20                     21
                      A                      A                      A
 Frequencies --    761.8120               793.5277               850.1505
 Red. masses --      2.3435                 1.5568                 3.5864
 Frc consts  --      0.8013                 0.5776                 1.5272
 IR Inten    --    116.9092                17.7241                35.8776

                     22                     23                     24
                      A                      A                      A
 Frequencies --    892.2151               934.4911               964.5136
 Red. masses --      2.2841                 1.6452                 1.5067
 Frc consts  --      1.0713                 0.8465                 0.8258
 IR Inten    --     33.8617                26.7036               116.5187

                     25                     26                     27
                      A                      A                      A
 Frequencies --   1015.3616              1067.8810              1077.1648
 Red. masses --      1.5106                 1.3765                 2.3009
 Frc consts  --      0.9176                 0.9248                 1.5730
 IR Inten    --    100.5151               142.6152                12.0507

                     28                     29                     30
                      A                      A                      A
 Frequencies --   1139.8267              1152.3740              1219.6697
 Red. masses --      2.1461                 1.6412                 1.4782
 Frc consts  --      1.6428                 1.2841                 1.2955
 IR Inten    --     44.1785                55.8418                26.8768

                     31                     32                     33
                      A                      A                      A
 Frequencies --   1255.7793              1269.0814              1373.9719
 Red. masses --      1.2841                 2.0777                 1.1876
 Frc consts  --      1.1931                 1.9716                 1.3209
 IR Inten    --     88.5261               516.5424                 7.9710

                     34                     35                     36
                      A                      A                      A
 Frequencies --   1386.5386              1396.1456              1452.0404
 Red. masses --      1.7244                 1.8328                 1.7819
 Frc consts  --      1.9532                 2.1049                 2.2135
 IR Inten    --     50.3724                40.6986                26.2383

                     37                     38                     39
                      A                      A                      A
 Frequencies --   1464.8904              1501.9779              1529.5302
 Red. masses --      2.8551                 1.1132                 1.0893
 Frc consts  --      3.6098                 1.4797                 1.5015
 IR Inten    --     12.3021                 9.4634                 3.0528

                     40                     41                     42
                      A                      A                      A
 Frequencies --   1577.1799              1697.9125              1842.8592
 Red. masses --      9.2719                 1.0818                 8.3279
 Frc consts  --     13.5888                 1.8375                16.6636
 IR Inten    --    106.1217               108.2609               208.3247

                     43                     44                     45
                      A                      A                      A
 Frequencies --   2958.6314              2989.1974              3017.0168
 Red. masses --      1.0720                 1.0858                 1.0631
 Frc consts  --      5.5288                 5.7162                 5.7016
 IR Inten    --     72.1818               119.4060                 8.4019

                     46                     47                     48
                      A                      A                      A
 Frequencies --   3056.8415              3060.0409              3302.9819
 Red. masses --      1.0942                 1.0938                 1.1120
 Frc consts  --      6.0242                 6.0347                 7.1477
 IR Inten    --     44.9743                52.0900                10.7086

                     49                     50                     51
                      A                      A                      A
 Frequencies --   3395.1333              3506.3755              3672.7591
 Red. masses --      1.0546                 1.0870                 1.0673
 Frc consts  --      7.1620                 7.8743                 8.4822
 IR Inten    --     76.4783                 1.3934               221.0344

 - Thermochemistry -
 -------------------
 Temperature   298.150 Kelvin.  Pressure   1.00000 Atm.
 Atom     1 has atomic number  6 and mass  12.00000

 Molecular mass:   135.06841 amu.
 Principal axes and moments of inertia in atomic units:
                           1         2         3
     Eigenvalues --   764.700562534.532423189.00251
           X            0.99991  -0.01244  -0.00411
           Y            0.01244   0.99992   0.00042
           Z            0.00411  -0.00047   0.99999
 This molecule is an asymmetric top.
 Rotational symmetry number  1.
 Warning -- assumption of classical behavior for rotation
           may cause significant error
 Rotational temperatures (Kelvin)      0.11327     0.03417     0.02716
 Rotational constants (GHZ):           2.36006     0.71206     0.56593
 Zero-point vibrational energy     387627.0 (Joules/Mol)
                                   92.64508 (Kcal/Mol)
 Warning -- explicit consideration of  15 degrees of freedom as
           vibrations may cause significant error
 Vibrational temperatures:     34.99    76.78    83.83   193.12   220.25
          (Kelvin)            253.96   340.61   371.64   507.48   519.29
                              562.02   580.67   698.57   723.79   795.28
                              922.52  1017.84  1061.38  1096.08  1141.71
                             1223.18  1283.70  1344.52  1387.72  1460.88
                             1536.44  1549.80  1639.96  1658.01  1754.83
                             1806.79  1825.93  1976.84  1994.92  2008.74
                             2089.16  2107.65  2161.01  2200.65  2269.21
                             2442.92  2651.46  4256.81  4300.79  4340.81
                             4398.11  4402.72  4752.25  4884.84  5044.89
                             5284.28

 Zero-point correction=                           0.147639 (Hartree/Particle)
 Thermal correction to Energy=                    0.158825
 Thermal correction to Enthalpy=                  0.159769
 Thermal correction to Gibbs Free Energy=         0.109284
 Sum of electronic and zero-point Energies=           -439.800540
 Sum of electronic and thermal Energies=              -439.789355
 Sum of electronic and thermal Enthalpies=            -439.788411
 Sum of electronic and thermal Free Energies=         -439.838896

                     E (Thermal)             CV                S
                      KCal/Mol        Cal/Mol-Kelvin    Cal/Mol-Kelvin
 Total                   99.664             39.453            106.254
 Electronic               0.000              0.000              0.000
 Translational            0.889              2.981             40.614
 Rotational               0.889              2.981             30.203
 Vibrational             97.886             33.492             35.437
 Vibration     1          0.593              1.985              6.246
 Vibration     2          0.596              1.976              4.689
 Vibration     3          0.596              1.974              4.515
 Vibration     4          0.613              1.919              2.885
 Vibration     5          0.619              1.899              2.634
 Vibration     6          0.628              1.871              2.365
 Vibration     7          0.656              1.784              1.827
 Vibration     8          0.667              1.749              1.673
 Vibration     9          0.729              1.570              1.154
 Vibration    10          0.735              1.553              1.118
 Vibration    11          0.758              1.490              0.998
 Vibration    12          0.769              1.462              0.950
 Vibration    13          0.842              1.282              0.695
 Vibration    14          0.858              1.243              0.651
 Vibration    15          0.908              1.134              0.539

 Optimization completed.
    -- Stationary point found.
 Normal termination of Gaussian 16 at Tue Dec  8 10:31:12 2020.

 ----------------------------------------------------------------------
 # B3LYP/6-311++G(d,p) empiricaldispersion=gd3bj scf=xqc pop=npa geom=c
 heck
 ----------------------------------------------------------------------

 --------------------------------------
 CID_129647366_JID_337_Energie_neutraal
 --------------------------------------
 Structure from the checkpoint file:  "JID_337.chk"
 Charge =  0 Multiplicity = 1

 SCF Done:  E(RB3LYP) =  -440.088086863     A.U. after   19 cycles
 Normal termination of Gaussian 16 at Tue Dec  8 10:32:23 2020.

 ----------------------------------------------------------------------
 # B3LYP/6-311++G(d,p) empiricaldispersion=gd3bj scf=xqc pop=npa geom=c
 heck
 ----------------------------------------------------------------------

 ------------------------------------
 CID_129647366_JID_337_Energie_kation
 ------------------------------------
 Structure from the checkpoint file:  "JID_337.chk"
 Charge =  1 Multiplicity = 2

 SCF Done:  E(UB3LYP) =  -439.840563433     A.U. after   29 cycles
 Normal termination of Gaussian 16 at Tue Dec  8 10:36:53 2020.
 Gaussian 16:  ES64L-G16RevA.03 25-Dec-2016

 ----------------------------------------------------------------------
 # B3LYP/6-311++G(d,p) empiricaldispersion=gd3bj scf=xqc pop=npa geom=c
 heck
 ----------------------------------------------------------------------

 -----------------------------------
 CID_129647366_JID_337_Energie_anion
 -----------------------------------
 Structure from the checkpoint file:  "JID_337.chk"
 Charge = -1 Multiplicity = 2

                         Standard orientation:
 ---------------------------------------------------------------------
 Center     Atomic      Atomic             Coordinates (Angstroms)
 Number     Number       Type             X           Y           Z
 ---------------------------------------------------------------------
      1          6           0        1.569309    1.713397   -0.263801
      2          6           0        0.688723    0.673352   -0.065843
      3          6           0       -0.660031    1.044774    0.004496
      4          6           0       -2.086890    0.476877    0.083153
      5          6           0       -2.731850   -0.622665    0.466656
      6          6           0       -1.758310    1.817830    0.021569
      7          8           0       -3.141357   -1.618296   -0.286310
      8          6           0        1.054484   -0.799571    0.033583
      9          6           0        2.486863   -1.093313   -0.414469
     10          7           0        3.445421   -0.541750    0.548354
     11          1           0        1.065282    2.696495   -0.297917
     12          1           0       -2.205344    2.798143   -0.046492
     13          1           0       -3.489148   -2.320636    0.292003
     14          1           0        0.940817   -1.142543    1.071097
     15          1           0        0.352260   -1.389004   -0.574529
     16          1           0        2.625159   -2.181134   -0.459070
     17          1           0        2.611096   -0.704853   -1.441461
     18          1           0        4.390831   -0.758107    0.232094
     19          1           0        3.348177    0.476163    0.484217
 ---------------------------------------------------------------------

 SCF Done:  E(UB3LYP) =  -440.129435613     A.U. after   31 cycles

 The electronic state is 2-A.
 Alpha  occ. eigenvalues --  -19.03489 -14.14827 -10.07325 -10.06227 -10.05992
 Alpha  occ. eigenvalues --  -10.05542 -10.04523 -10.02659 -10.02030  -9.98332
 Alpha  occ. eigenvalues --   -0.94567  -0.76476  -0.74259  -0.64365  -0.57522
 Alpha  occ. eigenvalues --   -0.56146  -0.47168  -0.44115  -0.42880  -0.39674
 Alpha  occ. eigenvalues --   -0.35252  -0.33636  -0.32402  -0.31631  -0.28341
 Alpha  occ. eigenvalues --   -0.26849  -0.25326  -0.25232  -0.22734  -0.21413
 Alpha  occ. eigenvalues --   -0.20802  -0.17178  -0.11241  -0.10854  -0.06310
 Alpha  occ. eigenvalues --   -0.03357   0.02259
 Alpha virt. eigenvalues --    0.07958   0.09432   0.09655   0.09943   0.11738
 Alpha virt. eigenvalues --    0.12511   0.12603   0.13142   0.14610   0.14886
 Alpha virt. eigenvalues --    0.16102   0.17046   0.17200   0.17967   0.18419

  Beta  occ. eigenvalues --  -19.03100 -14.14824 -10.07056 -10.06120 -10.06064
  Beta  occ. eigenvalues --  -10.05543 -10.03494 -10.02656 -10.02018  -9.98320
  Beta  occ. eigenvalues --   -0.93652  -0.75991  -0.74248  -0.64267  -0.57021
  Beta  occ. eigenvalues --   -0.55032  -0.47105  -0.43753  -0.42537  -0.39378
  Beta  occ. eigenvalues --   -0.35240  -0.33530  -0.31679  -0.31331  -0.26801
  Beta  occ. eigenvalues --   -0.25763  -0.25131  -0.24840  -0.22624  -0.21299
  Beta  occ. eigenvalues --   -0.20467  -0.16185  -0.11018  -0.10819  -0.05033
  Beta  occ. eigenvalues --   -0.02825
  Beta virt. eigenvalues --    0.07793   0.09428   0.09508   0.09819   0.11666
  Beta virt. eigenvalues --    0.12278   0.12571   0.12740   0.13760   0.14624
  Beta virt. eigenvalues --    0.15000   0.16230   0.17084   0.17313   0.17992

 Mulliken charges and spin densities:
               1          2
     1  C   -0.440958  -0.000268
     2  C   -0.022982   0.011627
     3  C    0.402096   0.258604
     4  C    1.203594  -0.260404
     5  C   -0.761874   0.762201
     6  C   -0.912245  -0.037120
     7  O   -0.142523   0.044935
     8  C   -0.512226   0.010124
     9  C   -0.524965  -0.015861
    10  N   -0.319575   0.001883
    11  H    0.076523   0.001856
    12  H   -0.029986   0.136233
    13  H    0.200444   0.069282
    14  H    0.149648  -0.001122
    15  H    0.073172   0.010204
    16  H    0.114353  -0.000305
    17  H    0.074374   0.001544
    18  H    0.175978   0.001290
    19  H    0.197153   0.005295
 Sum of Mulliken charges =  -1.00000   1.00000

 Dipole moment (field-independent basis, Debye):
    X=             -0.9318    Y=             -2.7903    Z=             -1.2736  Tot=              3.2057
 Quadrupole moment (field-independent basis, Debye-Ang):
   XX=            -98.8825   YY=            -70.9563   ZZ=            -72.9104
   XY=             -5.6799   XZ=             -0.8366   YZ=              1.1496

 Summary of Natural Population Analysis:

                                       Natural Population
                Natural  -----------------------------------------------
    Atom  No    Charge         Core      Valence    Rydberg      Total
 -----------------------------------------------------------------------
      C    1   -0.22262      0.99963     2.21064    0.01234     3.22262
      C    2   -0.14366      0.99947     2.12972    0.01447     3.14366
      C    3    0.12341      0.99948     1.86429    0.01281     2.87659
      C    4   -0.06523      0.99951     2.05174    0.01397     3.06523
      C    5    0.32948      0.99930     1.64832    0.02289     2.67052
      C    6   -0.09791      0.99934     2.08889    0.00968     3.09791
      O    7   -0.29114      0.99987     3.28460    0.00667     4.29114
      C    8   -0.19997      0.99960     2.18801    0.01236     3.19997
      C    9   -0.08453      0.99965     2.07586    0.00902     3.08453
      N   10   -0.43891      0.99977     2.92891    0.01023     3.93891
      H   11    0.05461      0.00000     0.44388    0.00150     0.44539
      H   12    0.10100      0.00000     0.39731    0.00169     0.39900
      H   13    0.22791      0.00000     0.26807    0.00403     0.27209
      H   14    0.09932      0.00000     0.39861    0.00207     0.40068
      H   15    0.09701      0.00000     0.40143    0.00156     0.40299
      H   16    0.07887      0.00000     0.41987    0.00126     0.42113
      H   17    0.07945      0.00000     0.41908    0.00147     0.42055
      H   18    0.15985      0.00000     0.33837    0.00178     0.34015
      H   19    0.19306      0.00000     0.30185    0.00508     0.30694
 =======================================================================
   * Total *   -0.00000      9.99561    25.85946    0.14493    36.00000

 Normal termination of Gaussian 16 at Tue Dec  8 10:41:59 2020.
