 Gaussian 16, Revision A.03,

 -----------------------------------------------------------
 # opt freq B3LYP/6-31G(d) empiricaldispersion=gd3bj scf=xqc
 -----------------------------------------------------------

 ------------------------------
 CID_23652280_JID_2275_neutraal
 ------------------------------
 Symbolic Z-matrix:
 Charge =  0 Multiplicity = 1

 SCF Done:  E(RB3LYP) =  -859.114540484     A.U. after   14 cycles
 SCF Done:  E(RB3LYP) =  -859.122429644     A.U. after   12 cycles
 SCF Done:  E(RB3LYP) =  -859.123300085     A.U. after   11 cycles
 SCF Done:  E(RB3LYP) =  -859.123701370     A.U. after   11 cycles
 SCF Done:  E(RB3LYP) =  -859.123909240     A.U. after   11 cycles
 SCF Done:  E(RB3LYP) =  -859.124037926     A.U. after   10 cycles
 SCF Done:  E(RB3LYP) =  -859.124095633     A.U. after   10 cycles
 SCF Done:  E(RB3LYP) =  -859.124108296     A.U. after   11 cycles
 SCF Done:  E(RB3LYP) =  -859.124114861     A.U. after   10 cycles
 SCF Done:  E(RB3LYP) =  -859.124138107     A.U. after   11 cycles
 SCF Done:  E(RB3LYP) =  -859.124242327     A.U. after   10 cycles
 SCF Done:  E(RB3LYP) =  -859.124198492     A.U. after   12 cycles
 SCF Done:  E(RB3LYP) =  -859.124254146     A.U. after   12 cycles
 SCF Done:  E(RB3LYP) =  -859.124255665     A.U. after    8 cycles
 SCF Done:  E(RB3LYP) =  -859.124256149     A.U. after    9 cycles
 SCF Done:  E(RB3LYP) =  -859.124256216     A.U. after    7 cycles
 Optimization completed.
    -- Stationary point found.
 Normal termination of Gaussian 16 at Wed Dec  9 17:09:27 2020.

 --------------------------------------------------------------------
 #N Geom=AllCheck Guess=TCheck SCRF=Check GenChk RB3LYP/6-31G(d) Freq
 --------------------------------------------------------------------

 Structure from the checkpoint file:  "JID_2275.chk"
 ------------------------------
 CID_23652280_JID_2275_neutraal
 ------------------------------
 Charge =  0 Multiplicity = 1

 SCF Done:  E(RB3LYP) =  -859.124256216     A.U. after    1 cycles

  Exact polarizability: 128.954  -8.504 140.052  -2.036  -2.263  89.175
 Approx polarizability: 161.005 -19.440 232.086  -5.984  -6.298 140.036

                      1                      2                      3
                      A                      A                      A
 Frequencies --     23.9961                51.9866                78.7562
 Red. masses --      3.3911                 4.3594                 3.9838
 Frc consts  --      0.0012                 0.0069                 0.0146
 IR Inten    --      1.1780                 1.6198                 3.1978

                      4                      5                      6
                      A                      A                      A
 Frequencies --    146.2977               162.2283               188.3010
 Red. masses --      2.2011                 2.7693                 2.8127
 Frc consts  --      0.0278                 0.0429                 0.0588
 IR Inten    --      0.6042                 0.3046                 3.5068

                      7                      8                      9
                      A                      A                      A
 Frequencies --    210.2174               218.9679               316.6953
 Red. masses --      4.4983                 2.3416                 3.6125
 Frc consts  --      0.1171                 0.0661                 0.2135
 IR Inten    --      2.1812                 4.3390                 4.7262

                     10                     11                     12
                      A                      A                      A
 Frequencies --    333.2475               408.7207               462.6805
 Red. masses --      2.8407                 2.2140                 2.8652
 Frc consts  --      0.1859                 0.2179                 0.3614
 IR Inten    --      3.2350                 1.4069                 2.1001

                     13                     14                     15
                      A                      A                      A
 Frequencies --    521.8639               588.7548               626.3366
 Red. masses --      3.4843                 1.6087                 2.4117
 Frc consts  --      0.5591                 0.3285                 0.5574
 IR Inten    --     52.3181                78.5597                21.9084

                     16                     17                     18
                      A                      A                      A
 Frequencies --    644.1319               665.2497               699.7299
 Red. masses --      7.3335                 2.4681                 3.5587
 Frc consts  --      1.7927                 0.6436                 1.0266
 IR Inten    --      1.2833                 3.4034                48.2261

                     19                     20                     21
                      A                      A                      A
 Frequencies --    776.4284               830.7150               853.7446
 Red. masses --      2.3533                 2.2216                 1.4653
 Frc consts  --      0.8359                 0.9033                 0.6293
 IR Inten    --      6.7069                 0.7864                 5.2373

                     22                     23                     24
                      A                      A                      A
 Frequencies --    888.7138               910.4108               917.6608
 Red. masses --      2.8098                 1.6450                 2.1037
 Frc consts  --      1.3075                 0.8033                 1.0438
 IR Inten    --      1.1407                 2.9947                 4.4857

                     25                     26                     27
                      A                      A                      A
 Frequencies --    926.2312               941.3799               972.6350
 Red. masses --      1.7908                 2.0962                 2.2343
 Frc consts  --      0.9052                 1.0945                 1.2454
 IR Inten    --      1.1695                 0.3658                 6.3056

                     28                     29                     30
                      A                      A                      A
 Frequencies --    993.4126              1043.3038              1052.4581
 Red. masses --      2.0759                 2.0644                 2.2412
 Frc consts  --      1.2070                 1.3239                 1.4627
 IR Inten    --      9.2726                 0.9270                 8.6052

                     31                     32                     33
                      A                      A                      A
 Frequencies --   1070.8496              1083.0045              1136.0394
 Red. masses --      2.9967                 1.7984                 1.6254
 Frc consts  --      2.0247                 1.2428                 1.2360
 IR Inten    --      7.5018                 4.5430                13.4895

                     34                     35                     36
                      A                      A                      A
 Frequencies --   1159.5894              1182.6238              1200.5382
 Red. masses --      1.2482                 1.8291                 1.6107
 Frc consts  --      0.9889                 1.5073                 1.3678
 IR Inten    --      3.1149                10.1443                 5.8911

                     37                     38                     39
                      A                      A                      A
 Frequencies --   1228.3525              1241.1309              1250.4017
 Red. masses --      1.1901                 1.9029                 1.3799
 Frc consts  --      1.0580                 1.7270                 1.2711
 IR Inten    --      4.5502                66.6527                40.8148

                     40                     41                     42
                      A                      A                      A
 Frequencies --   1262.9271              1272.0086              1302.8440
 Red. masses --      1.7073                 1.4118                 1.6920
 Frc consts  --      1.6044                 1.3459                 1.6921
 IR Inten    --      8.2065                19.9446                32.1590

                     43                     44                     45
                      A                      A                      A
 Frequencies --   1305.5107              1341.3614              1346.9158
 Red. masses --      1.7396                 1.4412                 1.5881
 Frc consts  --      1.7469                 1.5278                 1.6975
 IR Inten    --    116.2567                 1.9672                 4.5288

                     46                     47                     48
                      A                      A                      A
 Frequencies --   1354.2484              1375.8685              1390.7456
 Red. masses --      1.4561                 1.5908                 1.8130
 Frc consts  --      1.5734                 1.7743                 2.0661
 IR Inten    --      9.8811               113.0129                14.8719

                     49                     50                     51
                      A                      A                      A
 Frequencies --   1406.0120              1472.3856              1492.9928
 Red. masses --      1.3164                 1.8581                 1.3767
 Frc consts  --      1.5333                 2.3733                 1.8080
 IR Inten    --     26.5611                69.0133               107.9899

                     52                     53                     54
                      A                      A                      A
 Frequencies --   1512.8396              1517.5692              1523.7469
 Red. masses --      1.0847                 1.0958                 1.6703
 Frc consts  --      1.4627                 1.4869                 2.2849
 IR Inten    --      1.3012                 4.3781               152.4259

                     55                     56                     57
                      A                      A                      A
 Frequencies --   1536.4815              1549.2813              1558.3182
 Red. masses --      1.1091                 1.1734                 1.1654
 Frc consts  --      1.5426                 1.6594                 1.6674
 IR Inten    --      0.9047                27.6179                14.5668

                     58                     59                     60
                      A                      A                      A
 Frequencies --   1731.4663              3009.4411              3019.4144
 Red. masses --      6.9164                 1.0670                 1.0723
 Frc consts  --     12.2168                 5.6936                 5.7601
 IR Inten    --      1.9571                39.1872                69.4314

                     61                     62                     63
                      A                      A                      A
 Frequencies --   3021.1595              3039.2275              3044.6345
 Red. masses --      1.0695                 1.0652                 1.0704
 Frc consts  --      5.7515                 5.7972                 5.8460
 IR Inten    --     37.5491                40.1051                31.6303

                     64                     65                     66
                      A                      A                      A
 Frequencies --   3049.3261              3064.1681              3076.7232
 Red. masses --      1.0874                 1.0807                 1.0801
 Frc consts  --      5.9574                 5.9782                 6.0239
 IR Inten    --     26.3784                31.6222                66.6990

                     67                     68                     69
                      A                      A                      A
 Frequencies --   3103.6735              3115.4196              3118.9858
 Red. masses --      1.0971                 1.1040                 1.0969
 Frc consts  --      6.2263                 6.3131                 6.2869
 IR Inten    --     34.2133                38.4269                37.0028

                     70                     71                     72
                      A                      A                      A
 Frequencies --   3131.1419              3220.0612              3631.0706
 Red. masses --      1.0956                 1.0941                 1.0780
 Frc consts  --      6.3285                 6.6838                 8.3744
 IR Inten    --      2.2779                 5.8523                42.1175

 - Thermochemistry -
 -------------------
 Temperature   298.150 Kelvin.  Pressure   1.00000 Atm.
 Atom     1 has atomic number  6 and mass  12.00000

 Molecular mass:   182.08777 amu.
 Principal axes and moments of inertia in atomic units:
                           1         2         3
     Eigenvalues --  1366.792003261.139554076.71532
           X            0.99971  -0.02354   0.00559
           Y            0.02351   0.99972   0.00409
           Z           -0.00568  -0.00396   0.99998
 This molecule is an asymmetric top.
 Rotational symmetry number  1.
 Warning -- assumption of classical behavior for rotation
           may cause significant error
 Rotational temperatures (Kelvin)      0.06337     0.02656     0.02125
 Rotational constants (GHZ):           1.32042     0.55341     0.44269
 Zero-point vibrational energy     591587.8 (Joules/Mol)
                                  141.39288 (Kcal/Mol)
 Warning -- explicit consideration of  14 degrees of freedom as
           vibrations may cause significant error
 Vibrational temperatures:     34.52    74.80   113.31   210.49   233.41
          (Kelvin)            270.92   302.46   315.05   455.65   479.47
                              588.06   665.69   750.85   847.09   901.16
                              926.76   957.15  1006.76  1117.11  1195.21
                             1228.35  1278.66  1309.88  1320.31  1332.64
                             1354.44  1399.40  1429.30  1501.08  1514.25
                             1540.71  1558.20  1634.51  1668.39  1701.53
                             1727.31  1767.33  1785.71  1799.05  1817.07
                             1830.14  1874.50  1878.34  1929.92  1937.91
                             1948.46  1979.57  2000.97  2022.94  2118.43
                             2148.08  2176.64  2183.44  2192.33  2210.65
                             2229.07  2242.07  2491.19  4329.91  4344.26
                             4346.77  4372.77  4380.55  4387.30  4408.65
                             4426.72  4465.49  4482.39  4487.52  4505.01
                             4632.95  5224.30

 Zero-point correction=                           0.225324 (Hartree/Particle)
 Thermal correction to Energy=                    0.236737
 Thermal correction to Enthalpy=                  0.237682
 Thermal correction to Gibbs Free Energy=         0.186206
 Sum of electronic and zero-point Energies=           -858.898932
 Sum of electronic and thermal Energies=              -858.887519
 Sum of electronic and thermal Enthalpies=            -858.886575
 Sum of electronic and thermal Free Energies=         -858.938050

                     E (Thermal)             CV                S
                      KCal/Mol        Cal/Mol-Kelvin    Cal/Mol-Kelvin
 Total                  148.555             42.775            108.339
 Electronic               0.000              0.000              0.000
 Translational            0.889              2.981             41.504
 Rotational               0.889              2.981             31.275
 Vibrational            146.778             36.814             35.560
 Vibration     1          0.593              1.985              6.273
 Vibration     2          0.596              1.977              4.740
 Vibration     3          0.600              1.963              3.922
 Vibration     4          0.617              1.907              2.720
 Vibration     5          0.622              1.889              2.524
 Vibration     6          0.633              1.856              2.244
 Vibration     7          0.642              1.825              2.042
 Vibration     8          0.647              1.812              1.968
 Vibration     9          0.704              1.642              1.327
 Vibration    10          0.715              1.609              1.244
 Vibration    11          0.773              1.451              0.931
 Vibration    12          0.820              1.333              0.758
 Vibration    13          0.877              1.202              0.606
 Vibration    14          0.946              1.056              0.469

 Optimization completed.
    -- Stationary point found.
 Normal termination of Gaussian 16 at Wed Dec  9 17:16:17 2020.

 ----------------------------------------------------------------------
 # B3LYP/6-311++G(d,p) empiricaldispersion=gd3bj scf=xqc pop=npa geom=c
 heck
 ----------------------------------------------------------------------

 --------------------------------------
 CID_23652280_JID_2275_Energie_neutraal
 --------------------------------------
 Structure from the checkpoint file:  "JID_2275.chk"
 Charge =  0 Multiplicity = 1

 SCF Done:  E(RB3LYP) =  -859.275043164     A.U. after   14 cycles
 Normal termination of Gaussian 16 at Wed Dec  9 17:19:15 2020.

 ----------------------------------------------------------------------
 # B3LYP/6-311++G(d,p) empiricaldispersion=gd3bj scf=xqc pop=npa geom=c
 heck
 ----------------------------------------------------------------------

 ------------------------------------
 CID_23652280_JID_2275_Energie_kation
 ------------------------------------
 Structure from the checkpoint file:  "JID_2275.chk"
 Charge =  1 Multiplicity = 2

 SCF Done:  E(UB3LYP) =  -858.994579937     A.U. after   23 cycles
 Normal termination of Gaussian 16 at Wed Dec  9 17:26:11 2020.
 Gaussian 16:  ES64L-G16RevA.03 25-Dec-2016

 ----------------------------------------------------------------------
 # B3LYP/6-311++G(d,p) empiricaldispersion=gd3bj scf=xqc pop=npa geom=c
 heck
 ----------------------------------------------------------------------

 -----------------------------------
 CID_23652280_JID_2275_Energie_anion
 -----------------------------------
 Structure from the checkpoint file:  "JID_2275.chk"
 Charge = -1 Multiplicity = 2

                         Standard orientation:
 ---------------------------------------------------------------------
 Center     Atomic      Atomic             Coordinates (Angstroms)
 Number     Number       Type             X           Y           Z
 ---------------------------------------------------------------------
      1          6           0       -3.436644   -0.776736   -0.568101
      2          6           0       -3.310482    0.767447   -0.618440
      3          6           0       -2.133770    1.037847    0.286062
      4          6           0       -1.438817   -0.071128    0.561291
      5          6           0       -2.036568   -1.277916   -0.138155
      6          6           0       -0.190777   -0.129499    1.397064
      7          7           0        1.018052   -0.436589    0.636374
      8          6           0        1.383412   -1.797721    0.248848
      9          6           0        2.741934   -1.572970   -0.434627
     10          7           0        2.583224   -0.197913   -0.902839
     11          6           0        1.692010    0.486210   -0.107214
     12         16           0        1.509154    2.146363   -0.078929
     13          1           0       -3.772859   -1.210550   -1.514531
     14          1           0       -4.168551   -1.053538    0.199037
     15          1           0       -3.096129    1.124895   -1.636979
     16          1           0       -4.228378    1.275481   -0.298606
     17          1           0       -1.855312    2.031207    0.623324
     18          1           0       -2.082764   -2.169603    0.501467
     19          1           0       -1.429336   -1.553693   -1.014041
     20          1           0       -0.021935    0.833706    1.883709
     21          1           0       -0.275157   -0.900014    2.174679
     22          1           0        0.650730   -2.220440   -0.451740
     23          1           0        1.445771   -2.451832    1.123778
     24          1           0        2.917013   -2.265765   -1.261648
     25          1           0        3.567091   -1.664078    0.287108
     26          1           0        3.372642    0.330725   -1.247801
 ---------------------------------------------------------------------

 SCF Done:  E(UB3LYP) =  -859.265361994     A.U. after   28 cycles

 The electronic state is 2-A.
 Alpha  occ. eigenvalues --  -88.68457 -14.25028 -14.23843 -10.17609 -10.11221
 Alpha  occ. eigenvalues --  -10.11161 -10.11088 -10.07872 -10.07590 -10.07553
 Alpha  occ. eigenvalues --  -10.07297 -10.06829  -7.77246  -5.73669  -5.73066
 Alpha  occ. eigenvalues --   -5.72774  -0.91395  -0.80608  -0.75139  -0.68673
 Alpha  occ. eigenvalues --   -0.65640  -0.61374  -0.59595  -0.57507  -0.54041
 Alpha  occ. eigenvalues --   -0.48923  -0.47558  -0.42554  -0.41292  -0.40847
 Alpha  occ. eigenvalues --   -0.38785  -0.37758  -0.37354  -0.33804  -0.31900
 Alpha  occ. eigenvalues --   -0.30818  -0.30335  -0.29160  -0.28174  -0.26618
 Alpha  occ. eigenvalues --   -0.26342  -0.25490  -0.25270  -0.25004  -0.24136
 Alpha  occ. eigenvalues --   -0.15523  -0.13924  -0.11875  -0.10951   0.04287
 Alpha virt. eigenvalues --    0.06502   0.07510   0.08006   0.08814   0.09139
 Alpha virt. eigenvalues --    0.09203   0.09462   0.10493   0.10696   0.11007
 Alpha virt. eigenvalues --    0.11698   0.11901   0.12358   0.13381   0.14370

  Beta  occ. eigenvalues --  -88.68456 -14.25028 -14.23833 -10.17605 -10.11206
  Beta  occ. eigenvalues --  -10.11115 -10.11034 -10.07866 -10.07586 -10.07539
  Beta  occ. eigenvalues --  -10.07271 -10.06822  -7.77244  -5.73666  -5.73064
  Beta  occ. eigenvalues --   -5.72773  -0.91376  -0.80584  -0.75119  -0.68623
  Beta  occ. eigenvalues --   -0.65611  -0.61338  -0.59566  -0.57466  -0.53941
  Beta  occ. eigenvalues --   -0.48874  -0.47524  -0.42518  -0.41248  -0.40783
  Beta  occ. eigenvalues --   -0.38753  -0.37736  -0.37296  -0.33743  -0.31854
  Beta  occ. eigenvalues --   -0.30787  -0.30303  -0.29103  -0.28114  -0.26593
  Beta  occ. eigenvalues --   -0.26315  -0.25461  -0.25240  -0.24977  -0.24111
  Beta  occ. eigenvalues --   -0.15492  -0.13898  -0.11865  -0.10943
  Beta virt. eigenvalues --    0.06556   0.07508   0.08269   0.08449   0.09007
  Beta virt. eigenvalues --    0.09436   0.09800   0.10072   0.10596   0.10959
  Beta virt. eigenvalues --    0.11519   0.11990   0.12352   0.12789   0.13638

 Mulliken charges and spin densities:
               1          2
     1  C   -0.499421   0.020826
     2  C   -0.066762  -0.508287
     3  C   -0.510553   0.212679
     4  C    0.352686   0.883164
     5  C    0.836321  -1.248856
     6  C   -0.467667  -0.354881
     7  N    0.122121   0.170354
     8  C   -0.101810  -0.231074
     9  C    1.974235  -2.257387
    10  N   -0.310232   0.299723
    11  C    0.133618  -0.165220
    12  S   -0.352909  -0.330760
    13  H   -0.103606   0.252385
    14  H    0.069739   0.075004
    15  H    0.077690   0.053130
    16  H    0.045736   0.084056
    17  H    0.142327   0.010298
    18  H   -0.390610   0.565674
    19  H    0.118207   0.012018
    20  H    0.072726   0.106845
    21  H   -0.186014   0.374749
    22  H    0.110370   0.052928
    23  H   -0.798543   0.986038
    24  H   -1.030527   1.227474
    25  H   -0.303304   0.498883
    26  H    0.066181   0.210237
 Sum of Mulliken charges =  -1.00000   1.00000

 Dipole moment (field-independent basis, Debye):
    X=             -5.0210    Y=              5.3159    Z=             -0.2206  Tot=              7.3156
 Quadrupole moment (field-independent basis, Debye-Ang):
   XX=           -134.9478   YY=           -139.6688   ZZ=           -112.4279
   XY=              7.2131   XZ=              0.8827   YZ=              2.3728

 Summary of Natural Population Analysis:

                                       Natural Population
                Natural  -----------------------------------------------
    Atom  No    Charge         Core      Valence    Rydberg      Total
 -----------------------------------------------------------------------
      C    1   -0.18545      0.99965     2.17775    0.00804     3.18545
      C    2   -0.20400      0.99964     2.19748    0.00688     3.20400
      C    3   -0.08402      0.99944     2.07683    0.00775     3.08402
      C    4   -0.01556      0.99946     2.00514    0.01096     3.01556
      C    5   -0.20379      0.99960     2.19546    0.00873     3.20379
      C    6   -0.09574      0.99955     2.08307    0.01312     3.09574
      N    7   -0.24892      0.99961     2.73455    0.01476     3.74892
      C    8   -0.08087      0.99961     2.07009    0.01117     3.08087
      C    9   -0.08537      0.99963     2.07484    0.01090     3.08537
      N   10   -0.31579      0.99966     2.80417    0.01196     3.81579
      C   11    0.15567      0.99960     1.82210    0.02264     2.84433
      S   12   -0.14540      4.99957     3.13293    0.01290     8.14540
      H   13    0.09772      0.00000     0.40134    0.00094     0.40228
      H   14    0.09495      0.00000     0.40391    0.00114     0.40505
      H   15    0.09841      0.00000     0.40027    0.00132     0.40159
      H   16    0.09607      0.00000     0.40260    0.00133     0.40393
      H   17    0.10306      0.00000     0.39602    0.00092     0.39694
      H   18    0.10346      0.00000     0.39479    0.00175     0.39654
      H   19    0.10101      0.00000     0.39752    0.00147     0.39899
      H   20    0.11478      0.00000     0.38403    0.00119     0.38522
      H   21    0.10329      0.00000     0.39529    0.00142     0.39671
      H   22    0.09491      0.00000     0.40254    0.00255     0.40509
      H   23    0.10664      0.00000     0.38808    0.00528     0.39336
      H   24    0.10447      0.00000     0.39144    0.00409     0.39553
      H   25    0.09252      0.00000     0.40417    0.00331     0.40748
      H   26    0.19796      0.00000     0.29974    0.00230     0.30204
 =======================================================================
   * Total *   -0.00000     15.99500    32.83618    0.16882    49.00000

 Normal termination of Gaussian 16 at Wed Dec  9 17:34:48 2020.
