 Gaussian 16, Revision A.03,

 -----------------------------------------------------------
 # opt freq B3LYP/6-31G(d) empiricaldispersion=gd3bj scf=xqc
 -----------------------------------------------------------

 -------------------------------
 CID_113621636_JID_8796_neutraal
 -------------------------------
 Symbolic Z-matrix:
 Charge =  0 Multiplicity = 1

 SCF Done:  E(RB3LYP) =  -1132.36205002     A.U. after   14 cycles
 SCF Done:  E(RB3LYP) =  -1132.36621907     A.U. after   11 cycles
 SCF Done:  E(RB3LYP) =  -1132.36663893     A.U. after   11 cycles
 SCF Done:  E(RB3LYP) =  -1132.36680698     A.U. after   11 cycles
 SCF Done:  E(RB3LYP) =  -1132.36687941     A.U. after   10 cycles
 SCF Done:  E(RB3LYP) =  -1132.36692063     A.U. after   11 cycles
 SCF Done:  E(RB3LYP) =  -1132.36692399     A.U. after    8 cycles
 SCF Done:  E(RB3LYP) =  -1132.36692566     A.U. after    7 cycles
 SCF Done:  E(RB3LYP) =  -1132.36692901     A.U. after    9 cycles
 SCF Done:  E(RB3LYP) =  -1132.36693314     A.U. after    9 cycles
 SCF Done:  E(RB3LYP) =  -1132.36697374     A.U. after   10 cycles
 SCF Done:  E(RB3LYP) =  -1132.36697533     A.U. after    9 cycles
 SCF Done:  E(RB3LYP) =  -1132.36697562     A.U. after    7 cycles
 SCF Done:  E(RB3LYP) =  -1132.36697577     A.U. after    7 cycles
 SCF Done:  E(RB3LYP) =  -1132.36697584     A.U. after    6 cycles
 Optimization completed.
    -- Stationary point found.
 Normal termination of Gaussian 16 at Fri Dec 11 22:20:42 2020.

 --------------------------------------------------------------------
 #N Geom=AllCheck Guess=TCheck SCRF=Check GenChk RB3LYP/6-31G(d) Freq
 --------------------------------------------------------------------

 Structure from the checkpoint file:  "JID_8796.chk"
 -------------------------------
 CID_113621636_JID_8796_neutraal
 -------------------------------
 Charge =  0 Multiplicity = 1

 SCF Done:  E(RB3LYP) =  -1132.36697584     A.U. after    1 cycles

  Exact polarizability: 220.740  -4.005 166.055   1.364   7.623 136.224
 Approx polarizability: 293.455   0.017 270.171   7.810  28.065 213.400

                      1                      2                      3
                      A                      A                      A
 Frequencies --     31.4067                37.6658                73.1041
 Red. masses --      1.0758                 3.4736                 4.4683
 Frc consts  --      0.0006                 0.0029                 0.0141
 IR Inten    --      0.1952                 0.5246                 0.7104

                      4                      5                      6
                      A                      A                      A
 Frequencies --     97.4924               120.5604               129.8640
 Red. masses --      4.3893                 3.1218                 4.1286
 Frc consts  --      0.0246                 0.0267                 0.0410
 IR Inten    --      0.7865                 0.8622                 1.9511

                      7                      8                      9
                      A                      A                      A
 Frequencies --    146.9113               176.4840               202.5773
 Red. masses --      3.4255                 3.3860                 1.7449
 Frc consts  --      0.0436                 0.0621                 0.0422
 IR Inten    --      0.9461                 0.2787                 0.4681

                     10                     11                     12
                      A                      A                      A
 Frequencies --    226.8394               247.6517               274.8137
 Red. masses --      2.4986                 2.4159                 2.6048
 Frc consts  --      0.0758                 0.0873                 0.1159
 IR Inten    --      0.7005                 1.0387                 1.4547

                     13                     14                     15
                      A                      A                      A
 Frequencies --    302.6545               329.6377               331.4377
 Red. masses --      2.2444                 2.9805                 2.4150
 Frc consts  --      0.1211                 0.1908                 0.1563
 IR Inten    --      5.1544                 2.4728                19.8539

                     16                     17                     18
                      A                      A                      A
 Frequencies --    348.6307               361.3517               369.3087
 Red. masses --      2.2233                 3.4111                 2.0233
 Frc consts  --      0.1592                 0.2624                 0.1626
 IR Inten    --     23.9857                 5.0007                56.9926

                     19                     20                     21
                      A                      A                      A
 Frequencies --    393.3314               416.1346               435.8933
 Red. masses --      4.3261                 3.1727                 3.5890
 Frc consts  --      0.3943                 0.3237                 0.4018
 IR Inten    --      3.6931                 1.0127                 2.2307

                     22                     23                     24
                      A                      A                      A
 Frequencies --    456.5205               491.0152               500.9217
 Red. masses --      2.4250                 3.8793                 4.7469
 Frc consts  --      0.2978                 0.5511                 0.7018
 IR Inten    --      1.2738                11.1046                 1.3178

                     25                     26                     27
                      A                      A                      A
 Frequencies --    537.7962               550.3993               586.2073
 Red. masses --      3.8387                 3.3981                 3.0426
 Frc consts  --      0.6541                 0.6065                 0.6160
 IR Inten    --      5.8551                 3.3369                 1.0160

                     28                     29                     30
                      A                      A                      A
 Frequencies --    625.2365               632.5816               682.0094
 Red. masses --      3.4892                 3.3649                 4.3721
 Frc consts  --      0.8036                 0.7933                 1.1982
 IR Inten    --      1.1029                 1.4056                 2.7645

                     31                     32                     33
                      A                      A                      A
 Frequencies --    711.0479               726.5723               748.4759
 Red. masses --      3.7077                 4.9469                 3.5555
 Frc consts  --      1.1045                 1.5386                 1.1736
 IR Inten    --      5.4270                 0.5131                 2.8306

                     34                     35                     36
                      A                      A                      A
 Frequencies --    775.9334               815.6091               839.2316
 Red. masses --      3.6872                 3.1178                 1.4389
 Frc consts  --      1.3080                 1.2220                 0.5971
 IR Inten    --      0.6348                 8.9392                24.4213

                     37                     38                     39
                      A                      A                      A
 Frequencies --    856.6049               891.7982               914.4681
 Red. masses --      1.6581                 2.2941                 1.5754
 Frc consts  --      0.7168                 1.0749                 0.7762
 IR Inten    --      0.5329                 1.4696                 5.2321

                     40                     41                     42
                      A                      A                      A
 Frequencies --    920.7555               930.1574               950.9436
 Red. masses --      2.0047                 3.3674                 2.0402
 Frc consts  --      1.0014                 1.7165                 1.0870
 IR Inten    --      7.6605                 5.9555                20.6684

                     43                     44                     45
                      A                      A                      A
 Frequencies --    959.5385               987.5985              1014.1866
 Red. masses --      1.3883                 2.0699                 1.8153
 Frc consts  --      0.7531                 1.1895                 1.1001
 IR Inten    --      4.0804                39.7830                13.2036

                     46                     47                     48
                      A                      A                      A
 Frequencies --   1026.1293              1043.4499              1058.9437
 Red. masses --      1.5553                 2.0777                 2.2482
 Frc consts  --      0.9649                 1.3328                 1.4853
 IR Inten    --     12.0153                 4.5106                77.5876

                     49                     50                     51
                      A                      A                      A
 Frequencies --   1076.4374              1078.9762              1094.3229
 Red. masses --      1.4869                 1.9373                 2.7674
 Frc consts  --      1.0151                 1.3288                 1.9526
 IR Inten    --      3.7259                 5.4669                51.1793

                     52                     53                     54
                      A                      A                      A
 Frequencies --   1107.9646              1115.3332              1118.1920
 Red. masses --      2.5156                 1.5142                 1.9656
 Frc consts  --      1.8195                 1.1098                 1.4481
 IR Inten    --     12.6039                 1.2523                19.0575

                     55                     56                     57
                      A                      A                      A
 Frequencies --   1153.7502              1166.5247              1181.8063
 Red. masses --      1.8792                 1.6767                 1.6545
 Frc consts  --      1.4738                 1.3443                 1.3615
 IR Inten    --      7.1243                12.8239                 7.0659

                     58                     59                     60
                      A                      A                      A
 Frequencies --   1217.9100              1238.9303              1253.9180
 Red. masses --      1.6909                 1.3202                 1.5677
 Frc consts  --      1.4778                 1.1939                 1.4522
 IR Inten    --     32.0977                 2.7555                11.4042

                     61                     62                     63
                      A                      A                      A
 Frequencies --   1262.3112              1277.9168              1286.4554
 Red. masses --      1.9918                 1.6069                 2.2203
 Frc consts  --      1.8699                 1.5461                 2.1650
 IR Inten    --     66.2255                 5.1068               154.3575

                     64                     65                     66
                      A                      A                      A
 Frequencies --   1296.4076              1310.2107              1325.6702
 Red. masses --      1.7843                 1.4306                 1.4613
 Frc consts  --      1.7669                 1.4469                 1.5131
 IR Inten    --     30.3699                40.1737                23.9203

                     67                     68                     69
                      A                      A                      A
 Frequencies --   1341.3651              1357.8470              1366.5571
 Red. masses --      1.3166                 2.0596                 2.7152
 Frc consts  --      1.3958                 2.2373                 2.9875
 IR Inten    --     12.6771                27.0088                 9.5266

                     70                     71                     72
                      A                      A                      A
 Frequencies --   1369.1298              1396.4604              1407.4369
 Red. masses --      1.4461                 1.5037                 1.5182
 Frc consts  --      1.5971                 1.7277                 1.7719
 IR Inten    --      5.7624                10.7869                 1.6475

                     73                     74                     75
                      A                      A                      A
 Frequencies --   1411.7951              1437.4377              1444.0802
 Red. masses --      1.4056                 1.2353                 1.2491
 Frc consts  --      1.6507                 1.5039                 1.5347
 IR Inten    --      9.0392                10.0635                 2.6776

                     76                     77                     78
                      A                      A                      A
 Frequencies --   1454.5273              1465.9731              1497.3822
 Red. masses --      1.2133                 3.2406                 1.0895
 Frc consts  --      1.5124                 4.1032                 1.4393
 IR Inten    --     57.5542                31.1710                 4.0500

                     79                     80                     81
                      A                      A                      A
 Frequencies --   1506.5347              1509.9947              1515.8935
 Red. masses --      1.0860                 1.0901                 1.0445
 Frc consts  --      1.4522                 1.4645                 1.4141
 IR Inten    --      7.4929                 1.5120                 4.7496

                     82                     83                     84
                      A                      A                      A
 Frequencies --   1516.5653              1529.6223              1531.3332
 Red. masses --      1.0993                 1.1423                 1.0594
 Frc consts  --      1.4897                 1.5748                 1.4637
 IR Inten    --      3.7212                20.4330                 1.7357

                     85                     86                     87
                      A                      A                      A
 Frequencies --   1535.3967              1545.5772              1637.5035
 Red. masses --      1.0455                 2.8203                 6.8104
 Frc consts  --      1.4521                 3.9694                10.7594
 IR Inten    --      4.4296               173.4871                14.7453

                     88                     89                     90
                      A                      A                      A
 Frequencies --   1678.9555              3037.6269              3040.6665
 Red. masses --      6.2193                 1.0698                 1.0377
 Frc consts  --     10.3292                 5.8160                 5.6529
 IR Inten    --     22.8359                 7.8439                47.0923

                     91                     92                     93
                      A                      A                      A
 Frequencies --   3041.7610              3048.3726              3049.9037
 Red. masses --      1.0674                 1.0683                 1.0795
 Frc consts  --      5.8186                 5.8487                 5.9164
 IR Inten    --     18.0214                45.1595                32.3181

                     94                     95                     96
                      A                      A                      A
 Frequencies --   3061.0027              3066.9373              3073.0288
 Red. masses --      1.0801                 1.0517                 1.0481
 Frc consts  --      5.9627                 5.8285                 5.8313
 IR Inten    --     20.0667                 0.2232                37.6165

                     97                     98                     99
                      A                      A                      A
 Frequencies --   3090.5555              3102.9041              3109.6841
 Red. masses --      1.1009                 1.0941                 1.0954
 Frc consts  --      6.1957                 6.2066                 6.2408
 IR Inten    --     22.8833                13.8427                28.2952

                    100                    101                    102
                      A                      A                      A
 Frequencies --   3116.3192              3117.4246              3124.3147
 Red. masses --      1.1030                 1.1010                 1.1004
 Frc consts  --      6.3113                 6.3044                 6.3288
 IR Inten    --     13.9488                42.4072                17.0877

                    103                    104                    105
                      A                      A                      A
 Frequencies --   3134.0181              3153.6384              3179.6760
 Red. masses --      1.1017                 1.1030                 1.0889
 Frc consts  --      6.3754                 6.4632                 6.4861
 IR Inten    --     25.6721                13.2329                18.6122

                    106                    107                    108
                      A                      A                      A
 Frequencies --   3191.3669              3214.8126              3716.8867
 Red. masses --      1.0895                 1.0931                 1.0657
 Frc consts  --      6.5380                 6.6564                 8.6748
 IR Inten    --      8.8725                 6.7322                10.3226

 - Thermochemistry -
 -------------------
 Temperature   298.150 Kelvin.  Pressure   1.00000 Atm.
 Atom     1 has atomic number  6 and mass  12.00000

 Molecular mass:   264.11840 amu.
 Principal axes and moments of inertia in atomic units:
                           1         2         3
     Eigenvalues --  2515.086427361.505748189.51097
           X            0.99990  -0.01371  -0.00418
           Y            0.01354   0.99913  -0.03941
           Z            0.00471   0.03935   0.99921
 This molecule is an asymmetric top.
 Rotational symmetry number  1.
 Warning -- assumption of classical behavior for rotation
           may cause significant error
 Rotational temperatures (Kelvin)      0.03444     0.01177     0.01058
 Rotational constants (GHZ):           0.71757     0.24516     0.22037
 Zero-point vibrational energy     855205.5 (Joules/Mol)
                                  204.39901 (Kcal/Mol)
 Warning -- explicit consideration of  27 degrees of freedom as
           vibrations may cause significant error
 Vibrational temperatures:     45.19    54.19   105.18   140.27   173.46
          (Kelvin)            186.85   211.37   253.92   291.46   326.37
                              356.32   395.40   435.45   474.28   476.86
                              501.60   519.90   531.35   565.92   598.72
                              627.15   656.83   706.46   720.71   773.77
                              791.90   843.42   899.58   910.14   981.26
                             1023.04  1045.38  1076.89  1116.40  1173.48
                             1207.47  1232.46  1283.10  1315.72  1324.76
                             1338.29  1368.20  1380.56  1420.93  1459.19
                             1476.37  1501.29  1523.58  1548.75  1552.41
                             1574.49  1594.11  1604.72  1608.83  1659.99
                             1678.37  1700.36  1752.30  1782.54  1804.11
                             1816.18  1838.64  1850.92  1865.24  1885.10
                             1907.34  1929.93  1953.64  1966.17  1969.87
                             2009.20  2024.99  2031.26  2068.15  2077.71
                             2092.74  2109.21  2154.40  2167.57  2172.55
                             2181.03  2182.00  2200.79  2203.25  2209.09
                             2223.74  2356.00  2415.64  4370.47  4374.84
                             4376.42  4385.93  4388.13  4404.10  4412.64
                             4421.40  4446.62  4464.39  4474.14  4483.69
                             4485.28  4495.19  4509.15  4537.38  4574.84
                             4591.67  4625.40  5347.77

 Zero-point correction=                           0.325731 (Hartree/Particle)
 Thermal correction to Energy=                    0.342769
 Thermal correction to Enthalpy=                  0.343713
 Thermal correction to Gibbs Free Energy=         0.281068
 Sum of electronic and zero-point Energies=          -1132.041245
 Sum of electronic and thermal Energies=             -1132.024207
 Sum of electronic and thermal Enthalpies=           -1132.023263
 Sum of electronic and thermal Free Energies=        -1132.085908

                     E (Thermal)             CV                S
                      KCal/Mol        Cal/Mol-Kelvin    Cal/Mol-Kelvin
 Total                  215.091             67.538            131.847
 Electronic               0.000              0.000              0.000
 Translational            0.889              2.981             42.613
 Rotational               0.889              2.981             33.383
 Vibrational            213.313             61.576             55.851
 Vibration     1          0.594              1.983              5.739
 Vibration     2          0.594              1.982              5.378
 Vibration     3          0.599              1.967              4.068
 Vibration     4          0.603              1.951              3.504
 Vibration     5          0.609              1.932              3.091
 Vibration     6          0.612              1.923              2.948
 Vibration     7          0.617              1.906              2.712
 Vibration     8          0.628              1.871              2.365
 Vibration     9          0.639              1.836              2.110
 Vibration    10          0.650              1.800              1.904
 Vibration    11          0.661              1.767              1.747
 Vibration    12          0.677              1.720              1.566
 Vibration    13          0.694              1.669              1.402
 Vibration    14          0.712              1.616              1.262
 Vibration    15          0.714              1.613              1.253
 Vibration    16          0.726              1.578              1.172
 Vibration    17          0.736              1.552              1.116
 Vibration    18          0.742              1.535              1.083
 Vibration    19          0.761              1.484              0.987
 Vibration    20          0.779              1.435              0.905
 Vibration    21          0.796              1.392              0.840
 Vibration    22          0.815              1.346              0.776
 Vibration    23          0.847              1.270              0.681
 Vibration    24          0.856              1.248              0.656
 Vibration    25          0.893              1.166              0.570
 Vibration    26          0.906              1.139              0.543
 Vibration    27          0.943              1.061              0.474

                           ! Non-Optimized Parameters !
 Normal termination of Gaussian 16 at Fri Dec 11 22:39:43 2020.

 ----------------------------------------------------------------------
 # B3LYP/6-311++G(d,p) empiricaldispersion=gd3bj scf=xqc pop=npa geom=c
 heck
 ----------------------------------------------------------------------

 ---------------------------------------
 CID_113621636_JID_8796_Energie_neutraal
 ---------------------------------------
 Structure from the checkpoint file:  "JID_8796.chk"
 Charge =  0 Multiplicity = 1

 SCF Done:  E(RB3LYP) =  -1132.59561556     A.U. after   15 cycles
 Normal termination of Gaussian 16 at Fri Dec 11 22:48:41 2020.

 ----------------------------------------------------------------------
 # B3LYP/6-311++G(d,p) empiricaldispersion=gd3bj scf=xqc pop=npa geom=c
 heck
 ----------------------------------------------------------------------

 -------------------------------------
 CID_113621636_JID_8796_Energie_kation
 -------------------------------------
 Structure from the checkpoint file:  "JID_8796.chk"
 Charge =  1 Multiplicity = 2

 SCF Done:  E(UB3LYP) =  -1132.32132619     A.U. after   24 cycles
 Normal termination of Gaussian 16 at Fri Dec 11 23:09:25 2020.
 Gaussian 16:  ES64L-G16RevA.03 25-Dec-2016

 ----------------------------------------------------------------------
 # B3LYP/6-311++G(d,p) empiricaldispersion=gd3bj scf=xqc pop=npa geom=c
 heck
 ----------------------------------------------------------------------

 ------------------------------------
 CID_113621636_JID_8796_Energie_anion
 ------------------------------------
 Structure from the checkpoint file:  "JID_8796.chk"
 Charge = -1 Multiplicity = 2

                         Standard orientation:
 ---------------------------------------------------------------------
 Center     Atomic      Atomic             Coordinates (Angstroms)
 Number     Number       Type             X           Y           Z
 ---------------------------------------------------------------------
      1          6           0       -2.378193    1.065806   -2.100399
      2          6           0       -2.500840    0.680841   -0.623208
      3          6           0       -1.143590    0.556216    0.109323
      4          6           0       -1.331235    0.133238    1.582875
      5          6           0       -2.056734   -1.200371    1.778337
      6          6           0       -3.478719   -1.177111    1.226935
      7         16           0       -3.499293   -0.869991   -0.575517
      8          6           0       -0.365559    1.880154    0.021482
      9          6           0        1.023601    1.774089    0.659394
     10          6           0        1.695383    0.496428    0.201263
     11          6           0        0.946252   -0.533995   -0.383045
     12          8           0       -0.405468   -0.470768   -0.583606
     13          6           0        1.582419   -1.700533   -0.823355
     14          6           0        2.956830   -1.836946   -0.683958
     15          6           0        3.734552   -0.823593   -0.100503
     16          6           0        3.080165    0.329240    0.330954
     17          6           0        5.227755   -0.984749    0.051882
     18          8           0        1.812075    2.932117    0.387084
     19          1           0       -3.359827    1.030508   -2.582553
     20          1           0       -1.710032    0.373036   -2.618507
     21          1           0       -1.990862    2.081923   -2.217323
     22          1           0       -3.072438    1.451619   -0.090986
     23          1           0       -1.876779    0.935408    2.099203
     24          1           0       -0.347829    0.066125    2.057472
     25          1           0       -2.089671   -1.430068    2.851673
     26          1           0       -1.488239   -1.998062    1.289342
     27          1           0       -3.977187   -2.140692    1.370031
     28          1           0       -4.080033   -0.412933    1.735913
     29          1           0       -0.224072    2.138683   -1.033220
     30          1           0       -0.933032    2.692321    0.487039
     31          1           0        0.932875    1.780745    1.751334
     32          1           0        0.976621   -2.480022   -1.274233
     33          1           0        3.437819   -2.748234   -1.031931
     34          1           0        3.649956    1.142231    0.773286
     35          1           0        5.476484   -1.832240    0.703075
     36          1           0        5.713694   -1.169489   -0.914174
     37          1           0        5.680789   -0.088562    0.486935
     38          1           0        2.065071    2.884477   -0.549793
 ---------------------------------------------------------------------

 SCF Done:  E(UB3LYP) =  -1132.58327632     A.U. after   33 cycles
 SCF Done:  E(UB3LYP) =  -1132.58327632     a.u. after    1 cycles

 The electronic state is 2-A.
 Alpha  occ. eigenvalues --  -88.73972 -19.05112 -19.03022 -10.15041 -10.13574
 Alpha  occ. eigenvalues --  -10.13317 -10.11547 -10.10319 -10.08231 -10.07886
 Alpha  occ. eigenvalues --  -10.07786 -10.07746 -10.07719 -10.07661 -10.07619
 Alpha  occ. eigenvalues --  -10.07590 -10.07393 -10.07355  -7.82626  -5.79016
 Alpha  occ. eigenvalues --   -5.78670  -5.77974  -0.97329  -0.93292  -0.76681
 Alpha  occ. eigenvalues --   -0.75120  -0.70364  -0.69144  -0.67902  -0.65565
 Alpha  occ. eigenvalues --   -0.62720  -0.60230  -0.58072  -0.55445  -0.52923
 Alpha  occ. eigenvalues --   -0.51596  -0.50491  -0.48492  -0.45771  -0.41719
 Alpha  occ. eigenvalues --   -0.40473  -0.39548  -0.38222  -0.37958  -0.36634
 Alpha  occ. eigenvalues --   -0.35587  -0.35176  -0.34679  -0.33716  -0.32946
 Alpha  occ. eigenvalues --   -0.32405  -0.31585  -0.31203  -0.30211  -0.29592
 Alpha  occ. eigenvalues --   -0.28680  -0.27887  -0.27147  -0.26914  -0.26506
 Alpha  occ. eigenvalues --   -0.25966  -0.25471  -0.24888  -0.23152  -0.22574
 Alpha  occ. eigenvalues --   -0.20968  -0.20615  -0.18610  -0.15549  -0.13048
 Alpha  occ. eigenvalues --   -0.12125   0.04205
 Alpha virt. eigenvalues --    0.05758   0.06382   0.06909   0.07485   0.07873
 Alpha virt. eigenvalues --    0.08320   0.08366   0.09060   0.09567   0.09921
 Alpha virt. eigenvalues --    0.10361   0.10609   0.10869   0.11067   0.11668

  Beta  occ. eigenvalues --  -88.73971 -19.05105 -19.02996 -10.15041 -10.13569
  Beta  occ. eigenvalues --  -10.13307 -10.11535 -10.10300 -10.08245 -10.07856
  Beta  occ. eigenvalues --  -10.07771 -10.07723 -10.07699 -10.07639 -10.07609
  Beta  occ. eigenvalues --  -10.07531 -10.07374 -10.07315  -7.82625  -5.79016
  Beta  occ. eigenvalues --   -5.78669  -5.77973  -0.97312  -0.93232  -0.76633
  Beta  occ. eigenvalues --   -0.75086  -0.70321  -0.69108  -0.67870  -0.65494
  Beta  occ. eigenvalues --   -0.62674  -0.60193  -0.58024  -0.55377  -0.52872
  Beta  occ. eigenvalues --   -0.51542  -0.50442  -0.48450  -0.45719  -0.41667
  Beta  occ. eigenvalues --   -0.40431  -0.39508  -0.38186  -0.37916  -0.36602
  Beta  occ. eigenvalues --   -0.35546  -0.35147  -0.34631  -0.33676  -0.32909
  Beta  occ. eigenvalues --   -0.32369  -0.31542  -0.31157  -0.30172  -0.29555
  Beta  occ. eigenvalues --   -0.28643  -0.27861  -0.27094  -0.26885  -0.26472
  Beta  occ. eigenvalues --   -0.25932  -0.25438  -0.24850  -0.23079  -0.22546
  Beta  occ. eigenvalues --   -0.20910  -0.20586  -0.18550  -0.15311  -0.13016
  Beta  occ. eigenvalues --   -0.12031
  Beta virt. eigenvalues --    0.06148   0.06655   0.06882   0.07317   0.07853
  Beta virt. eigenvalues --    0.08174   0.08649   0.08669   0.09382   0.09766
  Beta virt. eigenvalues --    0.10338   0.10649   0.10726   0.11034   0.11272

 Mulliken charges and spin densities:
               1          2
     1  C   -0.011157  -0.774315
     2  C   -0.039834   0.428830
     3  C   -0.746832   0.750282
     4  C    0.179847  -0.688777
     5  C    0.247392  -0.322375
     6  C    0.005228  -0.660481
     7  S   -0.066580  -0.104871
     8  C    0.434539  -1.200557
     9  C   -0.472427   0.647367
    10  C    1.646559  -1.344104
    11  C    0.728592  -0.891914
    12  O    0.105875   0.020771
    13  C   -0.462735   0.253610
    14  C   -1.402423   1.201850
    15  C   -0.618857   0.975152
    16  C   -0.800495  -0.037510
    17  C    1.549685  -1.922497
    18  O   -0.175442   0.007884
    19  H    0.041862   0.129250
    20  H    0.103832   0.081241
    21  H   -0.095383   0.229819
    22  H   -0.223646   0.507204
    23  H   -0.309750   0.496643
    24  H    0.307772  -0.198365
    25  H   -0.589183   0.776056
    26  H    0.262317  -0.141202
    27  H   -0.088341   0.304457
    28  H    0.053679   0.130512
    29  H    0.283270  -0.115597
    30  H   -0.327249   0.539777
    31  H   -0.267617   0.544692
    32  H    0.060077   0.074961
    33  H   -0.107779   0.249772
    34  H    0.070595   0.104580
    35  H    0.068356   0.081982
    36  H   -0.108500   0.260088
    37  H   -0.239199   0.385667
    38  H    0.003952   0.220117
 Sum of Mulliken charges =  -1.00000   1.00000

 Dipole moment (field-independent basis, Debye):
    X=             -0.0340    Y=             -2.6159    Z=             -3.0057  Tot=              3.9848
 Quadrupole moment (field-independent basis, Debye-Ang):
   XX=           -199.4340   YY=           -160.2952   ZZ=           -158.2746
   XY=              1.1754   XZ=              7.1499   YZ=             -4.6681

 Summary of Natural Population Analysis:

                                       Natural Population
                Natural  -----------------------------------------------
    Atom  No    Charge         Core      Valence    Rydberg      Total
 -----------------------------------------------------------------------
      C    1   -0.29296      0.99964     2.28603    0.00730     3.29296
      C    2   -0.16987      0.99950     2.15447    0.01590     3.16987
      C    3    0.14525      0.99945     1.83790    0.01740     2.85475
      C    4   -0.20495      0.99956     2.19393    0.01146     3.20495
      C    5   -0.19561      0.99961     2.18607    0.00993     3.19561
      C    6   -0.24845      0.99959     2.23836    0.01050     3.24845
      S    7    0.09270      4.99961     2.89188    0.01582     7.90730
      C    8   -0.21232      0.99956     2.20131    0.01145     3.21232
      C    9    0.06237      0.99950     1.92336    0.01477     2.93763
      C   10   -0.06375      0.99945     2.05418    0.01011     3.06375
      C   11    0.16055      0.99932     1.82611    0.01402     2.83945
      O   12   -0.29066      0.99985     3.28032    0.01049     4.29066
      C   13   -0.11422      0.99953     2.10598    0.00872     3.11422
      C   14   -0.08392      0.99952     2.07587    0.00853     3.08392
      C   15   -0.03415      0.99952     2.02580    0.00883     3.03415
      C   16   -0.08227      0.99948     2.07404    0.00875     3.08227
      C   17   -0.28887      0.99964     2.28434    0.00489     3.28887
      O   18   -0.36549      0.99990     3.35929    0.00629     4.36549
      H   19    0.10378      0.00000     0.39531    0.00091     0.39622
      H   20    0.10827      0.00000     0.39074    0.00100     0.39173
      H   21    0.10311      0.00000     0.39606    0.00082     0.39689
      H   22    0.10466      0.00000     0.39359    0.00175     0.39534
      H   23    0.10460      0.00000     0.39326    0.00214     0.39540
      H   24    0.10593      0.00000     0.39237    0.00170     0.39407
      H   25    0.10266      0.00000     0.39601    0.00134     0.39734
      H   26    0.10353      0.00000     0.39496    0.00151     0.39647
      H   27    0.10575      0.00000     0.39339    0.00086     0.39425
      H   28    0.09925      0.00000     0.39913    0.00163     0.40075
      H   29    0.10303      0.00000     0.39541    0.00156     0.39697
      H   30    0.11196      0.00000     0.38638    0.00166     0.38804
      H   31    0.09441      0.00000     0.40349    0.00210     0.40559
      H   32    0.10417      0.00000     0.39445    0.00137     0.39583
      H   33    0.09641      0.00000     0.40276    0.00083     0.40359
      H   34    0.10502      0.00000     0.39379    0.00119     0.39498
      H   35    0.09984      0.00000     0.39886    0.00130     0.40016
      H   36    0.10148      0.00000     0.39696    0.00156     0.39852
      H   37    0.10149      0.00000     0.39743    0.00108     0.39851
      H   38    0.22727      0.00000     0.26948    0.00325     0.27273
 =======================================================================
   * Total *   -0.00000     21.99221    48.78311    0.22468    71.00000

 Normal termination of Gaussian 16 at Fri Dec 11 23:37:30 2020.
