 Gaussian 16, Revision A.03,

 -----------------------------------------------------------
 # opt freq B3LYP/6-31G(d) empiricaldispersion=gd3bj scf=xqc
 -----------------------------------------------------------

 -------------------------------
 CID_134275576_JID_5010_neutraal
 -------------------------------
 Symbolic Z-matrix:
 Charge =  0 Multiplicity = 1

 SCF Done:  E(RB3LYP) =  -650.450212192     A.U. after   15 cycles
 SCF Done:  E(RB3LYP) =  -650.456048179     A.U. after   14 cycles
 SCF Done:  E(RB3LYP) =  -650.456564282     A.U. after   13 cycles
 SCF Done:  E(RB3LYP) =  -650.453453056     A.U. after   14 cycles
 SCF Done:  E(RB3LYP) =  -650.457005330     A.U. after   11 cycles
 SCF Done:  E(RB3LYP) =  -650.457050418     A.U. after   11 cycles
 SCF Done:  E(RB3LYP) =  -650.457085144     A.U. after   11 cycles
 SCF Done:  E(RB3LYP) =  -650.457105005     A.U. after   11 cycles
 SCF Done:  E(RB3LYP) =  -650.457136922     A.U. after   11 cycles
 SCF Done:  E(RB3LYP) =  -650.457149854     A.U. after   11 cycles
 SCF Done:  E(RB3LYP) =  -650.457154787     A.U. after   11 cycles
 SCF Done:  E(RB3LYP) =  -650.457157725     A.U. after   11 cycles
 SCF Done:  E(RB3LYP) =  -650.457158203     A.U. after    9 cycles
 SCF Done:  E(RB3LYP) =  -650.457158287     A.U. after    7 cycles
 Optimization completed.
    -- Stationary point found.
 Normal termination of Gaussian 16 at Thu Dec 10 14:44:30 2020.

 --------------------------------------------------------------------
 #N Geom=AllCheck Guess=TCheck SCRF=Check GenChk RB3LYP/6-31G(d) Freq
 --------------------------------------------------------------------

 Structure from the checkpoint file:  "JID_5010.chk"
 -------------------------------
 CID_134275576_JID_5010_neutraal
 -------------------------------
 Charge =  0 Multiplicity = 1

 SCF Done:  E(RB3LYP) =  -650.457158287     A.U. after    1 cycles

  Exact polarizability: 314.698 -10.337 139.866  -0.004  -0.010  74.125
 Approx polarizability: 549.730 -56.015 233.583  -0.013  -0.022 110.690

                      1                      2                      3
                      A                      A                      A
 Frequencies --     12.4458                53.0908                85.1921
 Red. masses --      3.1765                 3.6901                 5.7881
 Frc consts  --      0.0003                 0.0061                 0.0248
 IR Inten    --      0.0171                 0.7536                 0.3627

                      4                      5                      6
                      A                      A                      A
 Frequencies --     98.1810               121.5834               191.2479
 Red. masses --      3.9127                 5.5848                 5.5701
 Frc consts  --      0.0222                 0.0486                 0.1200
 IR Inten    --      0.0172                 4.8401                 7.1838

                      7                      8                      9
                      A                      A                      A
 Frequencies --    213.4994               246.3619               249.3118
 Red. masses --      2.4436                 2.9599                 2.8654
 Frc consts  --      0.0656                 0.1058                 0.1049
 IR Inten    --      0.0020                 6.8203                 1.2006

                     10                     11                     12
                      A                      A                      A
 Frequencies --    258.3392               280.1676               287.8149
 Red. masses --      1.1664                 3.7527                 1.1757
 Frc consts  --      0.0459                 0.1736                 0.0574
 IR Inten    --      0.3922                 1.1287                 1.3403

                     13                     14                     15
                      A                      A                      A
 Frequencies --    327.0912               344.8254               370.3839
 Red. masses --      3.5961                 3.1796                 2.0305
 Frc consts  --      0.2267                 0.2227                 0.1641
 IR Inten    --      5.2420                 1.4462                 0.2873

                     16                     17                     18
                      A                      A                      A
 Frequencies --    437.2981               456.8509               504.6758
 Red. masses --      2.9669                 1.3689                 5.5279
 Frc consts  --      0.3343                 0.1683                 0.8295
 IR Inten    --      3.7203                71.2862                 2.4204

                     19                     20                     21
                      A                      A                      A
 Frequencies --    533.5020               623.3901               646.2517
 Red. masses --      3.2218                 2.8430                 4.5136
 Frc consts  --      0.5403                 0.6509                 1.1107
 IR Inten    --      0.1816                 0.1605                 0.4485

                     22                     23                     24
                      A                      A                      A
 Frequencies --    656.7677               688.8060               711.3198
 Red. masses --      4.3316                 3.4333                 3.9935
 Frc consts  --      1.1008                 0.9598                 1.1905
 IR Inten    --      2.0272                 3.0192                41.5376

                     25                     26                     27
                      A                      A                      A
 Frequencies --    720.2277               761.9812               806.3799
 Red. masses --      1.2448                 4.8844                 7.6311
 Frc consts  --      0.3804                 1.6709                 2.9236
 IR Inten    --     52.5293                53.4126                11.5336

                     28                     29                     30
                      A                      A                      A
 Frequencies --    820.9170               883.8319               889.9427
 Red. masses --      1.2432                 1.3514                 3.0448
 Frc consts  --      0.4936                 0.6220                 1.4208
 IR Inten    --     23.3937                 3.1835                 2.7181

                     31                     32                     33
                      A                      A                      A
 Frequencies --    902.3058               904.0252               933.3970
 Red. masses --      1.3489                 4.4963                 1.8263
 Frc consts  --      0.6471                 2.1651                 0.9375
 IR Inten    --      5.6431                37.8010                 3.5423

                     34                     35                     36
                      A                      A                      A
 Frequencies --    938.7376               974.8609               990.9522
 Red. masses --      4.6875                 1.3743                 2.2546
 Frc consts  --      2.4338                 0.7695                 1.3044
 IR Inten    --     14.4556                 0.1879                 0.6168

                     37                     38                     39
                      A                      A                      A
 Frequencies --    999.3298              1006.2168              1053.3898
 Red. masses --      2.0869                 1.6988                 1.3909
 Frc consts  --      1.2279                 1.0134                 0.9094
 IR Inten    --     18.9743                 0.0322                 0.1657

                     40                     41                     42
                      A                      A                      A
 Frequencies --   1071.1224              1131.3826              1133.7809
 Red. masses --      1.2989                 1.4958                 2.0431
 Frc consts  --      0.8780                 1.1281                 1.5474
 IR Inten    --     46.2299                 1.1515                11.7226

                     43                     44                     45
                      A                      A                      A
 Frequencies --   1146.8566              1164.2619              1198.3674
 Red. masses --      1.4917                 2.4612                 2.0796
 Frc consts  --      1.1560                 1.9656                 1.7595
 IR Inten    --    267.4527                25.7522               156.8278

                     46                     47                     48
                      A                      A                      A
 Frequencies --   1235.8281              1270.3683              1276.3966
 Red. masses --      1.8706                 1.8976                 3.2418
 Frc consts  --      1.6832                 1.8043                 3.1117
 IR Inten    --     45.5924                 2.2831                50.3429

                     49                     50                     51
                      A                      A                      A
 Frequencies --   1287.6542              1314.3824              1351.9253
 Red. masses --      2.5678                 1.8548                 2.8647
 Frc consts  --      2.5085                 1.8880                 3.0849
 IR Inten    --    239.8306                 5.9006               214.8844

                     52                     53                     54
                      A                      A                      A
 Frequencies --   1398.6402              1403.3462              1420.6249
 Red. masses --      1.2656                 2.3480                 1.2186
 Frc consts  --      1.4587                 2.7245                 1.4490
 IR Inten    --      1.7177                78.3320                 5.9831

                     55                     56                     57
                      A                      A                      A
 Frequencies --   1441.7307              1458.8273              1476.5887
 Red. masses --      1.2371                 3.0592                 3.4955
 Frc consts  --      1.5150                 3.8359                 4.4903
 IR Inten    --     30.9804                11.8831                33.8093

                     58                     59                     60
                      A                      A                      A
 Frequencies --   1498.2824              1513.1820              1514.1485
 Red. masses --      3.5458                 1.1091                 1.0450
 Frc consts  --      4.6898                 1.4963                 1.4116
 IR Inten    --    111.6544                 3.0109                 0.0718

                     61                     62                     63
                      A                      A                      A
 Frequencies --   1528.8259              1532.0103              1547.8449
 Red. masses --      1.0494                 1.0575                 1.0626
 Frc consts  --      1.4451                 1.4623                 1.5000
 IR Inten    --      2.1223                17.9970                12.8452

                     64                     65                     66
                      A                      A                      A
 Frequencies --   1585.9696              1608.5179              1701.9543
 Red. masses --      6.3692                 3.6136                 7.8919
 Frc consts  --      9.4390                 5.5086                13.4687
 IR Inten    --    114.7152                 2.6965               198.2265

                     67                     68                     69
                      A                      A                      A
 Frequencies --   1767.4046              2958.1732              3046.7979
 Red. masses --      9.6784                 1.0857                 1.0367
 Frc consts  --     17.8125                 5.5974                 5.6702
 IR Inten    --    331.9872                85.6481                27.6390

                     70                     71                     72
                      A                      A                      A
 Frequencies --   3047.9691              3054.1389              3085.3073
 Red. masses --      1.0456                 1.0513                 1.1054
 Frc consts  --      5.7233                 5.7777                 6.1996
 IR Inten    --      6.3852                51.0445                16.9399

                     73                     74                     75
                      A                      A                      A
 Frequencies --   3110.0133              3112.4740              3146.6605
 Red. masses --      1.1030                 1.1024                 1.1009
 Frc consts  --      6.2856                 6.2919                 6.4222
 IR Inten    --     18.0915                50.6332                 1.8841

                     76                     77                     78
                      A                      A                      A
 Frequencies --   3149.5449              3150.0345              3260.9918
 Red. masses --      1.0879                 1.0999                 1.0906
 Frc consts  --      6.3580                 6.4303                 6.8330
 IR Inten    --     14.7744                16.1341                 7.6568

                     79                     80                     81
                      A                      A                      A
 Frequencies --   3283.7339              3303.4704              3660.1551
 Red. masses --      1.1007                 1.0979                 1.0803
 Frc consts  --      6.9929                 7.0589                 8.5269
 IR Inten    --      3.1113                 0.9284                53.5228

 - Thermochemistry -
 -------------------
 Temperature   298.150 Kelvin.  Pressure   1.00000 Atm.
 Atom     1 has atomic number  6 and mass  12.00000

 Molecular mass:   202.11061 amu.
 Principal axes and moments of inertia in atomic units:
                           1         2         3
     Eigenvalues --  1264.607026076.444686941.78482
           X            0.99987   0.01628   0.00000
           Y           -0.01628   0.99987  -0.00001
           Z           -0.00000   0.00001   1.00000
 This molecule is an asymmetric top.
 Rotational symmetry number  1.
 Warning -- assumption of classical behavior for rotation
           may cause significant error
 Rotational temperatures (Kelvin)      0.06849     0.01425     0.01248
 Rotational constants (GHZ):           1.42712     0.29701     0.25998
 Zero-point vibrational energy     630040.7 (Joules/Mol)
                                  150.58335 (Kcal/Mol)
 Warning -- explicit consideration of  19 degrees of freedom as
           vibrations may cause significant error
 Vibrational temperatures:     17.91    76.39   122.57   141.26   174.93
          (Kelvin)            275.16   307.18   354.46   358.70   371.69
                              403.10   414.10   470.61   496.13   532.90
                              629.17   657.31   726.12   767.59   896.92
                              929.81   944.94   991.04  1023.43  1036.25
                             1096.32  1160.20  1181.12  1271.64  1280.43
                             1298.22  1300.69  1342.95  1350.63  1402.61
                             1425.76  1437.81  1447.72  1515.59  1541.11
                             1627.81  1631.26  1650.07  1675.11  1724.18
                             1778.08  1827.78  1836.45  1852.65  1891.10
                             1945.12  2012.33  2019.10  2043.96  2074.33
                             2098.93  2124.48  2155.69  2177.13  2178.52
                             2199.64  2204.22  2227.00  2281.86  2314.30
                             2448.73  2542.90  4256.15  4383.66  4385.35
                             4394.22  4439.07  4474.62  4478.16  4527.34
                             4531.49  4532.20  4691.84  4724.56  4752.96
                             5266.15

 Zero-point correction=                           0.239970 (Hartree/Particle)
 Thermal correction to Energy=                    0.253996
 Thermal correction to Enthalpy=                  0.254940
 Thermal correction to Gibbs Free Energy=         0.197835
 Sum of electronic and zero-point Energies=           -650.217188
 Sum of electronic and thermal Energies=              -650.203162
 Sum of electronic and thermal Enthalpies=            -650.202218
 Sum of electronic and thermal Free Energies=         -650.259323

                     E (Thermal)             CV                S
                      KCal/Mol        Cal/Mol-Kelvin    Cal/Mol-Kelvin
 Total                  159.385             53.641            120.188
 Electronic               0.000              0.000              0.000
 Translational            0.889              2.981             41.815
 Rotational               0.889              2.981             32.345
 Vibrational            157.607             47.679             46.028
 Vibration     1          0.593              1.987              7.576
 Vibration     2          0.596              1.976              4.699
 Vibration     3          0.601              1.959              3.768
 Vibration     4          0.604              1.950              3.490
 Vibration     5          0.609              1.931              3.075
 Vibration     6          0.634              1.852              2.216
 Vibration     7          0.644              1.820              2.014
 Vibration     8          0.661              1.769              1.756
 Vibration     9          0.662              1.764              1.735
 Vibration    10          0.667              1.749              1.673
 Vibration    11          0.680              1.710              1.533
 Vibration    12          0.685              1.696              1.487
 Vibration    13          0.711              1.621              1.274
 Vibration    14          0.723              1.586              1.190
 Vibration    15          0.742              1.533              1.078
 Vibration    16          0.798              1.389              0.835
 Vibration    17          0.815              1.346              0.775
 Vibration    18          0.860              1.240              0.647
 Vibration    19          0.888              1.176              0.579

                           ! Non-Optimized Parameters !
 Normal termination of Gaussian 16 at Thu Dec 10 14:52:00 2020.

 ----------------------------------------------------------------------
 # B3LYP/6-311++G(d,p) empiricaldispersion=gd3bj scf=xqc pop=npa geom=c
 heck
 ----------------------------------------------------------------------

 ---------------------------------------
 CID_134275576_JID_5010_Energie_neutraal
 ---------------------------------------
 Structure from the checkpoint file:  "JID_5010.chk"
 Charge =  0 Multiplicity = 1

 SCF Done:  E(RB3LYP) =  -650.634841163     A.U. after   15 cycles
 Normal termination of Gaussian 16 at Thu Dec 10 14:55:01 2020.

 ----------------------------------------------------------------------
 # B3LYP/6-311++G(d,p) empiricaldispersion=gd3bj scf=xqc pop=npa geom=c
 heck
 ----------------------------------------------------------------------

 -------------------------------------
 CID_134275576_JID_5010_Energie_kation
 -------------------------------------
 Structure from the checkpoint file:  "JID_5010.chk"
 Charge =  1 Multiplicity = 2

 SCF Done:  E(UB3LYP) =  -650.373928319     A.U. after   23 cycles
 Normal termination of Gaussian 16 at Thu Dec 10 15:01:28 2020.
 Gaussian 16:  ES64L-G16RevA.03 25-Dec-2016

 ----------------------------------------------------------------------
 # B3LYP/6-311++G(d,p) empiricaldispersion=gd3bj scf=xqc pop=npa geom=c
 heck
 ----------------------------------------------------------------------

 ------------------------------------
 CID_134275576_JID_5010_Energie_anion
 ------------------------------------
 Structure from the checkpoint file:  "JID_5010.chk"
 Charge = -1 Multiplicity = 2

                         Standard orientation:
 ---------------------------------------------------------------------
 Center     Atomic      Atomic             Coordinates (Angstroms)
 Number     Number       Type             X           Y           Z
 ---------------------------------------------------------------------
      1          6           0       -3.227354   -0.864635    1.261617
      2          6           0       -2.358909   -0.714334   -0.000165
      3          6           0       -1.142447   -1.690042    0.000158
      4          6           0        0.065416   -0.761273    0.000227
      5          6           0        1.372217   -1.138307    0.000127
      6          6           0        2.534788   -0.301778    0.000090
      7          6           0        2.724464    1.082941   -0.000621
      8          6           0        4.113988    1.332359   -0.000545
      9          6           0        4.760596    0.105479    0.000168
     10          7           0        3.803791   -0.869012    0.000533
     11          7           0       -0.332625    0.570346    0.000402
     12          6           0       -1.631964    0.626676    0.000301
     13          6           0       -2.277662    1.946183    0.000513
     14          8           0       -3.486646    2.122240    0.000394
     15          6           0       -3.226136   -0.864141   -1.262890
     16          1           0       -4.013213   -0.105217    1.279498
     17          1           0       -2.622566   -0.758963    2.169478
     18          1           0       -3.697395   -1.855018    1.279606
     19          1           0       -1.150759   -2.342403    0.881248
     20          1           0       -1.150491   -2.342716   -0.880700
     21          1           0        1.563912   -2.211404    0.000034
     22          1           0        1.919579    1.800937   -0.001050
     23          1           0        4.598361    2.298996   -0.000996
     24          1           0        5.812160   -0.141539    0.000540
     25          1           0        3.984786   -1.861309    0.001053
     26          1           0       -1.562787    2.793912    0.000762
     27          1           0       -3.696370   -1.854417   -1.281592
     28          1           0       -4.011798   -0.104535   -1.281363
     29          1           0       -2.620383   -0.758360   -2.170095
 ---------------------------------------------------------------------

 SCF Done:  E(UB3LYP) =  -650.676580359     A.U. after   23 cycles

 The electronic state is 2-A.
 Alpha  occ. eigenvalues --  -18.93240 -14.23396 -14.13985 -10.07173 -10.07046
 Alpha  occ. eigenvalues --  -10.06630 -10.05749 -10.05311 -10.04452 -10.03733
 Alpha  occ. eigenvalues --  -10.03727 -10.03726 -10.03397 -10.02134 -10.01803
 Alpha  occ. eigenvalues --   -0.86818  -0.85650  -0.79588  -0.67395  -0.65202
 Alpha  occ. eigenvalues --   -0.64897  -0.59999  -0.56519  -0.54961  -0.51950
 Alpha  occ. eigenvalues --   -0.47202  -0.45621  -0.44577  -0.42376  -0.38131
 Alpha  occ. eigenvalues --   -0.36243  -0.33443  -0.32943  -0.31829  -0.31127
 Alpha  occ. eigenvalues --   -0.29482  -0.29254  -0.28916  -0.28361  -0.27924
 Alpha  occ. eigenvalues --   -0.26042  -0.25628  -0.25473  -0.23460  -0.23417
 Alpha  occ. eigenvalues --   -0.21622  -0.21319  -0.20068  -0.20060  -0.13925
 Alpha  occ. eigenvalues --   -0.12931  -0.11710  -0.08766  -0.06052   0.01647
 Alpha virt. eigenvalues --    0.07208   0.08493   0.09266   0.10337   0.10446
 Alpha virt. eigenvalues --    0.11497   0.11997   0.12659   0.13078   0.13326
 Alpha virt. eigenvalues --    0.13624   0.14196   0.15088   0.15470   0.15641

  Beta  occ. eigenvalues --  -18.92636 -14.23315 -14.13636 -10.07111 -10.07104
  Beta  occ. eigenvalues --  -10.06440 -10.05766 -10.05346 -10.04453 -10.03763
  Beta  occ. eigenvalues --  -10.03714 -10.03713 -10.03107 -10.01844 -10.01700
  Beta  occ. eigenvalues --   -0.85746  -0.85529  -0.78988  -0.67243  -0.65080
  Beta  occ. eigenvalues --   -0.64536  -0.59834  -0.56482  -0.54787  -0.50937
  Beta  occ. eigenvalues --   -0.47162  -0.45300  -0.44467  -0.42254  -0.37716
  Beta  occ. eigenvalues --   -0.36077  -0.33251  -0.32765  -0.31745  -0.31089
  Beta  occ. eigenvalues --   -0.29376  -0.28929  -0.28648  -0.28210  -0.27615
  Beta  occ. eigenvalues --   -0.25877  -0.25269  -0.25257  -0.23181  -0.22147
  Beta  occ. eigenvalues --   -0.21130  -0.20817  -0.20027  -0.18137  -0.12767
  Beta  occ. eigenvalues --   -0.12276  -0.11310  -0.08212  -0.04849
  Beta virt. eigenvalues --    0.07187   0.08046   0.08468   0.09243   0.10322
  Beta virt. eigenvalues --    0.10559   0.11475   0.11974   0.13057   0.13068
  Beta virt. eigenvalues --    0.13600   0.13882   0.14234   0.15073   0.15454

 Mulliken charges and spin densities:
               1          2
     1  C   -0.622718   0.018200
     2  C    1.602271  -0.080925
     3  C   -1.616605   0.008543
     4  C    0.258895  -0.040068
     5  C   -0.586421   0.266331
     6  C   -0.264924  -0.071316
     7  C    0.763053   0.076086
     8  C   -0.784681  -0.013230
     9  C    0.047548   0.057235
    10  N   -0.044620   0.025316
    11  N    0.096978   0.159755
    12  C   -0.381270   0.257778
    13  C   -0.485889   0.137821
    14  O   -0.359851   0.202237
    15  C   -0.622704   0.018208
    16  H    0.165132  -0.004041
    17  H    0.138341   0.005603
    18  H    0.101477   0.007793
    19  H    0.150124   0.001539
    20  H    0.150081   0.001535
    21  H    0.132909  -0.018550
    22  H    0.211635  -0.007488
    23  H    0.118417   0.001620
    24  H    0.119994  -0.004626
    25  H    0.254172  -0.001408
    26  H    0.053729  -0.013300
    27  H    0.101465   0.007809
    28  H    0.165099  -0.004045
    29  H    0.138361   0.005589
 Sum of Mulliken charges =  -1.00000   1.00000

 Dipole moment (field-independent basis, Debye):
    X=              3.7172    Y=             -5.9962    Z=             -0.0005  Tot=              7.0549
 Quadrupole moment (field-independent basis, Debye-Ang):
   XX=           -138.9080   YY=           -103.7566   ZZ=           -100.5223
   XY=              7.0551   XZ=              0.0073   YZ=             -0.0063

 Summary of Natural Population Analysis:

                                       Natural Population
                Natural  -----------------------------------------------
    Atom  No    Charge         Core      Valence    Rydberg      Total
 -----------------------------------------------------------------------
      C    1   -0.28035      0.99963     2.27518    0.00554     3.28035
      C    2   -0.06526      0.99956     2.05427    0.01144     3.06526
      C    3   -0.20166      0.99959     2.19482    0.00725     3.20166
      C    4    0.06245      0.99957     1.92302    0.01496     2.93755
      C    5   -0.05384      0.99948     2.04966    0.00470     3.05384
      C    6    0.04454      0.99958     1.94203    0.01384     2.95546
      C    7   -0.11661      0.99953     2.10823    0.00884     3.11661
      C    8   -0.15882      0.99958     2.15003    0.00921     3.15882
      C    9   -0.02721      0.99961     2.01362    0.01398     3.02721
      N   10   -0.25735      0.99966     2.74925    0.00843     3.75735
      N   11   -0.18643      0.99965     2.67375    0.01302     3.68643
      C   12    0.14719      0.99952     1.83638    0.01691     2.85281
      C   13    0.20718      0.99966     1.77237    0.02079     2.79282
      O   14   -0.23701      0.99988     3.23000    0.00712     4.23701
      C   15   -0.28035      0.99963     2.27518    0.00553     3.28035
      H   16    0.11067      0.00000     0.38834    0.00099     0.38933
      H   17    0.09744      0.00000     0.40178    0.00078     0.40256
      H   18    0.08731      0.00000     0.41175    0.00094     0.41269
      H   19    0.09782      0.00000     0.40113    0.00105     0.40218
      H   20    0.09782      0.00000     0.40113    0.00105     0.40218
      H   21    0.08126      0.00000     0.41789    0.00085     0.41874
      H   22    0.11832      0.00000     0.38075    0.00092     0.38168
      H   23    0.09692      0.00000     0.40219    0.00089     0.40308
      H   24    0.08950      0.00000     0.40954    0.00096     0.41050
      H   25    0.19023      0.00000     0.30759    0.00219     0.30977
      H   26    0.04095      0.00000     0.45588    0.00317     0.45905
      H   27    0.08731      0.00000     0.41175    0.00094     0.41269
      H   28    0.11066      0.00000     0.38835    0.00099     0.38934
      H   29    0.09744      0.00000     0.40178    0.00078     0.40256
 =======================================================================
   * Total *    0.00011     14.99415    38.82766    0.17808    53.99989

 Normal termination of Gaussian 16 at Thu Dec 10 15:10:54 2020.
