 Gaussian 16, Revision A.03,

 -----------------------------------------------------------
 # opt freq B3LYP/6-31G(d) empiricaldispersion=gd3bj scf=xqc
 -----------------------------------------------------------

 ------------------------------
 CID_17141106_JID_8746_neutraal
 ------------------------------
 Symbolic Z-matrix:
 Charge =  0 Multiplicity = 1

 SCF Done:  E(RB3LYP) =  -805.514695686     A.U. after   16 cycles
 SCF Done:  E(RB3LYP) =  -805.519241863     A.U. after   14 cycles
 SCF Done:  E(RB3LYP) =  -805.519684114     A.U. after   14 cycles
 SCF Done:  E(RB3LYP) =  -805.521143114     A.U. after   12 cycles
 SCF Done:  E(RB3LYP) =  -805.522154572     A.U. after   12 cycles
 SCF Done:  E(RB3LYP) =  -805.522427237     A.U. after   12 cycles
 SCF Done:  E(RB3LYP) =  -805.522746816     A.U. after   11 cycles
 SCF Done:  E(RB3LYP) =  -805.522906326     A.U. after   12 cycles
 SCF Done:  E(RB3LYP) =  -805.523009608     A.U. after   12 cycles
 SCF Done:  E(RB3LYP) =  -805.523083447     A.U. after   11 cycles
 SCF Done:  E(RB3LYP) =  -805.523192112     A.U. after   12 cycles
 SCF Done:  E(RB3LYP) =  -805.523199396     A.U. after   10 cycles
 SCF Done:  E(RB3LYP) =  -805.523200619     A.U. after   10 cycles
 SCF Done:  E(RB3LYP) =  -805.523200813     A.U. after    8 cycles
 SCF Done:  E(RB3LYP) =  -805.523200873     A.U. after    7 cycles
 SCF Done:  E(RB3LYP) =  -805.523200896     A.U. after    7 cycles
 Optimization completed.
    -- Stationary point found.
 Normal termination of Gaussian 16 at Fri Dec 11 22:15:49 2020.

 --------------------------------------------------------------------
 #N Geom=AllCheck Guess=TCheck SCRF=Check GenChk RB3LYP/6-31G(d) Freq
 --------------------------------------------------------------------

 Structure from the checkpoint file:  "JID_8746.chk"
 ------------------------------
 CID_17141106_JID_8746_neutraal
 ------------------------------
 Charge =  0 Multiplicity = 1

 SCF Done:  E(RB3LYP) =  -805.523200896     A.U. after    1 cycles

  Exact polarizability: 229.836 -27.070 187.853   4.603  12.143 106.249
 Approx polarizability: 342.885 -50.080 276.339  14.667  25.752 160.367

                      1                      2                      3
                      A                      A                      A
 Frequencies --     19.2438                31.5506                46.3310
 Red. masses --      3.7887                 3.6965                 3.8965
 Frc consts  --      0.0008                 0.0022                 0.0049
 IR Inten    --      0.8757                 0.4996                 0.1119

                      4                      5                      6
                      A                      A                      A
 Frequencies --     51.7060                54.8943                63.2058
 Red. masses --      4.0747                 3.5912                 4.5398
 Frc consts  --      0.0064                 0.0064                 0.0107
 IR Inten    --      0.6368                 0.3022                 0.9813

                      7                      8                      9
                      A                      A                      A
 Frequencies --     82.7148                95.0423               119.7447
 Red. masses --      2.5756                 2.4121                 3.9682
 Frc consts  --      0.0104                 0.0128                 0.0335
 IR Inten    --      0.4846                 0.0592                 2.9345

                     10                     11                     12
                      A                      A                      A
 Frequencies --    157.1986               168.4910               195.3431
 Red. masses --      3.6290                 3.6946                 3.2604
 Frc consts  --      0.0528                 0.0618                 0.0733
 IR Inten    --      0.2710                 0.5598                 1.0272

                     13                     14                     15
                      A                      A                      A
 Frequencies --    230.9327               243.9705               267.4470
 Red. masses --      1.4975                 1.3397                 2.3886
 Frc consts  --      0.0471                 0.0470                 0.1007
 IR Inten    --      5.1533                 0.4193                 2.4346

                     16                     17                     18
                      A                      A                      A
 Frequencies --    301.2355               326.8688               345.3049
 Red. masses --      4.2994                 3.4864                 2.9926
 Frc consts  --      0.2299                 0.2195                 0.2102
 IR Inten    --      1.3649                 0.9264                 6.2182

                     19                     20                     21
                      A                      A                      A
 Frequencies --    357.4192               394.6378               416.0377
 Red. masses --      2.8860                 3.3007                 3.0267
 Frc consts  --      0.2172                 0.3029                 0.3087
 IR Inten    --     13.0535                 0.8665                 0.1524

                     22                     23                     24
                      A                      A                      A
 Frequencies --    448.0755               461.9528               508.2351
 Red. masses --      2.7021                 2.9421                 3.6925
 Frc consts  --      0.3196                 0.3699                 0.5619
 IR Inten    --      5.3490                 0.7655                 3.7271

                     25                     26                     27
                      A                      A                      A
 Frequencies --    514.2301               552.8817               605.7033
 Red. masses --      3.1310                 1.3021                 3.9041
 Frc consts  --      0.4878                 0.2345                 0.8439
 IR Inten    --     27.4033                51.0586                33.6128

                     28                     29                     30
                      A                      A                      A
 Frequencies --    633.1060               636.3771               676.6312
 Red. masses --      3.4137                 5.8252                 4.5711
 Frc consts  --      0.8062                 1.3899                 1.2330
 IR Inten    --     14.2000                 1.3569                10.9064

                     31                     32                     33
                      A                      A                      A
 Frequencies --    701.1386               708.0926               768.7161
 Red. masses --      5.1890                 1.7576                 1.8379
 Frc consts  --      1.5029                 0.5192                 0.6399
 IR Inten    --     37.6552                24.3130                 4.6200

                     34                     35                     36
                      A                      A                      A
 Frequencies --    779.2157               815.3944               820.1415
 Red. masses --      2.1028                 1.1189                 1.8916
 Frc consts  --      0.7523                 0.4383                 0.7496
 IR Inten    --     28.4969                 0.4376                 9.5601

                     37                     38                     39
                      A                      A                      A
 Frequencies --    857.1342               874.0897               887.3162
 Red. masses --      1.2527                 2.9550                 2.6089
 Frc consts  --      0.5422                 1.3302                 1.2102
 IR Inten    --      0.6751                 0.7398                 8.7068

                     40                     41                     42
                      A                      A                      A
 Frequencies --    908.4480               926.9630               929.8100
 Red. masses --      1.5445                 2.9869                 1.4280
 Frc consts  --      0.7510                 1.5121                 0.7274
 IR Inten    --      5.3592                 0.5013                 2.1103

                     43                     44                     45
                      A                      A                      A
 Frequencies --    972.1447               998.9518              1015.9994
 Red. masses --      1.3420                 1.2638                 2.5523
 Frc consts  --      0.7473                 0.7431                 1.5523
 IR Inten    --      1.0925                 0.3858                 5.1960

                     46                     47                     48
                      A                      A                      A
 Frequencies --   1018.8527              1021.8484              1038.2339
 Red. masses --      3.9684                 4.1604                 1.8583
 Frc consts  --      2.4271                 2.5595                 1.1802
 IR Inten    --     16.9902                 6.6472                34.8992

                     49                     50                     51
                      A                      A                      A
 Frequencies --   1062.9153              1065.9232              1103.5287
 Red. masses --      2.1113                 2.3608                 2.2613
 Frc consts  --      1.4054                 1.5804                 1.6224
 IR Inten    --      3.2633                 0.5928                23.3393

                     52                     53                     54
                      A                      A                      A
 Frequencies --   1112.5733              1117.8976              1140.5265
 Red. masses --      1.7651                 1.7187                 1.7614
 Frc consts  --      1.2873                 1.2655                 1.3499
 IR Inten    --      1.2230                10.0634                 9.5839

                     55                     56                     57
                      A                      A                      A
 Frequencies --   1173.3421              1182.6381              1194.7851
 Red. masses --      3.6913                 3.5477                 1.1004
 Frc consts  --      2.9942                 2.9235                 0.9255
 IR Inten    --    108.2433                93.1063                 1.0351

                     58                     59                     60
                      A                      A                      A
 Frequencies --   1213.1378              1219.4420              1253.1662
 Red. masses --      1.8315                 1.1596                 1.4897
 Frc consts  --      1.5881                 1.0160                 1.3783
 IR Inten    --     23.0192                 1.9274                33.2077

                     61                     62                     63
                      A                      A                      A
 Frequencies --   1258.3870              1302.8688              1328.8586
 Red. masses --      1.2333                 1.2855                 2.1637
 Frc consts  --      1.1506                 1.2857                 2.2512
 IR Inten    --     30.6193                 2.7487                46.7529

                     64                     65                     66
                      A                      A                      A
 Frequencies --   1337.8608              1345.0668              1366.4859
 Red. masses --      1.1292                 2.2691                 1.7350
 Frc consts  --      1.1908                 2.4187                 1.9088
 IR Inten    --     11.1271                10.6469                59.1645

                     67                     68                     69
                      A                      A                      A
 Frequencies --   1370.8920              1393.2066              1396.4456
 Red. masses --      2.1292                 1.4670                 1.4078
 Frc consts  --      2.3576                 1.6777                 1.6175
 IR Inten    --     95.5251                14.7705                 3.4665

                     70                     71                     72
                      A                      A                      A
 Frequencies --   1415.5727              1437.0463              1440.8821
 Red. masses --      1.3034                 1.5312                 1.3071
 Frc consts  --      1.5389                 1.8630                 1.5989
 IR Inten    --     25.2494                36.9372                29.2196

                     73                     74                     75
                      A                      A                      A
 Frequencies --   1448.5811              1489.3557              1496.9215
 Red. masses --      1.2579                 2.1213                 2.1318
 Frc consts  --      1.5552                 2.7724                 2.8144
 IR Inten    --      1.9381                58.4136                73.5016

                     76                     77                     78
                      A                      A                      A
 Frequencies --   1516.7258              1518.6384              1518.7503
 Red. masses --      1.0666                 1.0594                 1.0529
 Frc consts  --      1.4456                 1.4395                 1.4309
 IR Inten    --      4.8130                 1.2629                 4.7165

                     79                     80                     81
                      A                      A                      A
 Frequencies --   1525.2371              1527.4480              1536.5917
 Red. masses --      1.0596                 1.0678                 1.0676
 Frc consts  --      1.4523                 1.4678                 1.4852
 IR Inten    --      0.2955                 6.5157                 9.3688

                     82                     83                     84
                      A                      A                      A
 Frequencies --   1540.5835              1543.0579              1552.7214
 Red. masses --      1.3406                 1.0882                 1.6909
 Frc consts  --      1.8746                 1.5266                 2.4019
 IR Inten    --     12.9585                 4.5980                 2.0112

                     85                     86                     87
                      A                      A                      A
 Frequencies --   1634.4901              1659.1143              1681.2381
 Red. masses --      5.3339                 5.8869                 8.4579
 Frc consts  --      8.3957                 9.5476                14.0855
 IR Inten    --      1.5610                 7.6272                15.0259

                     88                     89                     90
                      A                      A                      A
 Frequencies --   1806.7824              2997.7213              3017.6583
 Red. masses --      8.8609                 1.0700                 1.0608
 Frc consts  --     17.0428                 5.6650                 5.6917
 IR Inten    --    536.2231                51.1747                23.5609

                     91                     92                     93
                      A                      A                      A
 Frequencies --   3036.2449              3049.1108              3052.8991
 Red. masses --      1.0699                 1.0621                 1.0372
 Frc consts  --      5.8115                 5.8176                 5.6955
 IR Inten    --     16.5018                36.0789                20.5837

                     94                     95                     96
                      A                      A                      A
 Frequencies --   3053.6995              3079.1806              3084.2008
 Red. masses --      1.0361                 1.1030                 1.1006
 Frc consts  --      5.6927                 6.1615                 6.1685
 IR Inten    --     14.3604                17.3855                46.6278

                     97                     98                     99
                      A                      A                      A
 Frequencies --   3091.3398              3117.1545              3121.8373
 Red. masses --      1.0943                 1.0997                 1.1010
 Frc consts  --      6.1613                 6.2958                 6.3223
 IR Inten    --     12.3426                14.2692                36.3013

                    100                    101                    102
                      A                      A                      A
 Frequencies --   3123.7880              3131.9215              3132.8169
 Red. masses --      1.0929                 1.1020                 1.1037
 Frc consts  --      6.2832                 6.3689                 6.3825
 IR Inten    --     35.3950                39.7811                33.0547

                    103                    104                    105
                      A                      A                      A
 Frequencies --   3184.4306              3193.1703              3205.8424
 Red. masses --      1.0851                 1.0890                 1.0923
 Frc consts  --      6.4832                 6.5420                 6.6144
 IR Inten    --      1.4704                10.8811                35.7914

                    106                    107                    108
                      A                      A                      A
 Frequencies --   3214.5873              3235.3142              3521.5839
 Red. masses --      1.0955                 1.0918                 1.0747
 Frc consts  --      6.6696                 6.7331                 7.8528
 IR Inten    --     22.7284                 1.8128                 4.1763

 - Thermochemistry -
 -------------------
 Temperature   298.150 Kelvin.  Pressure   1.00000 Atm.
 Atom     1 has atomic number  6 and mass  12.00000

 Molecular mass:   248.15248 amu.
 Principal axes and moments of inertia in atomic units:
                           1         2         3
     Eigenvalues --  3620.491786483.522468956.69808
           X            0.99797   0.06368  -0.00233
           Y           -0.06369   0.99794  -0.00809
           Z            0.00181   0.00823   0.99996
 This molecule is an asymmetric top.
 Rotational symmetry number  1.
 Warning -- assumption of classical behavior for rotation
           may cause significant error
 Rotational temperatures (Kelvin)      0.02392     0.01336     0.00967
 Rotational constants (GHZ):           0.49848     0.27836     0.20150
 Zero-point vibrational energy     854870.5 (Joules/Mol)
                                  204.31896 (Kcal/Mol)
 Warning -- explicit consideration of  27 degrees of freedom as
           vibrations may cause significant error
 Vibrational temperatures:     27.69    45.39    66.66    74.39    78.98
          (Kelvin)             90.94   119.01   136.74   172.29   226.17
                              242.42   281.06   332.26   351.02   384.80
                              433.41   470.29   496.82   514.25   567.80
                              598.59   644.68   664.65   731.24   739.86
                              795.47   871.47   910.90   915.60   973.52
                             1008.78  1018.79  1106.01  1121.12  1173.17
                             1180.00  1233.22  1257.62  1276.65  1307.05
                             1333.69  1337.79  1398.70  1437.27  1461.80
                             1465.90  1470.21  1493.79  1529.30  1533.63
                             1587.73  1600.74  1608.41  1640.96  1688.18
                             1701.55  1719.03  1745.43  1754.51  1803.03
                             1810.54  1874.54  1911.93  1924.88  1935.25
                             1966.07  1972.41  2004.51  2009.17  2036.69
                             2067.59  2073.11  2084.19  2142.85  2153.74
                             2182.23  2184.98  2185.14  2194.48  2197.66
                             2210.81  2216.56  2220.12  2234.02  2351.67
                             2387.10  2418.93  2599.56  4313.05  4341.74
                             4368.48  4386.99  4392.44  4393.59  4430.25
                             4437.48  4447.75  4484.89  4491.63  4494.43
                             4506.14  4507.42  4581.69  4594.26  4612.49
                             4625.07  4654.90  5066.77

 Zero-point correction=                           0.325603 (Hartree/Particle)
 Thermal correction to Energy=                    0.344345
 Thermal correction to Enthalpy=                  0.345290
 Thermal correction to Gibbs Free Energy=         0.275959
 Sum of electronic and zero-point Energies=           -805.197598
 Sum of electronic and thermal Energies=              -805.178856
 Sum of electronic and thermal Enthalpies=            -805.177911
 Sum of electronic and thermal Free Energies=         -805.247241

                     E (Thermal)             CV                S
                      KCal/Mol        Cal/Mol-Kelvin    Cal/Mol-Kelvin
 Total                  216.080             68.891            145.918
 Electronic               0.000              0.000              0.000
 Translational            0.889              2.981             42.427
 Rotational               0.889              2.981             33.708
 Vibrational            214.303             62.929             69.783
 Vibration     1          0.593              1.986              6.711
 Vibration     2          0.594              1.983              5.729
 Vibration     3          0.595              1.979              4.968
 Vibration     4          0.596              1.977              4.751
 Vibration     5          0.596              1.976              4.633
 Vibration     6          0.597              1.972              4.355
 Vibration     7          0.600              1.961              3.825
 Vibration     8          0.603              1.953              3.554
 Vibration     9          0.609              1.933              3.104
 Vibration    10          0.621              1.895              2.583
 Vibration    11          0.625              1.881              2.452
 Vibration    12          0.636              1.846              2.177
 Vibration    13          0.653              1.794              1.872
 Vibration    14          0.659              1.773              1.774
 Vibration    15          0.673              1.733              1.613
 Vibration    16          0.693              1.671              1.410
 Vibration    17          0.711              1.622              1.276
 Vibration    18          0.724              1.585              1.188
 Vibration    19          0.733              1.560              1.133
 Vibration    20          0.762              1.482              0.983
 Vibration    21          0.779              1.435              0.906
 Vibration    22          0.807              1.365              0.802
 Vibration    23          0.820              1.334              0.760
 Vibration    24          0.863              1.232              0.638
 Vibration    25          0.869              1.218              0.623
 Vibration    26          0.908              1.133              0.538
 Vibration    27          0.964              1.020              0.440

 Optimization completed.
    -- Stationary point found.
 Normal termination of Gaussian 16 at Fri Dec 11 22:31:18 2020.

 ----------------------------------------------------------------------
 # B3LYP/6-311++G(d,p) empiricaldispersion=gd3bj scf=xqc pop=npa geom=c
 heck
 ----------------------------------------------------------------------

 --------------------------------------
 CID_17141106_JID_8746_Energie_neutraal
 --------------------------------------
 Structure from the checkpoint file:  "JID_8746.chk"
 Charge =  0 Multiplicity = 1

 SCF Done:  E(RB3LYP) =  -805.750337907     A.U. after   15 cycles
 Normal termination of Gaussian 16 at Fri Dec 11 22:37:30 2020.

 ----------------------------------------------------------------------
 # B3LYP/6-311++G(d,p) empiricaldispersion=gd3bj scf=xqc pop=npa geom=c
 heck
 ----------------------------------------------------------------------

 ------------------------------------
 CID_17141106_JID_8746_Energie_kation
 ------------------------------------
 Structure from the checkpoint file:  "JID_8746.chk"
 Charge =  1 Multiplicity = 2

 SCF Done:  E(UB3LYP) =  -805.460646055     A.U. after   25 cycles
 Normal termination of Gaussian 16 at Fri Dec 11 22:51:38 2020.
 Gaussian 16:  ES64L-G16RevA.03 25-Dec-2016

 ----------------------------------------------------------------------
 # B3LYP/6-311++G(d,p) empiricaldispersion=gd3bj scf=xqc pop=npa geom=c
 heck
 ----------------------------------------------------------------------

 -----------------------------------
 CID_17141106_JID_8746_Energie_anion
 -----------------------------------
 Structure from the checkpoint file:  "JID_8746.chk"
 Charge = -1 Multiplicity = 2

                         Standard orientation:
 ---------------------------------------------------------------------
 Center     Atomic      Atomic             Coordinates (Angstroms)
 Number     Number       Type             X           Y           Z
 ---------------------------------------------------------------------
      1          6           0       -2.230594   -2.075913    2.025933
      2          6           0       -1.391183   -2.854773    1.010385
      3          6           0       -1.463129   -2.265913   -0.417509
      4          6           0       -0.906179   -0.859801   -0.490717
      5          7           0        0.355324   -0.587386   -0.545128
      6          7           0        1.259641   -1.598813   -0.555567
      7          6           0        2.616794   -1.363567   -0.624823
      8          8           0        3.399959   -2.295203   -0.713138
      9          6           0        3.044412    0.098883   -0.585079
     10          8           0        2.717461    0.630127    0.684731
     11          6           0        2.621988    2.047371    0.706011
     12          6           0        3.966289    2.751382    0.545215
     13          6           0       -1.806841    0.315887   -0.409108
     14          6           0       -3.138612    0.271426   -0.847875
     15          6           0       -3.956058    1.398259   -0.761840
     16          6           0       -3.461353    2.587314   -0.228292
     17          6           0       -2.137825    2.642569    0.217450
     18          6           0       -1.320691    1.521411    0.129287
     19          1           0       -3.281603   -2.028885    1.717233
     20          1           0       -1.873263   -1.047026    2.133975
     21          1           0       -2.188900   -2.552686    3.010944
     22          1           0       -0.347254   -2.880235    1.346801
     23          1           0       -1.730914   -3.897175    0.967321
     24          1           0       -0.925775   -2.919767   -1.118018
     25          1           0       -2.505071   -2.275451   -0.745761
     26          1           0        0.986034   -2.578444   -0.546903
     27          1           0        4.124037    0.115985   -0.774432
     28          1           0        2.526482    0.651131   -1.383388
     29          1           0        1.915579    2.380786   -0.071704
     30          1           0        2.184133    2.286737    1.680786
     31          1           0        4.404572    2.566444   -0.441515
     32          1           0        3.843178    3.834767    0.657334
     33          1           0        4.672313    2.401121    1.305285
     34          1           0       -3.543244   -0.637191   -1.281246
     35          1           0       -4.981954    1.344102   -1.115104
     36          1           0       -4.101241    3.461973   -0.154722
     37          1           0       -1.745497    3.561488    0.644467
     38          1           0       -0.297833    1.549121    0.486555
 ---------------------------------------------------------------------

 SCF Done:  E(UB3LYP) =  -805.756145984     A.U. after   29 cycles

 The electronic state is 2-A.
 Alpha  occ. eigenvalues --  -19.01785 -18.96036 -14.23769 -14.17964 -10.13580
 Alpha  occ. eigenvalues --  -10.11822 -10.10690 -10.07584 -10.06011 -10.05601
 Alpha  occ. eigenvalues --  -10.05552 -10.04976 -10.04392 -10.04354 -10.03870
 Alpha  occ. eigenvalues --  -10.03764 -10.03369 -10.02970  -0.93570  -0.91521
 Alpha  occ. eigenvalues --   -0.86405  -0.73211  -0.70443  -0.67158  -0.66597
 Alpha  occ. eigenvalues --   -0.61889  -0.61354  -0.60205  -0.58347  -0.51565
 Alpha  occ. eigenvalues --   -0.51114  -0.48493  -0.46858  -0.46252  -0.44535
 Alpha  occ. eigenvalues --   -0.39934  -0.39097  -0.38771  -0.36769  -0.35195
 Alpha  occ. eigenvalues --   -0.34487  -0.33576  -0.33499  -0.32274  -0.30830
 Alpha  occ. eigenvalues --   -0.30736  -0.30058  -0.29425  -0.29185  -0.28997
 Alpha  occ. eigenvalues --   -0.28277  -0.27532  -0.26399  -0.25002  -0.24128
 Alpha  occ. eigenvalues --   -0.23443  -0.22866  -0.21982  -0.21672  -0.21339
 Alpha  occ. eigenvalues --   -0.21105  -0.15891  -0.14567  -0.13929  -0.13290
 Alpha  occ. eigenvalues --   -0.12683  -0.08814   0.04400
 Alpha virt. eigenvalues --    0.06857   0.07511   0.08296   0.09110   0.09595
 Alpha virt. eigenvalues --    0.09855   0.10159   0.10570   0.11209   0.11340
 Alpha virt. eigenvalues --    0.11765   0.11882   0.12692   0.12820   0.13126

  Beta  occ. eigenvalues --  -19.01769 -18.95814 -14.23854 -14.17483 -10.13413
  Beta  occ. eigenvalues --  -10.11814 -10.10697 -10.07582 -10.05972 -10.05612
  Beta  occ. eigenvalues --  -10.05366 -10.04971 -10.04412 -10.04411 -10.03786
  Beta  occ. eigenvalues --  -10.03650 -10.03120 -10.02836  -0.93469  -0.91227
  Beta  occ. eigenvalues --   -0.85946  -0.72899  -0.70167  -0.67036  -0.66533
  Beta  occ. eigenvalues --   -0.61565  -0.61090  -0.60097  -0.58221  -0.51454
  Beta  occ. eigenvalues --   -0.50698  -0.48385  -0.46713  -0.46133  -0.44323
  Beta  occ. eigenvalues --   -0.39842  -0.39005  -0.38647  -0.36538  -0.35130
  Beta  occ. eigenvalues --   -0.34345  -0.33462  -0.33304  -0.32118  -0.30776
  Beta  occ. eigenvalues --   -0.30533  -0.29833  -0.29179  -0.29079  -0.28748
  Beta  occ. eigenvalues --   -0.28099  -0.27424  -0.26315  -0.24424  -0.23889
  Beta  occ. eigenvalues --   -0.23097  -0.22807  -0.21806  -0.21332  -0.21079
  Beta  occ. eigenvalues --   -0.20388  -0.15816  -0.13720  -0.13384  -0.12896
  Beta  occ. eigenvalues --   -0.12122  -0.07481
  Beta virt. eigenvalues --    0.06775   0.07504   0.08233   0.08968   0.09406
  Beta virt. eigenvalues --    0.09668   0.10106   0.10118   0.10566   0.11194
  Beta virt. eigenvalues --    0.11454   0.11881   0.12288   0.12685   0.13036

 Mulliken charges and spin densities:
               1          2
     1  C   -0.581334  -0.011462
     2  C    0.043839  -0.248286
     3  C   -0.182803  -0.079349
     4  C   -0.872738  -0.001832
     5  N    0.109456   0.256515
     6  N   -0.135514  -0.069097
     7  C   -0.140416   0.133289
     8  O   -0.351353   0.072636
     9  C   -0.069712  -0.093025
    10  O   -0.041333   0.002699
    11  C   -0.094471   0.037599
    12  C   -0.502737  -0.066449
    13  C    1.809475   0.056234
    14  C   -0.309594   0.108597
    15  C   -0.369768  -0.073623
    16  C   -0.374178   0.183065
    17  C   -0.462700   0.021662
    18  C   -0.631328   0.117424
    19  H    0.143730  -0.014285
    20  H    0.150426   0.003990
    21  H    0.076033   0.047976
    22  H    0.132418  -0.016356
    23  H   -0.134921   0.286815
    24  H    0.001702   0.147186
    25  H    0.064296   0.054896
    26  H    0.265347   0.015441
    27  H    0.144340   0.008843
    28  H    0.097539   0.057696
    29  H    0.115695   0.004953
    30  H    0.149985  -0.001638
    31  H    0.121084   0.025565
    32  H    0.103505   0.020059
    33  H    0.145439   0.003361
    34  H    0.074487   0.022925
    35  H    0.116056   0.006695
    36  H    0.100568  -0.016062
    37  H    0.125721   0.004090
    38  H    0.163757  -0.008748
 Sum of Mulliken charges =  -1.00000   1.00000

 Dipole moment (field-independent basis, Debye):
    X=             -0.1200    Y=              3.2256    Z=              1.0319  Tot=              3.3887
 Quadrupole moment (field-independent basis, Debye-Ang):
   XX=           -159.8051   YY=           -142.1403   ZZ=           -124.2455
   XY=             19.9724   XZ=              2.0387   YZ=              1.5766

 Summary of Natural Population Analysis:

                                       Natural Population
                Natural  -----------------------------------------------
    Atom  No    Charge         Core      Valence    Rydberg      Total
 -----------------------------------------------------------------------
      C    1   -0.28829      0.99967     2.28246    0.00616     3.28829
      C    2   -0.18525      0.99964     2.17748    0.00812     3.18525
      C    3   -0.21811      0.99960     2.20923    0.00928     3.21811
      C    4    0.12540      0.99956     1.85862    0.01642     2.87460
      N    5   -0.08020      0.99960     2.56715    0.01345     3.58020
      N    6   -0.22867      0.99966     2.71793    0.01108     3.72867
      C    7    0.34960      0.99971     1.62810    0.02259     2.65040
      O    8   -0.30473      0.99988     3.29901    0.00585     4.30473
      C    9   -0.05168      0.99955     2.04045    0.01168     3.05168
      O   10   -0.29101      0.99988     3.28200    0.00913     4.29101
      C   11   -0.00945      0.99961     1.99822    0.01162     3.00945
      C   12   -0.30157      0.99967     2.29788    0.00402     3.30157
      C   13   -0.01621      0.99948     2.00585    0.01088     3.01621
      C   14   -0.08530      0.99953     2.07786    0.00791     3.08530
      C   15   -0.11654      0.99958     2.10776    0.00921     3.11654
      C   16   -0.06964      0.99957     2.06033    0.00974     3.06964
      C   17   -0.12124      0.99957     2.11269    0.00898     3.12124
      C   18   -0.06487      0.99953     2.05733    0.00801     3.06487
      H   19    0.09465      0.00000     0.40453    0.00082     0.40535
      H   20    0.10678      0.00000     0.39237    0.00086     0.39322
      H   21    0.09245      0.00000     0.40689    0.00065     0.40755
      H   22    0.09458      0.00000     0.40417    0.00125     0.40542
      H   23    0.08964      0.00000     0.40881    0.00155     0.41036
      H   24    0.09782      0.00000     0.40079    0.00139     0.40218
      H   25    0.10175      0.00000     0.39709    0.00116     0.39825
      H   26    0.17951      0.00000     0.31687    0.00362     0.32049
      H   27    0.08441      0.00000     0.41360    0.00199     0.41559
      H   28    0.09312      0.00000     0.40520    0.00168     0.40688
      H   29    0.08160      0.00000     0.41589    0.00251     0.41840
      H   30    0.08662      0.00000     0.41239    0.00098     0.41338
      H   31    0.09670      0.00000     0.40217    0.00114     0.40330
      H   32    0.09619      0.00000     0.40256    0.00126     0.40381
      H   33    0.09767      0.00000     0.40091    0.00142     0.40233
      H   34    0.09121      0.00000     0.40760    0.00119     0.40879
      H   35    0.09054      0.00000     0.40847    0.00099     0.40946
      H   36    0.08738      0.00000     0.41158    0.00104     0.41262
      H   37    0.09084      0.00000     0.40814    0.00103     0.40916
      H   38    0.10431      0.00000     0.39420    0.00149     0.39569
 =======================================================================
   * Total *    0.00000     17.99329    48.79457    0.21214    67.00000

 Normal termination of Gaussian 16 at Fri Dec 11 23:08:04 2020.
