 Gaussian 16, Revision A.03,

 -----------------------------------------------------------
 # opt freq B3LYP/6-31G(d) empiricaldispersion=gd3bj scf=xqc
 -----------------------------------------------------------

 -------------------------------
 CID_131016875_JID_3338_neutraal
 -------------------------------
 Symbolic Z-matrix:
 Charge =  0 Multiplicity = 1

 SCF Done:  E(RB3LYP) =  -558.238364134     A.U. after   15 cycles
 SCF Done:  E(RB3LYP) =  -558.242619134     A.U. after   13 cycles
 SCF Done:  E(RB3LYP) =  -558.243588404     A.U. after   14 cycles
 SCF Done:  E(RB3LYP) =  -558.245528852     A.U. after   13 cycles
 SCF Done:  E(RB3LYP) =  -558.246417955     A.U. after   13 cycles
 SCF Done:  E(RB3LYP) =  -558.246860785     A.U. after   13 cycles
 SCF Done:  E(RB3LYP) =  -558.246920055     A.U. after   12 cycles
 SCF Done:  E(RB3LYP) =  -558.246939972     A.U. after   11 cycles
 SCF Done:  E(RB3LYP) =  -558.246949266     A.U. after   10 cycles
 SCF Done:  E(RB3LYP) =  -558.246952561     A.U. after   10 cycles
 SCF Done:  E(RB3LYP) =  -558.246954309     A.U. after    8 cycles
 SCF Done:  E(RB3LYP) =  -558.246954699     A.U. after    8 cycles
 Optimization completed.
    -- Stationary point found.
 Normal termination of Gaussian 16 at Mon Dec 14 16:34:09 2020.

 --------------------------------------------------------------------
 #N Geom=AllCheck Guess=TCheck SCRF=Check GenChk RB3LYP/6-31G(d) Freq
 --------------------------------------------------------------------

 Structure from the checkpoint file:  "JID_3338.chk"
 -------------------------------
 CID_131016875_JID_3338_neutraal
 -------------------------------
 Charge =  0 Multiplicity = 1

 SCF Done:  E(RB3LYP) =  -558.246954699     A.U. after    1 cycles

  Exact polarizability: 169.220   4.167 125.539  -3.735   4.222  75.849
 Approx polarizability: 231.738  18.208 212.815  -6.952  11.023 113.269

 ******    1 imaginary frequencies (negative Signs) ******

                      1                      2                      3
                      A                      A                      A
 Frequencies --    -52.3666                25.8485                57.9262
 Red. masses --      1.0295                 4.3792                 2.7627
 Frc consts  --      0.0017                 0.0017                 0.0055
 IR Inten    --      0.2238                 2.8844                 0.1593

                      4                      5                      6
                      A                      A                      A
 Frequencies --     94.7515               154.4781               184.3732
 Red. masses --      4.0510                 3.3759                 2.6416
 Frc consts  --      0.0214                 0.0475                 0.0529
 IR Inten    --      0.1695                 1.1696                 0.1425

                      7                      8                      9
                      A                      A                      A
 Frequencies --    205.8703               212.6634               222.5508
 Red. masses --      1.5721                 1.2953                 1.2131
 Frc consts  --      0.0393                 0.0345                 0.0354
 IR Inten    --      1.0615                 0.7599                 1.2403

                     10                     11                     12
                      A                      A                      A
 Frequencies --    243.1090               281.9134               299.5134
 Red. masses --      1.2415                 3.1474                 3.2503
 Frc consts  --      0.0432                 0.1474                 0.1718
 IR Inten    --      1.0315                 0.1422                 0.5756

                     13                     14                     15
                      A                      A                      A
 Frequencies --    320.2058               347.5035               386.1594
 Red. masses --      3.6907                 3.3424                 3.9654
 Frc consts  --      0.2230                 0.2378                 0.3484
 IR Inten    --      2.1408                 7.8760                 1.4439

                     16                     17                     18
                      A                      A                      A
 Frequencies --    417.9509               447.5855               500.4327
 Red. masses --      2.9437                 2.5679                 3.3712
 Frc consts  --      0.3030                 0.3031                 0.4974
 IR Inten    --      7.8176                 5.7359                 2.7561

                     19                     20                     21
                      A                      A                      A
 Frequencies --    561.1431               569.4998               618.5543
 Red. masses --      5.1078                 3.9660                 4.7821
 Frc consts  --      0.9476                 0.7579                 1.0780
 IR Inten    --      0.4908                 1.4386                 3.5103

                     22                     23                     24
                      A                      A                      A
 Frequencies --    704.9906               733.0957               773.3377
 Red. masses --      4.4569                 3.4904                 5.4167
 Frc consts  --      1.3051                 1.1052                 1.9087
 IR Inten    --      0.8529                 2.1579                 2.8462

                     25                     26                     27
                      A                      A                      A
 Frequencies --    780.2575               880.2076               895.2663
 Red. masses --      3.4168                 2.9253                 1.2956
 Frc consts  --      1.2256                 1.3353                 0.6118
 IR Inten    --      4.6469                 6.0909                 6.1662

                     28                     29                     30
                      A                      A                      A
 Frequencies --    941.5261               951.2721               956.1949
 Red. masses --      1.9502                 1.4457                 1.5169
 Frc consts  --      1.0186                 0.7708                 0.8171
 IR Inten    --     12.2865                 8.0328                 2.0338

                     31                     32                     33
                      A                      A                      A
 Frequencies --    984.9857               998.1115              1015.3829
 Red. masses --      1.4514                 4.1062                 1.4879
 Frc consts  --      0.8296                 2.4102                 0.9038
 IR Inten    --      1.6817                72.0478                 5.0082

                     34                     35                     36
                      A                      A                      A
 Frequencies --   1053.9610              1071.8451              1073.3761
 Red. masses --      1.5477                 1.6106                 1.5526
 Frc consts  --      1.0130                 1.0902                 1.0540
 IR Inten    --      7.9881                 8.5525                 0.1466

                     37                     38                     39
                      A                      A                      A
 Frequencies --   1111.9259              1138.2668              1182.3610
 Red. masses --      1.5205                 2.5708                 2.4498
 Frc consts  --      1.1076                 1.9625                 2.0178
 IR Inten    --      5.8792                 8.0217                49.3179

                     40                     41                     42
                      A                      A                      A
 Frequencies --   1209.7169              1262.2750              1275.6588
 Red. masses --      1.7674                 2.4655                 3.7313
 Frc consts  --      1.5239                 2.3145                 3.5775
 IR Inten    --      0.8387                81.6812                 1.6372

                     43                     44                     45
                      A                      A                      A
 Frequencies --   1318.8988              1331.4461              1359.5133
 Red. masses --      4.7280                 1.6077                 1.5105
 Frc consts  --      4.8457                 1.6792                 1.6449
 IR Inten    --      2.4528                 7.7642                19.3500

                     46                     47                     48
                      A                      A                      A
 Frequencies --   1395.2961              1404.2241              1428.3546
 Red. masses --      1.9243                 2.5812                 1.2662
 Frc consts  --      2.2073                 2.9988                 1.5220
 IR Inten    --     23.4065                 7.6821                 4.0969

                     49                     50                     51
                      A                      A                      A
 Frequencies --   1434.7102              1442.8301              1447.5408
 Red. masses --      1.4149                 1.2161                 1.2235
 Frc consts  --      1.7160                 1.4915                 1.5105
 IR Inten    --      7.5219                 5.8928                 9.4163

                     52                     53                     54
                      A                      A                      A
 Frequencies --   1502.2648              1504.5519              1508.6137
 Red. masses --      1.1110                 1.0995                 1.1141
 Frc consts  --      1.4773                 1.4665                 1.4939
 IR Inten    --     33.8919                10.3452                25.1231

                     55                     56                     57
                      A                      A                      A
 Frequencies --   1514.6380              1516.6194              1518.5424
 Red. masses --      1.0452                 1.0418                 1.0487
 Frc consts  --      1.4128                 1.4119                 1.4248
 IR Inten    --      6.0607                 1.2851                 2.5419

                     58                     59                     60
                      A                      A                      A
 Frequencies --   1531.5574              1539.8616              1543.2003
 Red. masses --      1.0499                 1.2619                 1.6882
 Frc consts  --      1.4510                 1.7629                 2.3687
 IR Inten    --      6.3495                 4.1307                13.2298

                     61                     62                     63
                      A                      A                      A
 Frequencies --   1591.6398              1654.5758              1760.2706
 Red. masses --      5.2693                 5.8204                11.4058
 Frc consts  --      7.8650                 9.3880                20.8225
 IR Inten    --     68.8131               136.6924               151.8566

                     64                     65                     66
                      A                      A                      A
 Frequencies --   3050.3345              3050.8530              3054.3625
 Red. masses --      1.0720                 1.0396                 1.0437
 Frc consts  --      5.8770                 5.7010                 5.7368
 IR Inten    --     15.3521                13.0229                27.2962

                     67                     68                     69
                      A                      A                      A
 Frequencies --   3062.6921              3066.2108              3102.7658
 Red. masses --      1.0367                 1.0367                 1.1003
 Frc consts  --      5.7293                 5.7425                 6.2413
 IR Inten    --     26.8669                17.4319                14.8299

                     70                     71                     72
                      A                      A                      A
 Frequencies --   3120.9186              3129.9736              3134.3846
 Red. masses --      1.1027                 1.1023                 1.1022
 Frc consts  --      6.3283                 6.3626                 6.3796
 IR Inten    --     13.5034                28.9650                36.1735

                     73                     74                     75
                      A                      A                      A
 Frequencies --   3137.9721              3139.8437              3143.4042
 Red. masses --      1.1000                 1.1025                 1.1021
 Frc consts  --      6.3817                 6.4041                 6.4161
 IR Inten    --      7.9033                18.2489                23.1606

                     76                     77                     78
                      A                      A                      A
 Frequencies --   3162.1904              3185.0871              3198.1725
 Red. masses --      1.0999                 1.0906                 1.0888
 Frc consts  --      6.4801                 6.5188                 6.5617
 IR Inten    --      7.8697                22.0780                19.4186

 - Thermochemistry -
 -------------------
 Temperature   298.150 Kelvin.  Pressure   1.00000 Atm.
 Atom     1 has atomic number  6 and mass  12.00000

 Molecular mass:   177.11536 amu.
 Principal axes and moments of inertia in atomic units:
                           1         2         3
     Eigenvalues --  1191.302183649.122474506.39668
           X            0.99979  -0.02049   0.00050
           Y            0.02049   0.99979   0.00008
           Z           -0.00050  -0.00007   1.00000
 This molecule is an asymmetric top.
 Rotational symmetry number  1.
 Warning -- assumption of classical behavior for rotation
           may cause significant error
 Rotational temperatures (Kelvin)      0.07271     0.02374     0.01922
 Rotational constants (GHZ):           1.51493     0.49457     0.40048
    1 imaginary frequencies ignored.
 Zero-point vibrational energy     628843.1 (Joules/Mol)
                                  150.29712 (Kcal/Mol)
 Warning -- explicit consideration of  20 degrees of freedom as
           vibrations may cause significant error
 Vibrational temperatures:     37.19    83.34   136.33   222.26   265.27
          (Kelvin)            296.20   305.98   320.20   349.78   405.61
                              430.93   460.70   499.98   555.60   601.34
                              643.98   720.01   807.36   819.38   889.96
                             1014.32  1054.76  1112.66  1122.62  1266.42
                             1288.09  1354.65  1368.67  1375.75  1417.17
                             1436.06  1460.91  1516.41  1542.15  1544.35
                             1599.81  1637.71  1701.15  1740.51  1816.13
                             1835.39  1897.60  1915.65  1956.04  2007.52
                             2020.37  2055.08  2064.23  2075.91  2082.69
                             2161.42  2164.71  2170.56  2179.23  2182.08
                             2184.84  2203.57  2215.52  2220.32  2290.01
                             2380.57  2532.64  4388.75  4389.50  4394.55
                             4406.53  4411.59  4464.19  4490.31  4503.33
                             4509.68  4514.84  4517.53  4522.66  4549.69
                             4582.63  4601.46

 Zero-point correction=                           0.239514 (Hartree/Particle)
 Thermal correction to Energy=                    0.252418
 Thermal correction to Enthalpy=                  0.253363
 Thermal correction to Gibbs Free Energy=         0.199840
 Sum of electronic and zero-point Energies=           -558.007441
 Sum of electronic and thermal Energies=              -557.994536
 Sum of electronic and thermal Enthalpies=            -557.993592
 Sum of electronic and thermal Free Energies=         -558.047115

                     E (Thermal)             CV                S
                      KCal/Mol        Cal/Mol-Kelvin    Cal/Mol-Kelvin
 Total                  158.395             48.584            112.648
 Electronic               0.000              0.000              0.000
 Translational            0.889              2.981             41.422
 Rotational               0.889              2.981             31.350
 Vibrational            156.618             42.622             39.877
 Vibration     1          0.593              1.985              6.125
 Vibration     2          0.596              1.974              4.527
 Vibration     3          0.603              1.953              3.560
 Vibration     4          0.620              1.898              2.616
 Vibration     5          0.631              1.861              2.284
 Vibration     6          0.640              1.832              2.080
 Vibration     7          0.644              1.822              2.021
 Vibration     8          0.648              1.807              1.938
 Vibration     9          0.659              1.774              1.780
 Vibration    10          0.681              1.707              1.522
 Vibration    11          0.692              1.675              1.420
 Vibration    12          0.706              1.635              1.309
 Vibration    13          0.725              1.580              1.177
 Vibration    14          0.755              1.500              1.015
 Vibration    15          0.781              1.431              0.899
 Vibration    16          0.807              1.366              0.803
 Vibration    17          0.856              1.249              0.657
 Vibration    18          0.917              1.115              0.522
 Vibration    19          0.926              1.097              0.505
 Vibration    20          0.978              0.993              0.419

                           ! Non-Optimized Parameters !
 Normal termination of Gaussian 16 at Mon Dec 14 16:41:04 2020.

 ----------------------------------------------------------------------
 # B3LYP/6-311++G(d,p) empiricaldispersion=gd3bj scf=xqc pop=npa geom=c
 heck
 ----------------------------------------------------------------------

 ---------------------------------------
 CID_131016875_JID_3338_Energie_neutraal
 ---------------------------------------
 Structure from the checkpoint file:  "JID_3338.chk"
 Charge =  0 Multiplicity = 1

 SCF Done:  E(RB3LYP) =  -558.396527607     A.U. after   15 cycles
 Normal termination of Gaussian 16 at Mon Dec 14 16:43:46 2020.

 ----------------------------------------------------------------------
 # B3LYP/6-311++G(d,p) empiricaldispersion=gd3bj scf=xqc pop=npa geom=c
 heck
 ----------------------------------------------------------------------

 -------------------------------------
 CID_131016875_JID_3338_Energie_kation
 -------------------------------------
 Structure from the checkpoint file:  "JID_3338.chk"
 Charge =  1 Multiplicity = 2

 SCF Done:  E(UB3LYP) =  -558.076324067     A.U. after   28 cycles
 Normal termination of Gaussian 16 at Mon Dec 14 16:50:09 2020.
 Gaussian 16:  ES64L-G16RevA.03 25-Dec-2016

 ----------------------------------------------------------------------
 # B3LYP/6-311++G(d,p) empiricaldispersion=gd3bj scf=xqc pop=npa geom=c
 heck
 ----------------------------------------------------------------------

 ------------------------------------
 CID_131016875_JID_3338_Energie_anion
 ------------------------------------
 Structure from the checkpoint file:  "JID_3338.chk"
 Charge = -1 Multiplicity = 2

                         Standard orientation:
 ---------------------------------------------------------------------
 Center     Atomic      Atomic             Coordinates (Angstroms)
 Number     Number       Type             X           Y           Z
 ---------------------------------------------------------------------
      1          6           0       -0.574450    2.597779    0.336143
      2          6           0       -0.952542    1.159577    0.101618
      3          6           0       -2.297641    0.797611    0.140528
      4          6           0       -2.702489   -0.525230   -0.070437
      5          7           0       -1.818705   -1.504519   -0.317319
      6          6           0       -0.527352   -1.168562   -0.348509
      7          6           0       -0.016655    0.123275   -0.152587
      8          6           0        1.453807    0.386587   -0.227948
      9          8           0        1.884232    1.530093   -0.304389
     10          6           0        2.432253   -0.791947   -0.156806
     11          6           0        3.835577   -0.357456   -0.583454
     12          6           0        2.434201   -1.365611    1.275156
     13          6           0       -4.157860   -0.909730   -0.025650
     14          1           0       -0.129995    3.038714   -0.560159
     15          1           0       -1.458589    3.176832    0.620361
     16          1           0        0.183041    2.691657    1.119096
     17          1           0       -3.047808    1.558737    0.339467
     18          1           0        0.148504   -1.993420   -0.554800
     19          1           0        2.088458   -1.578634   -0.839865
     20          1           0        4.216761    0.424915    0.078600
     21          1           0        4.520455   -1.211517   -0.548169
     22          1           0        3.834477    0.045709   -1.600587
     23          1           0        1.443903   -1.715768    1.580947
     24          1           0        3.131363   -2.207489    1.342556
     25          1           0        2.759023   -0.600027    1.989107
     26          1           0       -4.591155   -0.697769    0.959449
     27          1           0       -4.739082   -0.342984   -0.762932
     28          1           0       -4.263372   -1.975828   -0.235053
 ---------------------------------------------------------------------

 SCF Done:  E(UB3LYP) =  -558.405721783     A.U. after   30 cycles

 The electronic state is 2-A.
 Alpha  occ. eigenvalues --  -18.91308 -14.14969 -10.06051 -10.04218 -10.04158
 Alpha  occ. eigenvalues --  -10.03889 -10.03625 -10.03607 -10.03589 -10.03183
 Alpha  occ. eigenvalues --  -10.02447 -10.02102 -10.01107  -0.85839  -0.78553
 Alpha  occ. eigenvalues --   -0.66607  -0.66153  -0.63395  -0.57439  -0.55814
 Alpha  occ. eigenvalues --   -0.55220  -0.48966  -0.47406  -0.43275  -0.38316
 Alpha  occ. eigenvalues --   -0.35250  -0.34874  -0.31945  -0.31478  -0.29971
 Alpha  occ. eigenvalues --   -0.29005  -0.28485  -0.27720  -0.27070  -0.26235
 Alpha  occ. eigenvalues --   -0.25903  -0.24264  -0.23134  -0.23088  -0.22565
 Alpha  occ. eigenvalues --   -0.22112  -0.20688  -0.20447  -0.19433  -0.12507
 Alpha  occ. eigenvalues --   -0.11096  -0.10672  -0.07492   0.05042
 Alpha virt. eigenvalues --    0.08488   0.08750   0.10209   0.10474   0.11205
 Alpha virt. eigenvalues --    0.11647   0.11768   0.12576   0.12786   0.13624
 Alpha virt. eigenvalues --    0.13756   0.14517   0.14814   0.15180   0.16055

  Beta  occ. eigenvalues --  -18.90719 -14.15070 -10.05732 -10.04044 -10.03919
  Beta  occ. eigenvalues --  -10.03704 -10.03658 -10.03552 -10.03384 -10.03179
  Beta  occ. eigenvalues --  -10.02464 -10.02198 -10.01002  -0.84793  -0.78298
  Beta  occ. eigenvalues --   -0.66313  -0.65958  -0.62972  -0.57180  -0.55767
  Beta  occ. eigenvalues --   -0.55164  -0.48520  -0.47159  -0.42880  -0.37813
  Beta  occ. eigenvalues --   -0.35101  -0.34691  -0.31643  -0.31388  -0.29401
  Beta  occ. eigenvalues --   -0.28655  -0.28276  -0.27410  -0.27019  -0.26197
  Beta  occ. eigenvalues --   -0.25686  -0.24058  -0.22917  -0.22412  -0.22352
  Beta  occ. eigenvalues --   -0.21688  -0.20485  -0.20130  -0.17496  -0.11824
  Beta  occ. eigenvalues --   -0.11081  -0.08882  -0.07010
  Beta virt. eigenvalues --    0.08408   0.08702   0.10147   0.10428   0.10943
  Beta virt. eigenvalues --    0.11410   0.11687   0.12379   0.12663   0.13046
  Beta virt. eigenvalues --    0.13610   0.13747   0.14462   0.14731   0.15123

 Mulliken charges and spin densities:
               1          2
     1  C   -0.567118  -0.017670
     2  C    1.046745   0.162617
     3  C    0.083065  -0.046653
     4  C   -0.318640   0.240263
     5  N    0.026007  -0.057852
     6  C   -0.947600   0.161186
     7  C    0.395812   0.029421
     8  C   -0.815319   0.161568
     9  O   -0.359099   0.197680
    10  C    0.427018   0.110895
    11  C   -0.623694   0.022779
    12  C   -0.494998  -0.180889
    13  C   -0.586520  -0.044541
    14  H    0.168960   0.007484
    15  H    0.084500  -0.000587
    16  H    0.153420   0.008569
    17  H    0.106585   0.004430
    18  H    0.141940   0.015641
    19  H    0.066178   0.031149
    20  H    0.156444  -0.005727
    21  H    0.094529   0.021938
    22  H    0.139940   0.003658
    23  H    0.159254  -0.007174
    24  H    0.000609   0.106987
    25  H    0.121025   0.015344
    26  H    0.105867   0.028010
    27  H    0.102398   0.029972
    28  H    0.132693   0.001502
 Sum of Mulliken charges =  -1.00000   1.00000

 Dipole moment (field-independent basis, Debye):
    X=             -0.3689    Y=             -0.0859    Z=              0.8129  Tot=              0.8968
 Quadrupole moment (field-independent basis, Debye-Ang):
   XX=           -114.8913   YY=           -101.1331   ZZ=            -88.5759
   XY=             -9.3659   XZ=             -0.7452   YZ=              1.1032

 Summary of Natural Population Analysis:

                                       Natural Population
                Natural  -----------------------------------------------
    Atom  No    Charge         Core      Valence    Rydberg      Total
 -----------------------------------------------------------------------
      C    1   -0.29566      0.99964     2.29110    0.00491     3.29566
      C    2    0.06505      0.99950     1.92767    0.00778     2.93495
      C    3   -0.15621      0.99948     2.14932    0.00741     3.15621
      C    4    0.18115      0.99956     1.80661    0.01268     2.81885
      N    5   -0.27564      0.99969     2.76455    0.01140     3.77564
      C    6    0.07180      0.99957     1.91577    0.01287     2.92820
      C    7   -0.07609      0.99943     2.06605    0.01061     3.07609
      C    8    0.31136      0.99962     1.66657    0.02245     2.68864
      O    9   -0.25351      0.99988     3.24760    0.00603     4.25351
      C   10   -0.15263      0.99959     2.14330    0.00974     3.15263
      C   11   -0.28069      0.99966     2.27502    0.00601     3.28069
      C   12   -0.27781      0.99965     2.27347    0.00469     3.27781
      C   13   -0.30120      0.99965     2.29729    0.00426     3.30120
      H   14    0.11267      0.00000     0.38634    0.00099     0.38733
      H   15    0.08426      0.00000     0.41455    0.00119     0.41574
      H   16    0.11062      0.00000     0.38835    0.00102     0.38938
      H   17    0.08910      0.00000     0.40969    0.00121     0.41090
      H   18    0.07670      0.00000     0.41980    0.00350     0.42330
      H   19    0.09384      0.00000     0.40325    0.00290     0.40616
      H   20    0.10143      0.00000     0.39751    0.00106     0.39857
      H   21    0.08587      0.00000     0.41309    0.00103     0.41413
      H   22    0.10006      0.00000     0.39913    0.00081     0.39994
      H   23    0.10366      0.00000     0.39532    0.00102     0.39634
      H   24    0.08881      0.00000     0.40970    0.00149     0.41119
      H   25    0.09484      0.00000     0.40406    0.00110     0.40516
      H   26    0.09765      0.00000     0.40140    0.00094     0.40235
      H   27    0.09748      0.00000     0.40158    0.00094     0.40252
      H   28    0.10306      0.00000     0.39571    0.00123     0.39694
 =======================================================================
   * Total *    0.00000     12.99490    34.86382    0.14128    48.00000

 Normal termination of Gaussian 16 at Mon Dec 14 16:56:57 2020.
