 Gaussian 16, Revision A.03,

 -----------------------------------------------------------
 # opt freq B3LYP/6-31G(d) empiricaldispersion=gd3bj scf=xqc
 -----------------------------------------------------------

 ------------------------------
 CID_83265921_JID_8745_neutraal
 ------------------------------
 Symbolic Z-matrix:
 Charge =  0 Multiplicity = 1

 SCF Done:  E(RB3LYP) =  -780.644606341     A.U. after   14 cycles
 SCF Done:  E(RB3LYP) =  -780.651230447     A.U. after   12 cycles
 SCF Done:  E(RB3LYP) =  -780.652859838     A.U. after   12 cycles
 SCF Done:  E(RB3LYP) =  -780.653908502     A.U. after   12 cycles
 SCF Done:  E(RB3LYP) =  -780.654120532     A.U. after   11 cycles
 SCF Done:  E(RB3LYP) =  -780.654251358     A.U. after   10 cycles
 SCF Done:  E(RB3LYP) =  -780.654290041     A.U. after   11 cycles
 SCF Done:  E(RB3LYP) =  -780.654306113     A.U. after   10 cycles
 SCF Done:  E(RB3LYP) =  -780.654338097     A.U. after   11 cycles
 SCF Done:  E(RB3LYP) =  -780.654366793     A.U. after   12 cycles
 SCF Done:  E(RB3LYP) =  -780.662283841     A.U. after   11 cycles
 SCF Done:  E(RB3LYP) =  -780.662289047     A.U. after   10 cycles
 SCF Done:  E(RB3LYP) =  -780.662290109     A.U. after    8 cycles
 SCF Done:  E(RB3LYP) =  -780.662290223     A.U. after    7 cycles
 SCF Done:  E(RB3LYP) =  -780.662290266     A.U. after    7 cycles
 Optimization completed.
    -- Stationary point found.
 Normal termination of Gaussian 16 at Fri Dec 11 22:05:42 2020.

 --------------------------------------------------------------------
 #N Geom=AllCheck Guess=TCheck SCRF=Check GenChk RB3LYP/6-31G(d) Freq
 --------------------------------------------------------------------

 Structure from the checkpoint file:  "JID_8745.chk"
 ------------------------------
 CID_83265921_JID_8745_neutraal
 ------------------------------
 Charge =  0 Multiplicity = 1

 SCF Done:  E(RB3LYP) =  -780.662290266     A.U. after    1 cycles

  Exact polarizability: 224.882  -9.523 164.060  14.849   7.713 112.662
 Approx polarizability: 316.622  -9.031 253.631  24.931  17.251 174.620

                      1                      2                      3
                      A                      A                      A
 Frequencies --     23.3718                28.5805                43.9354
 Red. masses --      4.9612                 4.8163                 4.2740
 Frc consts  --      0.0016                 0.0023                 0.0049
 IR Inten    --      0.6108                 0.8128                 0.0626

                      4                      5                      6
                      A                      A                      A
 Frequencies --     55.6339                80.7699               116.4339
 Red. masses --      4.8208                 3.9776                 4.2674
 Frc consts  --      0.0088                 0.0153                 0.0341
 IR Inten    --      4.3941                 0.2414                 6.4861

                      7                      8                      9
                      A                      A                      A
 Frequencies --    139.0530               141.9879               193.7986
 Red. masses --      3.7446                 4.2344                 1.1149
 Frc consts  --      0.0427                 0.0503                 0.0247
 IR Inten    --      1.6205                 3.3034                 0.2036

                     10                     11                     12
                      A                      A                      A
 Frequencies --    207.6335               236.7717               242.6758
 Red. masses --      2.9003                 2.9193                 3.1002
 Frc consts  --      0.0737                 0.0964                 0.1076
 IR Inten    --      0.7733                 2.0721                 2.8002

                     13                     14                     15
                      A                      A                      A
 Frequencies --    291.0584               308.2437               311.5566
 Red. masses --      2.7739                 2.6145                 2.7350
 Frc consts  --      0.1385                 0.1464                 0.1564
 IR Inten    --      1.1671                 4.5774                 1.9431

                     16                     17                     18
                      A                      A                      A
 Frequencies --    342.0022               375.2919               384.8361
 Red. masses --      2.6637                 1.8516                 1.3711
 Frc consts  --      0.1836                 0.1536                 0.1196
 IR Inten    --      1.8844                 7.1217                20.6345

                     19                     20                     21
                      A                      A                      A
 Frequencies --    403.1557               441.5045               468.7549
 Red. masses --      1.8542                 1.9341                 2.7784
 Frc consts  --      0.1776                 0.2221                 0.3597
 IR Inten    --     43.2736                29.1661                21.7116

                     22                     23                     24
                      A                      A                      A
 Frequencies --    469.3135               535.4087               557.1272
 Red. masses --      2.3250                 1.6831                 2.3913
 Frc consts  --      0.3017                 0.2843                 0.4373
 IR Inten    --     48.3315               280.0147                28.9610

                     25                     26                     27
                      A                      A                      A
 Frequencies --    575.3875               621.4594               638.6627
 Red. masses --      2.6792                 3.9478                 4.0416
 Frc consts  --      0.5226                 0.8983                 0.9713
 IR Inten    --     47.2818                 7.0170                 1.9425

                     28                     29                     30
                      A                      A                      A
 Frequencies --    673.3393               682.9873               686.8719
 Red. masses --      3.2304                 3.5102                 5.2078
 Frc consts  --      0.8629                 0.9647                 1.4476
 IR Inten    --      1.5729                21.4323                 1.9963

                     31                     32                     33
                      A                      A                      A
 Frequencies --    742.4004               760.4986               769.2580
 Red. masses --      2.4228                 1.2615                 3.7361
 Frc consts  --      0.7868                 0.4299                 1.3026
 IR Inten    --      0.7295                 8.7691                 4.9328

                     34                     35                     36
                      A                      A                      A
 Frequencies --    780.0105               800.0864               803.0063
 Red. masses --      1.6879                 2.0189                 1.8006
 Frc consts  --      0.6051                 0.7614                 0.6841
 IR Inten    --     10.7947                10.7257                31.5187

                     37                     38                     39
                      A                      A                      A
 Frequencies --    811.9786               823.3846               851.3166
 Red. masses --      2.1128                 2.9446                 1.3137
 Frc consts  --      0.8207                 1.1762                 0.5610
 IR Inten    --     48.5159                 1.9065                 1.1722

                     40                     41                     42
                      A                      A                      A
 Frequencies --    925.2979               930.0964               946.5595
 Red. masses --      5.4258                 2.4298                 1.3498
 Frc consts  --      2.7370                 1.2384                 0.7126
 IR Inten    --     20.7388                 1.1380                 2.8331

                     43                     44                     45
                      A                      A                      A
 Frequencies --    955.3737               975.2894              1023.9525
 Red. masses --      1.9967                 2.5329                 1.6898
 Frc consts  --      1.0738                 1.4195                 1.0439
 IR Inten    --      4.3031                 0.8168                 1.0834

                     46                     47                     48
                      A                      A                      A
 Frequencies --   1037.0841              1063.5162              1076.9748
 Red. masses --      1.8034                 2.8493                 1.4442
 Frc consts  --      1.1428                 1.8988                 0.9869
 IR Inten    --     30.7799                 4.2688                 0.9954

                     49                     50                     51
                      A                      A                      A
 Frequencies --   1096.3537              1101.0769              1109.3493
 Red. masses --      1.7706                 2.0401                 1.3836
 Frc consts  --      1.2539                 1.4573                 1.0032
 IR Inten    --     24.1984                 2.9753                25.8837

                     52                     53                     54
                      A                      A                      A
 Frequencies --   1125.6606              1138.5853              1151.1168
 Red. masses --      2.7084                 1.5661                 2.1834
 Frc consts  --      2.0220                 1.1962                 1.7046
 IR Inten    --      0.8330                 8.2312                 7.8921

                     55                     56                     57
                      A                      A                      A
 Frequencies --   1206.3272              1220.6243              1233.5560
 Red. masses --      1.3887                 1.8521                 1.8568
 Frc consts  --      1.1906                 1.6258                 1.6647
 IR Inten    --     16.4512                33.4335                34.3000

                     58                     59                     60
                      A                      A                      A
 Frequencies --   1263.3503              1266.7987              1291.1279
 Red. masses --      1.7585                 1.6879                 1.4998
 Frc consts  --      1.6536                 1.5960                 1.4730
 IR Inten    --     15.4031               137.1775                56.6627

                     61                     62                     63
                      A                      A                      A
 Frequencies --   1321.8860              1341.9962              1342.7819
 Red. masses --      1.7275                 2.9657                 1.3371
 Frc consts  --      1.7785                 3.1469                 1.4204
 IR Inten    --     14.1480                15.9249                13.5606

                     64                     65                     66
                      A                      A                      A
 Frequencies --   1362.4258              1378.4376              1386.5391
 Red. masses --      1.4565                 2.5539                 2.1591
 Frc consts  --      1.5929                 2.8591                 2.4456
 IR Inten    --      7.0484                11.8285                15.8225

                     67                     68                     69
                      A                      A                      A
 Frequencies --   1393.4318              1396.5510              1415.0382
 Red. masses --      2.3166                 3.0127                 1.5346
 Frc consts  --      2.6501                 3.4619                 1.8104
 IR Inten    --     28.3641                33.5737                17.3382

                     70                     71                     72
                      A                      A                      A
 Frequencies --   1424.3098              1438.3307              1457.1083
 Red. masses --      1.5825                 1.4337                 1.5564
 Frc consts  --      1.8915                 1.7475                 1.9469
 IR Inten    --     26.8739                 0.0333                 2.4455

                     73                     74                     75
                      A                      A                      A
 Frequencies --   1461.8660              1508.1161              1514.2468
 Red. masses --      1.5721                 1.0924                 1.0448
 Frc consts  --      1.9795                 1.4638                 1.4115
 IR Inten    --      7.9935                 2.3531                 6.1775

                     76                     77                     78
                      A                      A                      A
 Frequencies --   1517.3154              1519.3261              1526.8867
 Red. masses --      1.1325                 1.2582                 1.2413
 Frc consts  --      1.5361                 1.7111                 1.7051
 IR Inten    --     36.6627                20.6682                 6.8569

                     79                     80                     81
                      A                      A                      A
 Frequencies --   1528.9765              1551.9336              1557.5827
 Red. masses --      1.3204                 3.8743                 2.0298
 Frc consts  --      1.8187                 5.4978                 2.9013
 IR Inten    --     11.7977                18.8521                88.1582

                     82                     83                     84
                      A                      A                      A
 Frequencies --   1560.1039              1567.2797              1626.8715
 Red. masses --      1.8455                 2.4710                 4.1644
 Frc consts  --      2.6465                 3.5761                 6.4939
 IR Inten    --     14.9465               202.5316                62.0840

                     85                     86                     87
                      A                      A                      A
 Frequencies --   1677.7833              1699.1582              3013.2540
 Red. masses --      2.8720                 1.4833                 1.0463
 Frc consts  --      4.7633                 2.5233                 5.5974
 IR Inten    --    269.9171               311.6330                62.0660

                     88                     89                     90
                      A                      A                      A
 Frequencies --   3024.0959              3037.5990              3050.1020
 Red. masses --      1.0729                 1.0666                 1.0633
 Frc consts  --      5.7811                 5.7985                 5.8284
 IR Inten    --     32.3712                59.7088                45.3824

                     91                     92                     93
                      A                      A                      A
 Frequencies --   3062.7059              3063.8718              3077.6785
 Red. masses --      1.0939                 1.0671                 1.0997
 Frc consts  --      6.0456                 5.9021                 6.1374
 IR Inten    --     27.3564                51.2975                 7.6609

                     94                     95                     96
                      A                      A                      A
 Frequencies --   3093.2859              3123.8454              3139.0241
 Red. masses --      1.1001                 1.0969                 1.0998
 Frc consts  --      6.2019                 6.3066                 6.3848
 IR Inten    --     60.1911                11.2143                 5.1386

                     97                     98                     99
                      A                      A                      A
 Frequencies --   3152.8500              3169.2061              3177.4854
 Red. masses --      1.0900                 1.0903                 1.0884
 Frc consts  --      6.3837                 6.4520                 6.4746
 IR Inten    --     39.3374                15.4435                 2.2438

                    100                    101                    102
                      A                      A                      A
 Frequencies --   3254.6666              3256.8717              3287.1199
 Red. masses --      1.0930                 1.0946                 1.1038
 Frc consts  --      6.8215                 6.8409                 7.0270
 IR Inten    --     11.9818                 1.8197                 4.2687

                    103                    104                    105
                      A                      A                      A
 Frequencies --   3571.6591              3618.7804              3673.7578
 Red. masses --      1.0473                 1.0761                 1.0994
 Frc consts  --      7.8717                 8.3026                 8.7421
 IR Inten    --     21.4436                19.1258                14.0630

 - Thermochemistry -
 -------------------
 Temperature   298.150 Kelvin.  Pressure   1.00000 Atm.
 Atom     1 has atomic number  6 and mass  12.00000

 Molecular mass:   245.16405 amu.
 Principal axes and moments of inertia in atomic units:
                           1         2         3
     Eigenvalues --  2119.167568689.406809932.23053
           X            0.99985  -0.01689   0.00261
           Y            0.01688   0.99985   0.00365
           Z           -0.00267  -0.00360   0.99999
 This molecule is an asymmetric top.
 Rotational symmetry number  1.
 Warning -- assumption of classical behavior for rotation
           may cause significant error
 Rotational temperatures (Kelvin)      0.04087     0.00997     0.00872
 Rotational constants (GHZ):           0.85163     0.20769     0.18171
 Zero-point vibrational energy     836678.7 (Joules/Mol)
                                  199.97102 (Kcal/Mol)
 Warning -- explicit consideration of  25 degrees of freedom as
           vibrations may cause significant error
 Vibrational temperatures:     33.63    41.12    63.21    80.04   116.21
          (Kelvin)            167.52   200.07   204.29   278.83   298.74
                              340.66   349.16   418.77   443.49   448.26
                              492.06   539.96   553.69   580.05   635.23
                              674.43   675.24   770.33   801.58   827.85
                              894.14   918.89   968.79   982.67   988.26
                             1068.15  1094.19  1106.79  1122.26  1151.15
                             1155.35  1168.26  1184.67  1224.85  1331.30
                             1338.20  1361.89  1374.57  1403.22  1473.24
                             1492.13  1530.16  1549.53  1577.41  1584.20
                             1596.11  1619.57  1638.17  1656.20  1735.64
                             1756.21  1774.81  1817.68  1822.64  1857.65
                             1901.90  1930.83  1931.96  1960.23  1983.26
                             1994.92  2004.84  2009.33  2035.92  2049.26
                             2069.44  2096.45  2103.30  2169.84  2178.66
                             2183.08  2185.97  2196.85  2199.86  2232.89
                             2241.01  2244.64  2254.97  2340.71  2413.96
                             2444.71  4335.40  4351.00  4370.43  4388.42
                             4406.55  4408.23  4428.09  4450.55  4494.52
                             4516.36  4536.25  4559.78  4571.69  4682.74
                             4685.91  4729.43  5138.82  5206.62  5285.72

 Zero-point correction=                           0.318674 (Hartree/Particle)
 Thermal correction to Energy=                    0.335873
 Thermal correction to Enthalpy=                  0.336818
 Thermal correction to Gibbs Free Energy=         0.272092
 Sum of electronic and zero-point Energies=           -780.343616
 Sum of electronic and thermal Energies=              -780.326417
 Sum of electronic and thermal Enthalpies=            -780.325473
 Sum of electronic and thermal Free Energies=         -780.390198

                     E (Thermal)             CV                S
                      KCal/Mol        Cal/Mol-Kelvin    Cal/Mol-Kelvin
 Total                  210.764             66.178            136.227
 Electronic               0.000              0.000              0.000
 Translational            0.889              2.981             42.391
 Rotational               0.889              2.981             33.569
 Vibrational            208.986             60.216             60.267
 Vibration     1          0.593              1.985              6.325
 Vibration     2          0.593              1.984              5.926
 Vibration     3          0.595              1.980              5.073
 Vibration     4          0.596              1.975              4.606
 Vibration     5          0.600              1.962              3.872
 Vibration     6          0.608              1.936              3.159
 Vibration     7          0.615              1.914              2.817
 Vibration     8          0.615              1.911              2.777
 Vibration     9          0.635              1.848              2.191
 Vibration    10          0.641              1.829              2.064
 Vibration    11          0.656              1.784              1.827
 Vibration    12          0.659              1.775              1.783
 Vibration    13          0.687              1.690              1.468
 Vibration    14          0.698              1.658              1.372
 Vibration    15          0.700              1.652              1.354
 Vibration    16          0.721              1.592              1.203
 Vibration    17          0.746              1.523              1.058
 Vibration    18          0.754              1.503              1.020
 Vibration    19          0.769              1.463              0.951
 Vibration    20          0.801              1.380              0.822
 Vibration    21          0.826              1.319              0.741
 Vibration    22          0.826              1.318              0.739
 Vibration    23          0.890              1.172              0.575
 Vibration    24          0.913              1.124              0.530
 Vibration    25          0.932              1.084              0.494

 Optimization completed.
    -- Stationary point found.
 Normal termination of Gaussian 16 at Fri Dec 11 22:22:15 2020.

 ----------------------------------------------------------------------
 # B3LYP/6-311++G(d,p) empiricaldispersion=gd3bj scf=xqc pop=npa geom=c
 heck
 ----------------------------------------------------------------------

 --------------------------------------
 CID_83265921_JID_8745_Energie_neutraal
 --------------------------------------
 Structure from the checkpoint file:  "JID_8745.chk"
 Charge =  0 Multiplicity = 1

 SCF Done:  E(RB3LYP) =  -780.879748990     A.U. after   15 cycles
 Normal termination of Gaussian 16 at Fri Dec 11 22:29:41 2020.

 ----------------------------------------------------------------------
 # B3LYP/6-311++G(d,p) empiricaldispersion=gd3bj scf=xqc pop=npa geom=c
 heck
 ----------------------------------------------------------------------

 ------------------------------------
 CID_83265921_JID_8745_Energie_kation
 ------------------------------------
 Structure from the checkpoint file:  "JID_8745.chk"
 Charge =  1 Multiplicity = 2

 SCF Done:  E(UB3LYP) =  -780.611928622     A.U. after   25 cycles
 Normal termination of Gaussian 16 at Fri Dec 11 22:46:58 2020.
 Gaussian 16:  ES64L-G16RevA.03 25-Dec-2016

 ----------------------------------------------------------------------
 # B3LYP/6-311++G(d,p) empiricaldispersion=gd3bj scf=xqc pop=npa geom=c
 heck
 ----------------------------------------------------------------------

 -----------------------------------
 CID_83265921_JID_8745_Energie_anion
 -----------------------------------
 Structure from the checkpoint file:  "JID_8745.chk"
 Charge = -1 Multiplicity = 2

                         Standard orientation:
 ---------------------------------------------------------------------
 Center     Atomic      Atomic             Coordinates (Angstroms)
 Number     Number       Type             X           Y           Z
 ---------------------------------------------------------------------
      1          6           0       -4.223614    2.315291   -0.269120
      2          6           0       -3.276961    1.167270   -0.049090
      3          6           0       -1.929720    1.362959    0.211259
      4          7           0       -1.020422    0.401450    0.430182
      5          6           0       -1.455329   -0.870398    0.397615
      6          6           0       -2.798443   -1.199091    0.139874
      7          6           0       -3.721609   -0.179696   -0.085831
      8          7           0       -5.063127   -0.463066   -0.285748
      9          7           0       -0.526841   -1.872538    0.588918
     10          6           0        0.796827   -1.646158    1.152076
     11          6           0        1.937831   -2.146035    0.255790
     12          6           0        1.891092   -1.635661   -1.189227
     13          6           0        1.821790   -0.108940   -1.330735
     14          7           0        2.851012    0.584581   -0.561806
     15          6           0        2.634697    1.388239    0.541720
     16          6           0        3.883445    1.764914    0.974598
     17          7           0        4.861245    1.216207    0.172654
     18          6           0        4.205573    0.515555   -0.732975
     19          1           0       -4.679284    2.296935   -1.270825
     20          1           0       -3.699488    3.271033   -0.174568
     21          1           0       -5.045457    2.313178    0.459492
     22          1           0       -1.544010    2.381846    0.245267
     23          1           0       -3.116162   -2.239293    0.124760
     24          1           0       -5.278371   -1.407317   -0.577146
     25          1           0       -5.597908    0.233123   -0.786574
     26          1           0       -0.906116   -2.803780    0.681335
     27          1           0        0.888055   -0.574135    1.319120
     28          1           0        0.872467   -2.131919    2.135223
     29          1           0        2.883387   -1.846557    0.724608
     30          1           0        1.936743   -3.244438    0.233378
     31          1           0        2.771161   -2.016288   -1.723015
     32          1           0        1.010597   -2.046997   -1.697037
     33          1           0        1.917587    0.171105   -2.386172
     34          1           0        0.859790    0.261430   -0.970882
     35          1           0        1.631854    1.599701    0.882327
     36          1           0        4.135802    2.401415    1.812037
     37          1           0        4.652812   -0.054976   -1.536467
 ---------------------------------------------------------------------

 SCF Done:  E(UB3LYP) =  -780.874964466     A.U. after   33 cycles
 SCF Done:  E(UB3LYP) =  -780.874964466     a.u. after    1 cycles

 The electronic state is 2-A.
 Alpha  occ. eigenvalues --  -14.28647 -14.22920 -14.22434 -14.21256 -14.19682
 Alpha  occ. eigenvalues --  -10.14549 -10.13797 -10.12665 -10.12614 -10.11259
 Alpha  occ. eigenvalues --  -10.10937 -10.10528 -10.10065 -10.08912 -10.08350
 Alpha  occ. eigenvalues --  -10.07899 -10.07646 -10.06589  -0.93530  -0.87154
 Alpha  occ. eigenvalues --   -0.82954  -0.80593  -0.80216  -0.71180  -0.69337
 Alpha  occ. eigenvalues --   -0.67284  -0.65925  -0.63624  -0.59838  -0.57583
 Alpha  occ. eigenvalues --   -0.53680  -0.51791  -0.51437  -0.49787  -0.48405
 Alpha  occ. eigenvalues --   -0.45657  -0.43814  -0.43339  -0.39932  -0.39576
 Alpha  occ. eigenvalues --   -0.38007  -0.37159  -0.36287  -0.35602  -0.34960
 Alpha  occ. eigenvalues --   -0.33899  -0.33813  -0.33290  -0.32550  -0.32222
 Alpha  occ. eigenvalues --   -0.31820  -0.30517  -0.30152  -0.29808  -0.27036
 Alpha  occ. eigenvalues --   -0.26436  -0.26200  -0.25486  -0.24397  -0.20119
 Alpha  occ. eigenvalues --   -0.19310  -0.18988  -0.16845  -0.15069  -0.13073
 Alpha  occ. eigenvalues --   -0.11075   0.03631
 Alpha virt. eigenvalues --    0.05437   0.06264   0.07003   0.07598   0.07805
 Alpha virt. eigenvalues --    0.07905   0.08821   0.09143   0.09655   0.09722
 Alpha virt. eigenvalues --    0.10103   0.10548   0.10695   0.11139   0.11532

  Beta  occ. eigenvalues --  -14.28648 -14.22898 -14.22365 -14.21256 -14.19679
  Beta  occ. eigenvalues --  -10.14548 -10.13793 -10.12662 -10.12610 -10.11257
  Beta  occ. eigenvalues --  -10.10932 -10.10524 -10.10064 -10.08901 -10.08340
  Beta  occ. eigenvalues --  -10.07867 -10.07643 -10.06562  -0.93529  -0.87134
  Beta  occ. eigenvalues --   -0.82882  -0.80584  -0.80189  -0.71161  -0.69294
  Beta  occ. eigenvalues --   -0.67261  -0.65905  -0.63601  -0.59799  -0.57552
  Beta  occ. eigenvalues --   -0.53627  -0.51773  -0.51421  -0.49738  -0.48386
  Beta  occ. eigenvalues --   -0.45608  -0.43792  -0.43296  -0.39900  -0.39548
  Beta  occ. eigenvalues --   -0.37970  -0.37119  -0.36218  -0.35589  -0.34938
  Beta  occ. eigenvalues --   -0.33879  -0.33786  -0.33278  -0.32524  -0.32207
  Beta  occ. eigenvalues --   -0.31799  -0.30491  -0.30135  -0.29774  -0.27000
  Beta  occ. eigenvalues --   -0.26409  -0.26179  -0.25462  -0.24363  -0.20100
  Beta  occ. eigenvalues --   -0.19309  -0.18984  -0.16837  -0.15062  -0.13023
  Beta  occ. eigenvalues --   -0.11053
  Beta virt. eigenvalues --    0.05813   0.06434   0.06826   0.07344   0.07834
  Beta virt. eigenvalues --    0.07948   0.08347   0.09083   0.09448   0.09763
  Beta virt. eigenvalues --    0.10080   0.10304   0.10655   0.10972   0.11394

 Mulliken charges and spin densities:
               1          2
     1  C    2.545369  -3.290250
     2  C   -0.419548   1.216442
     3  C   -1.365948   0.964113
     4  N   -0.066261   0.002278
     5  C    1.826158  -2.177720
     6  C   -0.717314   0.383287
     7  C   -0.363833   0.092893
     8  N   -0.289161   0.003898
     9  N   -0.175650   0.156837
    10  C    0.135792  -0.324296
    11  C   -0.234895  -0.223469
    12  C    0.096364  -0.193694
    13  C   -0.376697  -0.030228
    14  N    0.047723   0.005180
    15  C    0.189182  -0.039590
    16  C   -0.554575   0.054491
    17  N   -0.133605   0.003236
    18  C   -0.070191  -0.077507
    19  H   -0.251150   0.414840
    20  H    0.075763   0.057208
    21  H   -0.062585   0.225723
    22  H    0.023267   0.105206
    23  H   -1.080236   1.247167
    24  H   -0.358982   0.619729
    25  H   -0.357178   0.618918
    26  H    0.100313   0.188243
    27  H    0.217621  -0.027398
    28  H   -0.037959   0.215059
    29  H    0.186366  -0.031210
    30  H   -0.250769   0.427363
    31  H    0.084235   0.084320
    32  H   -0.078591   0.233916
    33  H    0.046938   0.160069
    34  H    0.322409  -0.119090
    35  H    0.134964  -0.007742
    36  H    0.134930   0.006430
    37  H    0.077734   0.055350
 Sum of Mulliken charges =  -1.00000   1.00000

 Dipole moment (field-independent basis, Debye):
    X=              8.0059    Y=              3.5008    Z=              1.4427  Tot=              8.8562
 Quadrupole moment (field-independent basis, Debye-Ang):
   XX=           -241.1668   YY=           -156.6220   ZZ=           -135.0050
   XY=            -15.7385   XZ=            -13.5442   YZ=              0.9562

 Summary of Natural Population Analysis:

                                       Natural Population
                Natural  -----------------------------------------------
    Atom  No    Charge         Core      Valence    Rydberg      Total
 -----------------------------------------------------------------------
      C    1   -0.29482      0.99964     2.28908    0.00610     3.29482
      C    2   -0.07614      0.99947     2.06724    0.00944     3.07614
      C    3    0.03994      0.99953     1.94666    0.01386     2.96006
      N    4   -0.29704      0.99967     2.78732    0.01005     3.79704
      C    5    0.20963      0.99953     1.77548    0.01537     2.79037
      C    6   -0.16240      0.99948     2.15308    0.00984     3.16240
      C    7    0.11236      0.99946     1.87570    0.01247     2.88764
      N    8   -0.38844      0.99971     2.87857    0.01017     3.88844
      N    9   -0.31617      0.99967     2.80524    0.01127     3.81617
      C   10   -0.09433      0.99961     2.08284    0.01189     3.09433
      C   11   -0.19580      0.99962     2.18714    0.00904     3.19580
      C   12   -0.19496      0.99962     2.18709    0.00824     3.19496
      C   13   -0.09406      0.99960     2.08386    0.01060     3.09406
      N   14   -0.20518      0.99965     2.69578    0.00975     3.70518
      C   15   -0.03575      0.99956     2.02616    0.01003     3.03575
      C   16   -0.04266      0.99960     2.02985    0.01322     3.04266
      N   17   -0.25732      0.99973     2.74717    0.01042     3.75732
      C   18    0.09836      0.99965     1.88475    0.01725     2.90164
      H   19    0.10249      0.00000     0.39605    0.00146     0.39751
      H   20    0.10212      0.00000     0.39702    0.00086     0.39788
      H   21    0.10333      0.00000     0.39557    0.00110     0.39667
      H   22    0.08433      0.00000     0.41455    0.00112     0.41567
      H   23    0.10426      0.00000     0.39331    0.00243     0.39574
      H   24    0.19363      0.00000     0.29780    0.00857     0.30637
      H   25    0.19287      0.00000     0.30182    0.00531     0.30713
      H   26    0.19077      0.00000     0.30545    0.00377     0.30923
      H   27    0.11005      0.00000     0.38778    0.00217     0.38995
      H   28    0.09073      0.00000     0.40832    0.00095     0.40927
      H   29    0.09928      0.00000     0.39948    0.00124     0.40072
      H   30    0.09881      0.00000     0.40002    0.00117     0.40119
      H   31    0.09533      0.00000     0.40372    0.00095     0.40467
      H   32    0.10840      0.00000     0.39040    0.00120     0.39160
      H   33    0.09752      0.00000     0.40161    0.00087     0.40248
      H   34    0.12079      0.00000     0.37719    0.00202     0.37921
      H   35    0.11346      0.00000     0.38535    0.00119     0.38654
      H   36    0.09503      0.00000     0.40409    0.00089     0.40497
      H   37    0.09158      0.00000     0.40666    0.00175     0.40842
 =======================================================================
   * Total *    0.00000     17.99279    47.76917    0.23804    66.00000

 Normal termination of Gaussian 16 at Fri Dec 11 23:10:32 2020.
