 Gaussian 16, Revision A.03,

 -----------------------------------------------------------
 # opt freq B3LYP/6-31G(d) empiricaldispersion=gd3bj scf=xqc
 -----------------------------------------------------------

 ------------------------------
 CID_80290382_JID_1850_neutraal
 ------------------------------
 Symbolic Z-matrix:
 Charge =  0 Multiplicity = 1

 SCF Done:  E(RB3LYP) =  -498.016119594     A.U. after   14 cycles
 SCF Done:  E(RB3LYP) =  -498.020113549     A.U. after   12 cycles
 SCF Done:  E(RB3LYP) =  -498.020687053     A.U. after   12 cycles
 SCF Done:  E(RB3LYP) =  -498.020585233     A.U. after   11 cycles
 SCF Done:  E(RB3LYP) =  -498.020984715     A.U. after   11 cycles
 SCF Done:  E(RB3LYP) =  -498.021011332     A.U. after    9 cycles
 SCF Done:  E(RB3LYP) =  -498.021017499     A.U. after    9 cycles
 SCF Done:  E(RB3LYP) =  -498.021018855     A.U. after    8 cycles
 SCF Done:  E(RB3LYP) =  -498.021019275     A.U. after    8 cycles
 Optimization completed.
    -- Stationary point found.
 Normal termination of Gaussian 16 at Tue Dec  8 21:21:15 2020.

 --------------------------------------------------------------------
 #N Geom=AllCheck Guess=TCheck SCRF=Check GenChk RB3LYP/6-31G(d) Freq
 --------------------------------------------------------------------

 Structure from the checkpoint file:  "JID_1850.chk"
 ------------------------------
 CID_80290382_JID_1850_neutraal
 ------------------------------
 Charge =  0 Multiplicity = 1

 SCF Done:  E(RB3LYP) =  -498.021019275     A.U. after    1 cycles

  Exact polarizability: 101.487   5.155  83.852  -4.517  -1.950  92.053
 Approx polarizability: 134.534   8.499 117.926  -9.654   1.087 147.204

                      1                      2                      3
                      A                      A                      A
 Frequencies --     68.1867                77.0035               184.6312
 Red. masses --      3.8574                 3.2466                 4.3006
 Frc consts  --      0.0106                 0.0113                 0.0864
 IR Inten    --      0.1116                 0.1342                 6.4664

                      4                      5                      6
                      A                      A                      A
 Frequencies --    213.4627               214.9328               239.1506
 Red. masses --      1.2526                 1.2192                 2.2628
 Frc consts  --      0.0336                 0.0332                 0.0763
 IR Inten    --      2.7598                 0.2041                 4.5812

                      7                      8                      9
                      A                      A                      A
 Frequencies --    298.1798               311.5665               332.6563
 Red. masses --      2.1319                 2.4957                 2.2255
 Frc consts  --      0.1117                 0.1427                 0.1451
 IR Inten    --      3.5366                 6.0571                 3.9738

                     10                     11                     12
                      A                      A                      A
 Frequencies --    361.5315               387.7966               405.6094
 Red. masses --      2.3863                 2.0422                 1.3430
 Frc consts  --      0.1838                 0.1809                 0.1302
 IR Inten    --     14.1076                 4.3545                24.9235

                     13                     14                     15
                      A                      A                      A
 Frequencies --    422.0123               475.7521               515.9236
 Red. masses --      2.2966                 2.8980                 2.9924
 Frc consts  --      0.2410                 0.3865                 0.4693
 IR Inten    --      1.9774                 5.5635                 3.0666

                     16                     17                     18
                      A                      A                      A
 Frequencies --    584.8559               591.4617               706.9526
 Red. masses --      1.7013                 2.5886                 5.3800
 Frc consts  --      0.3429                 0.5335                 1.5842
 IR Inten    --    161.2868                98.9193                 4.7553

                     19                     20                     21
                      A                      A                      A
 Frequencies --    733.8574               753.2736               801.5070
 Red. masses --      4.3580                 4.0149                 1.0567
 Frc consts  --      1.3828                 1.3423                 0.4000
 IR Inten    --     80.2206                 4.2781                 0.4261

                     22                     23                     24
                      A                      A                      A
 Frequencies --    842.6739               888.9977               896.9812
 Red. masses --      3.6017                 2.3536                 2.3067
 Frc consts  --      1.5069                 1.0959                 1.0935
 IR Inten    --     14.2882                 2.2341                46.0044

                     25                     26                     27
                      A                      A                      A
 Frequencies --    935.8388               958.9018               965.9621
 Red. masses --      1.5621                 1.8111                 1.7836
 Frc consts  --      0.8060                 0.9812                 0.9805
 IR Inten    --      2.9393                 8.8135                 1.6483

                     28                     29                     30
                      A                      A                      A
 Frequencies --    987.1947              1009.0621              1029.7274
 Red. masses --      3.7145                 1.6056                 2.5070
 Frc consts  --      2.1328                 0.9632                 1.5662
 IR Inten    --     10.7259                14.2659               105.8568

                     31                     32                     33
                      A                      A                      A
 Frequencies --   1050.0898              1079.4644              1086.2144
 Red. masses --      1.3714                 1.8568                 1.3999
 Frc consts  --      0.8910                 1.2748                 0.9731
 IR Inten    --     12.2667                 4.6370                 2.2653

                     34                     35                     36
                      A                      A                      A
 Frequencies --   1125.2505              1148.4011              1173.0528
 Red. masses --      1.8219                 1.9242                 1.7412
 Frc consts  --      1.3591                 1.4952                 1.4117
 IR Inten    --     35.3939                 4.2596                 8.5427

                     37                     38                     39
                      A                      A                      A
 Frequencies --   1190.9356              1200.2975              1215.4300
 Red. masses --      2.3109                 1.3783                 3.1230
 Frc consts  --      1.9311                 1.1699                 2.7182
 IR Inten    --     10.3546                 3.2308                 9.8058

                     40                     41                     42
                      A                      A                      A
 Frequencies --   1255.1248              1329.7095              1350.2652
 Red. masses --      1.4024                 1.8995                 2.1961
 Frc consts  --      1.3016                 1.9788                 2.3591
 IR Inten    --     16.6701                11.5639                21.4092

                     43                     44                     45
                      A                      A                      A
 Frequencies --   1375.1800              1436.1108              1441.2759
 Red. masses --      2.5617                 1.3543                 1.5419
 Frc consts  --      2.8543                 1.6457                 1.8871
 IR Inten    --      8.7273                15.8987                88.4167

                     46                     47                     48
                      A                      A                      A
 Frequencies --   1446.6866              1502.6474              1515.1691
 Red. masses --      2.0972                 1.0854                 1.0595
 Frc consts  --      2.5861                 1.4440                 1.4331
 IR Inten    --    113.2927                 7.5352                 2.6307

                     49                     50                     51
                      A                      A                      A
 Frequencies --   1520.5010              1531.2585              1534.4819
 Red. masses --      1.0511                 1.1851                 1.0554
 Frc consts  --      1.4318                 1.6372                 1.4642
 IR Inten    --      5.3244                12.0513                 4.2119

                     52                     53                     54
                      A                      A                      A
 Frequencies --   1544.3631              1557.5396              1649.4849
 Red. masses --      1.1173                 1.1398                 1.2357
 Frc consts  --      1.5701                 1.6291                 1.9808
 IR Inten    --      1.8596                 0.4536                59.0757

                     55                     56                     57
                      A                      A                      A
 Frequencies --   1767.2064              3029.4525              3052.5526
 Red. masses --      6.5052                 1.0739                 1.0354
 Frc consts  --     11.9697                 5.8069                 5.6846
 IR Inten    --    336.7927                52.4753                25.1363

                     58                     59                     60
                      A                      A                      A
 Frequencies --   3064.1193              3102.4628              3113.4330
 Red. masses --      1.0368                 1.0902                 1.1016
 Frc consts  --      5.7352                 6.1824                 6.2915
 IR Inten    --     18.6751                27.5100                32.1054

                     61                     62                     63
                      A                      A                      A
 Frequencies --   3127.9767              3132.9797              3146.2698
 Red. masses --      1.1020                 1.1020                 1.0542
 Frc consts  --      6.3529                 6.3730                 6.1482
 IR Inten    --     17.7754                22.5443                17.8876

                     64                     65                     66
                      A                      A                      A
 Frequencies --   3147.6296              3155.1193              3219.9930
 Red. masses --      1.1013                 1.0573                 1.1176
 Frc consts  --      6.4289                 6.2013                 6.8274
 IR Inten    --     20.5011                13.2835                 6.5469

                     67                     68                     69
                      A                      A                      A
 Frequencies --   3237.8962              3573.3332              3683.7518
 Red. masses --      1.1155                 1.0469                 1.0999
 Frc consts  --      6.8903                 7.8762                 8.7940
 IR Inten    --     13.6627                28.9690                28.0716

 - Thermochemistry -
 -------------------
 Temperature   298.150 Kelvin.  Pressure   1.00000 Atm.
 Atom     1 has atomic number  6 and mass  12.00000

 Molecular mass:   154.11061 amu.
 Principal axes and moments of inertia in atomic units:
                           1         2         3
     Eigenvalues --  1038.569762031.390202070.03438
           X            0.99997   0.00793   0.00028
           Y           -0.00757   0.96335  -0.26813
           Z           -0.00239   0.26812   0.96338
 This molecule is an asymmetric top.
 Rotational symmetry number  1.
 Warning -- assumption of classical behavior for rotation
           may cause significant error
 Rotational temperatures (Kelvin)      0.08340     0.04264     0.04184
 Rotational constants (GHZ):           1.73772     0.88843     0.87184
 Zero-point vibrational energy     574259.9 (Joules/Mol)
                                  137.25140 (Kcal/Mol)
 Warning -- explicit consideration of  17 degrees of freedom as
           vibrations may cause significant error
 Vibrational temperatures:     98.11   110.79   265.64   307.13   309.24
          (Kelvin)            344.08   429.01   448.27   478.62   520.16
                              557.95   583.58   607.18   684.50   742.30
                              841.48   850.98  1017.15  1055.86  1083.79
                             1153.19  1212.42  1279.07  1290.56  1346.46
                             1379.65  1389.80  1420.35  1451.82  1481.55
                             1510.84  1553.11  1562.82  1618.98  1652.29
                             1687.76  1713.49  1726.96  1748.73  1805.84
                             1913.16  1942.73  1978.58  2066.24  2073.67
                             2081.46  2161.97  2179.99  2187.66  2203.14
                             2207.78  2221.99  2240.95  2373.24  2542.62
                             4358.71  4391.94  4408.58  4463.75  4479.54
                             4500.46  4507.66  4526.78  4528.74  4539.51
                             4632.85  4658.61  5141.23  5300.10

 Zero-point correction=                           0.218724 (Hartree/Particle)
 Thermal correction to Energy=                    0.229646
 Thermal correction to Enthalpy=                  0.230590
 Thermal correction to Gibbs Free Energy=         0.182976
 Sum of electronic and zero-point Energies=           -497.802295
 Sum of electronic and thermal Energies=              -497.791373
 Sum of electronic and thermal Enthalpies=            -497.790429
 Sum of electronic and thermal Free Energies=         -497.838043

                     E (Thermal)             CV                S
                      KCal/Mol        Cal/Mol-Kelvin    Cal/Mol-Kelvin
 Total                  144.105             43.255            100.212
 Electronic               0.000              0.000              0.000
 Translational            0.889              2.981             41.007
 Rotational               0.889              2.981             29.858
 Vibrational            142.328             37.294             29.346
 Vibration     1          0.598              1.969              4.205
 Vibration     2          0.599              1.964              3.966
 Vibration     3          0.631              1.861              2.281
 Vibration     4          0.644              1.820              2.014
 Vibration     5          0.645              1.818              2.001
 Vibration     6          0.657              1.781              1.809
 Vibration     7          0.691              1.677              1.427
 Vibration     8          0.700              1.652              1.354
 Vibration     9          0.715              1.610              1.247
 Vibration    10          0.736              1.551              1.116
 Vibration    11          0.756              1.496              1.009
 Vibration    12          0.771              1.458              0.942
 Vibration    13          0.784              1.422              0.885
 Vibration    14          0.832              1.304              0.722
 Vibration    15          0.871              1.215              0.619
 Vibration    16          0.942              1.064              0.476
 Vibration    17          0.949              1.050              0.465

 Optimization completed.
    -- Stationary point found.
 Normal termination of Gaussian 16 at Tue Dec  8 21:27:06 2020.

 ----------------------------------------------------------------------
 # B3LYP/6-311++G(d,p) empiricaldispersion=gd3bj scf=xqc pop=npa geom=c
 heck
 ----------------------------------------------------------------------

 --------------------------------------
 CID_80290382_JID_1850_Energie_neutraal
 --------------------------------------
 Structure from the checkpoint file:  "JID_1850.chk"
 Charge =  0 Multiplicity = 1

 SCF Done:  E(RB3LYP) =  -498.167179386     A.U. after   14 cycles
 Normal termination of Gaussian 16 at Tue Dec  8 21:30:18 2020.

 ----------------------------------------------------------------------
 # B3LYP/6-311++G(d,p) empiricaldispersion=gd3bj scf=xqc pop=npa geom=c
 heck
 ----------------------------------------------------------------------

 ------------------------------------
 CID_80290382_JID_1850_Energie_kation
 ------------------------------------
 Structure from the checkpoint file:  "JID_1850.chk"
 Charge =  1 Multiplicity = 2

 SCF Done:  E(UB3LYP) =  -497.858299090     A.U. after   21 cycles
 Normal termination of Gaussian 16 at Tue Dec  8 21:37:58 2020.
 Gaussian 16:  ES64L-G16RevA.03 25-Dec-2016

 ----------------------------------------------------------------------
 # B3LYP/6-311++G(d,p) empiricaldispersion=gd3bj scf=xqc pop=npa geom=c
 heck
 ----------------------------------------------------------------------

 -----------------------------------
 CID_80290382_JID_1850_Energie_anion
 -----------------------------------
 Structure from the checkpoint file:  "JID_1850.chk"
 Charge = -1 Multiplicity = 2

                         Standard orientation:
 ---------------------------------------------------------------------
 Center     Atomic      Atomic             Coordinates (Angstroms)
 Number     Number       Type             X           Y           Z
 ---------------------------------------------------------------------
      1          6           0        1.870070   -0.037627    1.626959
      2          6           0        1.325111   -0.250364    0.223621
      3          6           0        2.311648   -0.689817   -0.832170
      4          6           0        1.303452   -1.673210   -0.286459
      5          6           0        0.185483    0.692783   -0.168739
      6          6           0       -0.527341    0.352827   -1.514481
      7          7           0       -1.745919   -0.370031   -1.149738
      8          6           0       -1.866843   -0.208546    0.113787
      9          8           0       -0.902306    0.464801    0.799677
     10          7           0       -2.930052   -0.598948    0.888466
     11          6           0        0.582502    2.160582   -0.074297
     12          1           0        2.588692   -0.823901    1.880674
     13          1           0        1.060777   -0.065840    2.363601
     14          1           0        2.388195    0.922897    1.724517
     15          1           0        2.186003   -0.340007   -1.853034
     16          1           0        3.350480   -0.792118   -0.529868
     17          1           0        1.658450   -2.447908    0.387601
     18          1           0        0.486111   -1.987023   -0.927467
     19          1           0       -0.779201    1.273871   -2.058467
     20          1           0        0.091984   -0.248070   -2.186145
     21          1           0       -3.533714   -1.268323    0.430060
     22          1           0       -2.698086   -0.831604    1.845290
     23          1           0        0.917490    2.426715    0.931317
     24          1           0        1.397848    2.368375   -0.775972
     25          1           0       -0.269283    2.797609   -0.329952
 ---------------------------------------------------------------------

 SCF Done:  E(UB3LYP) =  -498.150969629     A.U. after   31 cycles

 The electronic state is 2-A.
 Alpha  occ. eigenvalues --  -19.04741 -14.21957 -14.17196 -10.17735 -10.13887
 Alpha  occ. eigenvalues --  -10.09360 -10.08652 -10.07157 -10.06729 -10.06467
 Alpha  occ. eigenvalues --  -10.05467  -0.98604  -0.82177  -0.78325  -0.76774
 Alpha  occ. eigenvalues --   -0.67572  -0.60937  -0.58034  -0.52933  -0.50334
 Alpha  occ. eigenvalues --   -0.48852  -0.44022  -0.41564  -0.41233  -0.39237
 Alpha  occ. eigenvalues --   -0.36232  -0.34787  -0.32738  -0.31950  -0.30983
 Alpha  occ. eigenvalues --   -0.29945  -0.29260  -0.28718  -0.27633  -0.26308
 Alpha  occ. eigenvalues --   -0.25929  -0.23869  -0.20148  -0.18186  -0.17933
 Alpha  occ. eigenvalues --   -0.16556  -0.12730   0.04715
 Alpha virt. eigenvalues --    0.06546   0.07553   0.08241   0.09457   0.10036
 Alpha virt. eigenvalues --    0.10403   0.10560   0.11043   0.12542   0.13347
 Alpha virt. eigenvalues --    0.13681   0.14140   0.14373   0.15059   0.15976

  Beta  occ. eigenvalues --  -19.04727 -14.21891 -14.17188 -10.17730 -10.13882
  Beta  occ. eigenvalues --  -10.09351 -10.08651 -10.07137 -10.06713 -10.06444
  Beta  occ. eigenvalues --  -10.05431  -0.98582  -0.82113  -0.78295  -0.76750
  Beta  occ. eigenvalues --   -0.67539  -0.60889  -0.57986  -0.52896  -0.50277
  Beta  occ. eigenvalues --   -0.48783  -0.43956  -0.41516  -0.41206  -0.39175
  Beta  occ. eigenvalues --   -0.36187  -0.34758  -0.32702  -0.31923  -0.30951
  Beta  occ. eigenvalues --   -0.29919  -0.29234  -0.28684  -0.27602  -0.26282
  Beta  occ. eigenvalues --   -0.25896  -0.23845  -0.20116  -0.18159  -0.17899
  Beta  occ. eigenvalues --   -0.16534  -0.12704
  Beta virt. eigenvalues --    0.07042   0.08052   0.08270   0.08774   0.10049
  Beta virt. eigenvalues --    0.10619   0.10796   0.11390   0.11571   0.13072
  Beta virt. eigenvalues --    0.13647   0.14005   0.14409   0.14607   0.15217

 Mulliken charges and spin densities:
               1          2
     1  C    1.858578  -2.178568
     2  C   -1.689526   2.150560
     3  C    0.371143  -0.902061
     4  C   -0.034404  -0.336792
     5  C   -1.200861   0.947196
     6  C    1.057230  -1.553227
     7  N   -0.181262   0.039921
     8  C    0.390881  -0.306875
     9  O    0.073642  -0.034124
    10  N   -0.538041   0.229595
    11  C    0.975111  -1.575068
    12  H   -0.257174   0.398421
    13  H   -0.179900   0.378384
    14  H   -0.224158   0.363078
    15  H   -0.139830   0.275122
    16  H   -0.213959   0.366669
    17  H   -0.369338   0.534913
    18  H    0.137503   0.021018
    19  H    0.002314   0.156014
    20  H    0.185488  -0.014637
    21  H   -0.264107   0.536877
    22  H   -0.462851   0.727043
    23  H   -0.164522   0.320959
    24  H   -0.174342   0.349742
    25  H    0.042385   0.105839
 Sum of Mulliken charges =  -1.00000   1.00000

 Dipole moment (field-independent basis, Debye):
    X=              1.0742    Y=              1.9891    Z=             -3.7004  Tot=              4.3363
 Quadrupole moment (field-independent basis, Debye-Ang):
   XX=           -128.5373   YY=           -103.4700   ZZ=           -108.5502
   XY=             -6.5541   XZ=              1.7595   YZ=              3.1465

 Summary of Natural Population Analysis:

                                       Natural Population
                Natural  -----------------------------------------------
    Atom  No    Charge         Core      Valence    Rydberg      Total
 -----------------------------------------------------------------------
      C    1   -0.28155      0.99962     2.27540    0.00654     3.28155
      C    2   -0.05561      0.99950     2.04058    0.01553     3.05561
      C    3   -0.19613      0.99958     2.18737    0.00918     3.19613
      C    4   -0.19427      0.99958     2.18544    0.00925     3.19427
      C    5    0.13574      0.99947     1.84832    0.01646     2.86426
      C    6   -0.10040      0.99957     2.08981    0.01102     3.10040
      N    7   -0.30658      0.99966     2.79630    0.01061     3.80658
      C    8    0.36259      0.99958     1.61607    0.02176     2.63741
      O    9   -0.29208      0.99986     3.28294    0.00928     4.29208
      N   10   -0.39854      0.99970     2.88903    0.00981     3.89854
      C   11   -0.29149      0.99960     2.28432    0.00757     3.29149
      H   12    0.10112      0.00000     0.39736    0.00151     0.39888
      H   13    0.10864      0.00000     0.38950    0.00186     0.39136
      H   14    0.09874      0.00000     0.39985    0.00140     0.40126
      H   15    0.10128      0.00000     0.39756    0.00116     0.39872
      H   16    0.10420      0.00000     0.39469    0.00111     0.39580
      H   17    0.10394      0.00000     0.39498    0.00108     0.39606
      H   18    0.10842      0.00000     0.39017    0.00141     0.39158
      H   19    0.09038      0.00000     0.40829    0.00133     0.40962
      H   20    0.09510      0.00000     0.40306    0.00185     0.40490
      H   21    0.19593      0.00000     0.30023    0.00384     0.30407
      H   22    0.19740      0.00000     0.29590    0.00670     0.30260
      H   23    0.10661      0.00000     0.39232    0.00107     0.39339
      H   24    0.10456      0.00000     0.39416    0.00127     0.39544
      H   25    0.10200      0.00000     0.39687    0.00113     0.39800
 =======================================================================
   * Total *   -0.00000     10.99572    30.85053    0.15375    42.00000

 Normal termination of Gaussian 16 at Tue Dec  8 21:48:55 2020.
