 Gaussian 16, Revision A.03,

 -----------------------------------------------------------
 # opt freq B3LYP/6-31G(d) empiricaldispersion=gd3bj scf=xqc
 -----------------------------------------------------------

 -------------------------------
 CID_132121714_JID_3126_neutraal
 -------------------------------
 Symbolic Z-matrix:
 Charge =  0 Multiplicity = 1

 SCF Done:  E(RB3LYP) =  -571.599245131     A.U. after   14 cycles
 SCF Done:  E(RB3LYP) =  -571.603495907     A.U. after   12 cycles
 SCF Done:  E(RB3LYP) =  -571.603745564     A.U. after   12 cycles
 SCF Done:  E(RB3LYP) =  -571.604058562     A.U. after   12 cycles
 SCF Done:  E(RB3LYP) =  -571.604299581     A.U. after   11 cycles
 SCF Done:  E(RB3LYP) =  -571.604328985     A.U. after   10 cycles
 SCF Done:  E(RB3LYP) =  -571.604336110     A.U. after    9 cycles
 SCF Done:  E(RB3LYP) =  -571.604337683     A.U. after    9 cycles
 SCF Done:  E(RB3LYP) =  -571.604338089     A.U. after    8 cycles
 SCF Done:  E(RB3LYP) =  -571.604338188     A.U. after    7 cycles
 Optimization completed.
    -- Stationary point found.

 1\1\GINC-NODE203\FOpt\RB3LYP\6-31G(d)\C9H16N4\VSC10255\09-Dec-2020\0\\
 # opt freq B3LYP/6-31G(d) empiricaldispersion=gd3bj scf=xqc\\CID_13212
 1714_JID_3126_neutraal\\0,1\C,1.0883213019,-0.2026295666,0.1722318883\
 C,0.3680404096,0.4665414735,1.3613162726\C,0.8832006446,1.8912787609,1
 .5873945808\C,-1.1330247193,0.41576107,1.1456112294\C,-1.8731679155,-0
 .7702866386,1.3290533876\C,-3.2479516475,-0.667647945,1.0485041906\N,-
 3.77086257,0.4967354341,0.6365447593\N,-3.0281179896,1.5798310261,0.48
 30128678\N,-1.7271651964,1.5383664977,0.7356716291\C,-4.2498585863,-1.

 Normal termination of Gaussian 16 at Wed Dec  9 22:24:48 2020.

 --------------------------------------------------------------------
 #N Geom=AllCheck Guess=TCheck SCRF=Check GenChk RB3LYP/6-31G(d) Freq
 --------------------------------------------------------------------

 Structure from the checkpoint file:  "JID_3126.chk"
 -------------------------------
 CID_132121714_JID_3126_neutraal
 -------------------------------
 Charge =  0 Multiplicity = 1

 SCF Done:  E(RB3LYP) =  -571.604338188     A.U. after    1 cycles

  Exact polarizability: 151.428  -0.252 120.473   1.167   4.446  85.279
 Approx polarizability: 206.637  -3.288 221.069   2.390  18.113 124.114

                      1                      2                      3
                      A                      A                      A
 Frequencies --     42.4178                65.4419                82.5838
 Red. masses --      3.3533                 2.4149                 3.3028
 Frc consts  --      0.0036                 0.0061                 0.0133
 IR Inten    --      0.0899                 0.4627                 2.0484

                      4                      5                      6
                      A                      A                      A
 Frequencies --    149.8474               163.4997               188.8279
 Red. masses --      3.2968                 2.4705                 1.4067
 Frc consts  --      0.0436                 0.0389                 0.0296
 IR Inten    --      0.3928                 0.6668                 0.4069

                      7                      8                      9
                      A                      A                      A
 Frequencies --    205.7633               228.8463               233.0873
 Red. masses --      1.2160                 1.1127                 2.3842
 Frc consts  --      0.0303                 0.0343                 0.0763
 IR Inten    --      0.1373                 0.1243                 1.3596

                     10                     11                     12
                      A                      A                      A
 Frequencies --    248.2555               270.7257               285.5519
 Red. masses --      1.7938                 1.2907                 4.0126
 Frc consts  --      0.0651                 0.0557                 0.1928
 IR Inten    --      2.3039                 0.0400                 0.4837

                     13                     14                     15
                      A                      A                      A
 Frequencies --    307.3638               322.0093               385.2287
 Red. masses --      3.2987                 3.0043                 1.4332
 Frc consts  --      0.1836                 0.1835                 0.1253
 IR Inten    --      2.8676                 0.4685                15.0156

                     16                     17                     18
                      A                      A                      A
 Frequencies --    391.3804               429.0897               465.3736
 Red. masses --      1.6324                 3.2628                 2.9429
 Frc consts  --      0.1473                 0.3539                 0.3755
 IR Inten    --     12.9701                14.0938                 2.7112

                     19                     20                     21
                      A                      A                      A
 Frequencies --    486.2468               533.6068               559.7322
 Red. masses --      3.2853                 1.3508                 4.0586
 Frc consts  --      0.4577                 0.2266                 0.7492
 IR Inten    --      0.2542               225.7019                 3.5829

                     22                     23                     24
                      A                      A                      A
 Frequencies --    618.8582               619.3280               655.1966
 Red. masses --      3.9340                 8.9864                 6.0767
 Frc consts  --      0.8877                 2.0308                 1.5370
 IR Inten    --      4.0210                11.9172                 1.3965

                     25                     26                     27
                      A                      A                      A
 Frequencies --    687.7627               828.0251               832.3421
 Red. masses --      3.6360                 6.5472                 4.1004
 Frc consts  --      1.0133                 2.6448                 1.6737
 IR Inten    --      0.3086                 1.0390                 1.5880

                     28                     29                     30
                      A                      A                      A
 Frequencies --    884.0677               928.0682               937.6608
 Red. masses --      3.1749                 2.6513                 4.0148
 Frc consts  --      1.4620                 1.3455                 2.0797
 IR Inten    --      0.7227                 3.1850                 1.3764

                     31                     32                     33
                      A                      A                      A
 Frequencies --    948.6616               950.1580               979.7630
 Red. masses --      1.2312                 1.1609                 1.4073
 Frc consts  --      0.6529                 0.6175                 0.7959
 IR Inten    --      0.6486                 1.4758                 0.1726

                     34                     35                     36
                      A                      A                      A
 Frequencies --    984.7783              1045.7590              1096.5164
 Red. masses --      1.4752                 3.0704                 1.8146
 Frc consts  --      0.8429                 1.9784                 1.2855
 IR Inten    --      1.8988                39.7303                 5.4761

                     37                     38                     39
                      A                      A                      A
 Frequencies --   1115.2285              1131.0504              1138.4830
 Red. masses --      1.9925                 2.4088                 2.2372
 Frc consts  --      1.4601                 1.8156                 1.7084
 IR Inten    --      4.5212                 4.3683                10.9147

                     40                     41                     42
                      A                      A                      A
 Frequencies --   1165.0818              1180.5463              1212.9489
 Red. masses --      1.9651                 2.3614                 2.7113
 Frc consts  --      1.5716                 1.9391                 2.3502
 IR Inten    --     15.3389                 4.7515                 4.4179

                     43                     44                     45
                      A                      A                      A
 Frequencies --   1231.6514              1284.6418              1334.6945
 Red. masses --      1.9111                 2.5751                 2.5433
 Frc consts  --      1.7081                 2.5038                 2.6693
 IR Inten    --      0.6151                 8.4266                 0.0743

                     46                     47                     48
                      A                      A                      A
 Frequencies --   1343.4733              1377.8960              1390.8256
 Red. masses --      1.6676                 1.2904                 1.7298
 Frc consts  --      1.7734                 1.4435                 1.9714
 IR Inten    --      1.3639                 1.7313                12.7132

                     49                     50                     51
                      A                      A                      A
 Frequencies --   1413.6225              1427.7521              1433.1134
 Red. masses --      1.9910                 1.2426                 1.2127
 Frc consts  --      2.3441                 1.4924                 1.4674
 IR Inten    --      0.5583                 3.8062                 3.5751

                     52                     53                     54
                      A                      A                      A
 Frequencies --   1437.3956              1451.4258              1452.5209
 Red. masses --      4.0000                 1.3371                 1.3180
 Frc consts  --      4.8692                 1.6596                 1.6383
 IR Inten    --     42.1909                 3.2290                12.8989

                     55                     56                     57
                      A                      A                      A
 Frequencies --   1515.0920              1515.4467              1518.5444
 Red. masses --      1.0471                 1.0475                 1.0539
 Frc consts  --      1.4162                 1.4174                 1.4318
 IR Inten    --      2.5248                 0.3192                 4.3878

                     58                     59                     60
                      A                      A                      A
 Frequencies --   1524.4803              1527.5968              1531.4770
 Red. masses --      1.0598                 1.1253                 1.0490
 Frc consts  --      1.4512                 1.5472                 1.4497
 IR Inten    --      4.7973                13.7646                 3.3639

                     61                     62                     63
                      A                      A                      A
 Frequencies --   1539.7041              1542.8276              1570.0969
 Red. masses --      1.0645                 1.0714                 3.9361
 Frc consts  --      1.4868                 1.5025                 5.7170
 IR Inten    --      8.3542                 3.4819                24.2382

                     64                     65                     66
                      A                      A                      A
 Frequencies --   1598.3134              1693.6553              2980.3551
 Red. masses --      6.2863                 1.1874                 1.0818
 Frc consts  --      9.4616                 2.0068                 5.6615
 IR Inten    --     63.6314               115.9552                34.7064

                     67                     68                     69
                      A                      A                      A
 Frequencies --   3044.5910              3053.4211              3057.7897
 Red. masses --      1.0401                 1.0344                 1.0359
 Frc consts  --      5.6802                 5.6822                 5.7065
 IR Inten    --     25.3893                22.3595                27.0178

                     70                     71                     72
                      A                      A                      A
 Frequencies --   3063.1291              3076.9813              3106.5002
 Red. masses --      1.0376                 1.0838                 1.0969
 Frc consts  --      5.7361                 6.0455                 6.2368
 IR Inten    --     30.1657                 0.7802                31.2512

                     73                     74                     75
                      A                      A                      A
 Frequencies --   3124.1770              3125.0198              3129.0189
 Red. masses --      1.1029                 1.1016                 1.1029
 Frc consts  --      6.3427                 6.3384                 6.3622
 IR Inten    --     24.9714                31.5962                18.3279

                     76                     77                     78
                      A                      A                      A
 Frequencies --   3130.1687              3130.8920              3131.7709
 Red. masses --      1.1021                 1.1030                 1.1018
 Frc consts  --      6.3623                 6.3704                 6.3670
 IR Inten    --     33.0506                23.1862                27.3405

                     79                     80                     81
                      A                      A                      A
 Frequencies --   3154.2442              3588.4076              3692.8244
 Red. masses --      1.1012                 1.0477                 1.0988
 Frc consts  --      6.4551                 7.9484                 8.8283
 IR Inten    --     16.0283                17.3716                31.8003

 - Thermochemistry -
 -------------------
 Temperature   298.150 Kelvin.  Pressure   1.00000 Atm.
 Atom     1 has atomic number  6 and mass  12.00000

 Molecular mass:   180.13750 amu.
 Principal axes and moments of inertia in atomic units:
                           1         2         3
     Eigenvalues --  1277.009283378.351824020.14284
           X            1.00000  -0.00048  -0.00177
           Y            0.00044   0.99976  -0.02191
           Z            0.00178   0.02191   0.99976
 This molecule is an asymmetric top.
 Rotational symmetry number  1.
 Warning -- assumption of classical behavior for rotation
           may cause significant error
 Rotational temperatures (Kelvin)      0.06783     0.02564     0.02154
 Rotational constants (GHZ):           1.41326     0.53421     0.44892
 Zero-point vibrational energy     659326.0 (Joules/Mol)
                                  157.58270 (Kcal/Mol)
 Warning -- explicit consideration of  23 degrees of freedom as
           vibrations may cause significant error
 Vibrational temperatures:     61.03    94.16   118.82   215.60   235.24
          (Kelvin)            271.68   296.05   329.26   335.36   357.18
                              389.51   410.85   442.23   463.30   554.26
                              563.11   617.36   669.57   699.60   767.74
                              805.33   890.40   891.07   942.68   989.54
                             1191.34  1197.55  1271.98  1335.28  1349.08
                             1364.91  1367.07  1409.66  1416.88  1504.61
                             1577.64  1604.57  1627.33  1638.02  1676.29
                             1698.54  1745.16  1772.07  1848.31  1920.33
                             1932.96  1982.49  2001.09  2033.89  2054.22
                             2061.93  2068.09  2088.28  2089.85  2179.88
                             2180.39  2184.85  2193.39  2197.87  2203.45
                             2215.29  2219.78  2259.02  2299.62  2436.79
                             4288.07  4380.49  4393.19  4399.48  4407.16
                             4427.09  4469.56  4494.99  4496.21  4501.96
                             4503.61  4504.66  4505.92  4538.25  5162.92
                             5313.15

 Zero-point correction=                           0.251124 (Hartree/Particle)
 Thermal correction to Energy=                    0.265115
 Thermal correction to Enthalpy=                  0.266059
 Thermal correction to Gibbs Free Energy=         0.211115
 Sum of electronic and zero-point Energies=           -571.353214
 Sum of electronic and thermal Energies=              -571.339223
 Sum of electronic and thermal Enthalpies=            -571.338279
 Sum of electronic and thermal Free Energies=         -571.393223

                     E (Thermal)             CV                S
                      KCal/Mol        Cal/Mol-Kelvin    Cal/Mol-Kelvin
 Total                  166.362             52.889            115.639
 Electronic               0.000              0.000              0.000
 Translational            0.889              2.981             41.472
 Rotational               0.889              2.981             31.229
 Vibrational            164.585             46.928             42.939
 Vibration     1          0.595              1.980              5.143
 Vibration     2          0.597              1.971              4.286
 Vibration     3          0.600              1.961              3.829
 Vibration     4          0.618              1.903              2.674
 Vibration     5          0.623              1.887              2.509
 Vibration     6          0.633              1.855              2.239
 Vibration     7          0.640              1.832              2.081
 Vibration     8          0.652              1.797              1.888
 Vibration     9          0.654              1.790              1.855
 Vibration    10          0.662              1.766              1.743
 Vibration    11          0.674              1.727              1.592
 Vibration    12          0.683              1.701              1.500
 Vibration    13          0.697              1.660              1.376
 Vibration    14          0.707              1.631              1.300
 Vibration    15          0.754              1.502              1.019
 Vibration    16          0.759              1.489              0.995
 Vibration    17          0.790              1.407              0.862
 Vibration    18          0.823              1.327              0.751
 Vibration    19          0.842              1.281              0.693
 Vibration    20          0.889              1.176              0.579
 Vibration    21          0.915              1.118              0.524
 Vibration    22          0.979              0.992              0.418
 Vibration    23          0.979              0.991              0.418

                           ! Non-Optimized Parameters !

 1\1\GINC-NODE203\Freq\RB3LYP\6-31G(d)\C9H16N4\VSC10255\09-Dec-2020\0\\
 #N Geom=AllCheck Guess=TCheck SCRF=Check GenChk RB3LYP/6-31G(d) Freq\\
 CID_132121714_JID_3126_neutraal\\0,1\C,1.0883213019,-0.2026295666,0.17
 22318883\C,0.3680404096,0.4665414735,1.3613162726\C,0.8832006446,1.891
 2787609,1.5873945808\C,-1.1330247193,0.41576107,1.1456112294\C,-1.8731
 679155,-0.7702866386,1.3290533876\C,-3.2479516475,-0.667647945,1.04850
 41906\N,-3.77086257,0.4967354341,0.6365447593\N,-3.0281179896,1.579831
 0261,0.4830128678\N,-1.7271651964,1.5383664977,0.7356716291\C,-4.24985

 Normal termination of Gaussian 16 at Wed Dec  9 22:32:21 2020.

 ----------------------------------------------------------------------
 # B3LYP/6-311++G(d,p) empiricaldispersion=gd3bj scf=xqc pop=npa geom=c
 heck
 ----------------------------------------------------------------------

 ---------------------------------------
 CID_132121714_JID_3126_Energie_neutraal
 ---------------------------------------
 Structure from the checkpoint file:  "JID_3126.chk"
 Charge =  0 Multiplicity = 1

 SCF Done:  E(RB3LYP) =  -571.762396042     A.U. after   15 cycles
 Normal termination of Gaussian 16 at Wed Dec  9 22:35:47 2020.

 ----------------------------------------------------------------------
 # B3LYP/6-311++G(d,p) empiricaldispersion=gd3bj scf=xqc pop=npa geom=c
 heck
 ----------------------------------------------------------------------

 -------------------------------------
 CID_132121714_JID_3126_Energie_kation
 -------------------------------------
 Structure from the checkpoint file:  "JID_3126.chk"
 Charge =  1 Multiplicity = 2

 SCF Done:  E(UB3LYP) =  -571.443784308     A.U. after   26 cycles
 Normal termination of Gaussian 16 at Wed Dec  9 22:44:40 2020.
 Gaussian 16:  ES64L-G16RevA.03 25-Dec-2016

 ------------------------------------
 CID_132121714_JID_3126_Energie_anion
 ------------------------------------
 Structure from the checkpoint file:  "JID_3126.chk"
 Charge = -1 Multiplicity = 2

                         Standard orientation:
 ---------------------------------------------------------------------
 Center     Atomic      Atomic             Coordinates (Angstroms)
 Number     Number       Type             X           Y           Z
 ---------------------------------------------------------------------
      1          6           0       -2.696872   -1.433097    0.981626
      2          6           0       -2.416613   -0.618794   -0.298563
      3          6           0       -3.629971    0.230934   -0.688565
      4          6           0       -1.158755    0.209478   -0.114001
      5          6           0        0.127436   -0.366060   -0.165373
      6          6           0        1.191594    0.524268    0.067342
      7          7           0        0.949607    1.819467    0.318013
      8          7           0       -0.279465    2.305800    0.352645
      9          7           0       -1.318348    1.510334    0.138191
     10          6           0        2.661716    0.146221    0.072723
     11          6           0        3.009910   -0.868283    1.177056
     12          6           0        3.173528   -0.291931   -1.312545
     13          7           0        0.306082   -1.720168   -0.371919
     14          1           0       -2.915279   -0.753415    1.812206
     15          1           0       -1.841462   -2.053237    1.268751
     16          1           0       -3.564354   -2.086400    0.837303
     17          1           0       -2.235261   -1.329935   -1.121387
     18          1           0       -3.871145    0.946149    0.101111
     19          1           0       -3.438022    0.803112   -1.601135
     20          1           0       -4.496805   -0.417447   -0.857060
     21          1           0        3.170554    1.084459    0.316626
     22          1           0        2.524518   -1.838478    1.030037
     23          1           0        4.092340   -1.035602    1.202474
     24          1           0        2.700983   -0.491181    2.157130
     25          1           0        2.932236    0.458288   -2.072114
     26          1           0        4.261769   -0.413473   -1.285746
     27          1           0        2.755621   -1.249091   -1.649089
     28          1           0        1.209489   -2.013592   -0.711815
     29          1           0       -0.462153   -2.214599   -0.804005
 ---------------------------------------------------------------------

 SCF Done:  E(UB3LYP) =  -571.760327602     A.U. after   33 cycles
 SCF Done:  E(UB3LYP) =  -571.760327602     a.u. after    1 cycles

 The electronic state is 2-A.
 Alpha  occ. eigenvalues --  -14.24455 -14.22425 -14.22012 -14.21345 -10.12353
 Alpha  occ. eigenvalues --  -10.10016 -10.09823 -10.08149 -10.08112 -10.06586
 Alpha  occ. eigenvalues --  -10.06334 -10.06034 -10.05502  -0.93380  -0.82929
 Alpha  occ. eigenvalues --   -0.78621  -0.72073  -0.69413  -0.66287  -0.59195
 Alpha  occ. eigenvalues --   -0.58604  -0.56470  -0.55619  -0.50065  -0.46257
 Alpha  occ. eigenvalues --   -0.45731  -0.41293  -0.37450  -0.37199  -0.35422
 Alpha  occ. eigenvalues --   -0.34297  -0.34146  -0.33408  -0.31395  -0.29843
 Alpha  occ. eigenvalues --   -0.29373  -0.28678  -0.27945  -0.25642  -0.25203
 Alpha  occ. eigenvalues --   -0.24807  -0.24473  -0.23905  -0.23329  -0.22845
 Alpha  occ. eigenvalues --   -0.19248  -0.13642  -0.12958  -0.12611   0.04068
 Alpha virt. eigenvalues --    0.06695   0.06918   0.07404   0.08189   0.08916
 Alpha virt. eigenvalues --    0.09673   0.09999   0.10346   0.11468   0.11719
 Alpha virt. eigenvalues --    0.12103   0.12683   0.13317   0.13736   0.14552

  Beta  occ. eigenvalues --  -14.24471 -14.22356 -14.21969 -14.21163 -10.12361
  Beta  occ. eigenvalues --  -10.09945 -10.09678 -10.08157 -10.08102 -10.06569
  Beta  occ. eigenvalues --  -10.06269 -10.06000 -10.05494  -0.93236  -0.82835
  Beta  occ. eigenvalues --   -0.78380  -0.71948  -0.69327  -0.66202  -0.59116
  Beta  occ. eigenvalues --   -0.58554  -0.56267  -0.55527  -0.49991  -0.46177
  Beta  occ. eigenvalues --   -0.45654  -0.41168  -0.37337  -0.37110  -0.35288
  Beta  occ. eigenvalues --   -0.34228  -0.33973  -0.33314  -0.31281  -0.29778
  Beta  occ. eigenvalues --   -0.29257  -0.28627  -0.27886  -0.25513  -0.25120
  Beta  occ. eigenvalues --   -0.24739  -0.24437  -0.23794  -0.23263  -0.22796
  Beta  occ. eigenvalues --   -0.18561  -0.13520  -0.12720  -0.12412
  Beta virt. eigenvalues --    0.06850   0.07286   0.07566   0.08094   0.09058
  Beta virt. eigenvalues --    0.09108   0.09894   0.10317   0.10598   0.11642
  Beta virt. eigenvalues --    0.11978   0.12333   0.12774   0.13520   0.13923

 Mulliken charges and spin densities:
               1          2
     1  C    0.138978  -0.740369
     2  C   -0.010900   0.690920
     3  C   -0.320039  -0.404067
     4  C   -1.119391   0.831883
     5  C    0.627296  -0.690764
     6  C    1.254676  -1.638364
     7  N   -0.055215   0.052487
     8  N    0.173089  -0.043887
     9  N   -0.153741   0.089732
    10  C   -0.705023   0.766636
    11  C   -0.204472  -0.359506
    12  C    0.708260  -1.243101
    13  N   -0.389858   0.098846
    14  H    0.109694   0.033919
    15  H    0.085841   0.057022
    16  H   -0.242775   0.395828
    17  H   -0.439084   0.602356
    18  H    0.154446  -0.000643
    19  H    0.120501   0.034309
    20  H   -0.026727   0.168179
    21  H    0.202443   0.013744
    22  H   -0.070847   0.214537
    23  H    0.063545   0.075377
    24  H    0.106442   0.030851
    25  H    0.040864   0.106847
    26  H   -0.260599   0.407347
    27  H   -0.525866   0.666182
    28  H    0.217004   0.024142
    29  H   -0.478544   0.759557
 Sum of Mulliken charges =  -1.00000   1.00000

 Dipole moment (field-independent basis, Debye):
    X=              0.3199    Y=              1.6543    Z=              2.8653  Tot=              3.3240
 Quadrupole moment (field-independent basis, Debye-Ang):
   XX=           -125.7961   YY=           -134.4658   ZZ=           -105.9093
   XY=             -1.2202   XZ=              4.3493   YZ=            -11.4670

 Summary of Natural Population Analysis:

                                       Natural Population
                Natural  -----------------------------------------------
    Atom  No    Charge         Core      Valence    Rydberg      Total
 -----------------------------------------------------------------------
      C    1   -0.28124      0.99964     2.27568    0.00591     3.28124
      C    2   -0.12958      0.99959     2.11915    0.01084     3.12958
      C    3   -0.28080      0.99965     2.27431    0.00684     3.28080
      C    4    0.09798      0.99949     1.88616    0.01637     2.90202
      C    5    0.07105      0.99938     1.91717    0.01239     2.92895
      C    6    0.10692      0.99947     1.87616    0.01744     2.89308
      N    7   -0.13426      0.99968     2.62231    0.01226     3.63426
      N    8   -0.04266      0.99980     2.52333    0.01953     3.54266
      N    9   -0.11732      0.99967     2.60487    0.01278     3.61732
      C   10   -0.13173      0.99958     2.12150    0.01064     3.13173
      C   11   -0.28158      0.99965     2.27688    0.00505     3.28158
      C   12   -0.27911      0.99964     2.27403    0.00544     3.27911
      N   13   -0.39019      0.99971     2.88015    0.01034     3.89019
      H   14    0.09722      0.00000     0.40193    0.00085     0.40278
      H   15    0.10414      0.00000     0.39485    0.00101     0.39586
      H   16    0.09890      0.00000     0.40009    0.00101     0.40110
      H   17    0.09910      0.00000     0.39721    0.00369     0.40090
      H   18    0.10469      0.00000     0.39421    0.00110     0.39531
      H   19    0.10216      0.00000     0.39703    0.00082     0.39784
      H   20    0.09425      0.00000     0.40506    0.00070     0.40575
      H   21    0.10701      0.00000     0.39059    0.00240     0.39299
      H   22    0.09954      0.00000     0.39941    0.00105     0.40046
      H   23    0.09626      0.00000     0.40300    0.00074     0.40374
      H   24    0.10034      0.00000     0.39896    0.00069     0.39966
      H   25    0.10283      0.00000     0.39627    0.00090     0.39717
      H   26    0.09892      0.00000     0.40001    0.00107     0.40108
      H   27    0.09449      0.00000     0.40372    0.00179     0.40551
      H   28    0.19527      0.00000     0.30078    0.00395     0.30473
      H   29    0.19738      0.00000     0.29552    0.00711     0.30262
 =======================================================================
   * Total *    0.00000     12.99497    35.83032    0.17471    49.00000

 Normal termination of Gaussian 16 at Wed Dec  9 22:56:25 2020.
