 Gaussian 16, Revision A.03,

 -----------------------------------------------------------
 # opt freq B3LYP/6-31G(d) empiricaldispersion=gd3bj scf=xqc
 -----------------------------------------------------------

 ------------------------------
 CID_11829655_JID_1523_neutraal
 ------------------------------
 Symbolic Z-matrix:
 Charge =  0 Multiplicity = 1

 SCF Done:  E(RB3LYP) =  -532.671173977     A.U. after   15 cycles
 SCF Done:  E(RB3LYP) =  -532.672978670     A.U. after   13 cycles
 SCF Done:  E(RB3LYP) =  -532.673346346     A.U. after   13 cycles
 SCF Done:  E(RB3LYP) =  -532.673464448     A.U. after   12 cycles
 SCF Done:  E(RB3LYP) =  -532.673633360     A.U. after   12 cycles
 SCF Done:  E(RB3LYP) =  -532.673802246     A.U. after   13 cycles
 SCF Done:  E(RB3LYP) =  -532.671800402     A.U. after   15 cycles
 SCF Done:  E(RB3LYP) =  -532.675305628     A.U. after   14 cycles
 SCF Done:  E(RB3LYP) =  -532.675597190     A.U. after   14 cycles
 SCF Done:  E(RB3LYP) =  -532.675508601     A.U. after   15 cycles
 SCF Done:  E(RB3LYP) =  -532.681769154     A.U. after   11 cycles
 SCF Done:  E(RB3LYP) =  -532.681766868     A.U. after   11 cycles
 SCF Done:  E(RB3LYP) =  -532.681789092     A.U. after   12 cycles
 SCF Done:  E(RB3LYP) =  -532.681789480     A.U. after   10 cycles
 SCF Done:  E(RB3LYP) =  -532.681790448     A.U. after    9 cycles
 SCF Done:  E(RB3LYP) =  -532.681790668     A.U. after    9 cycles
 Optimization completed.
    -- Stationary point found.
 Normal termination of Gaussian 16 at Tue Dec  8 20:29:24 2020.

 --------------------------------------------------------------------
 #N Geom=AllCheck Guess=TCheck SCRF=Check GenChk RB3LYP/6-31G(d) Freq
 --------------------------------------------------------------------

 Structure from the checkpoint file:  "JID_1523.chk"
 ------------------------------
 CID_11829655_JID_1523_neutraal
 ------------------------------
 Charge =  0 Multiplicity = 1

 SCF Done:  E(RB3LYP) =  -532.681790668     A.U. after    1 cycles

  Exact polarizability:  97.004  -4.685  93.999  -4.375   1.235  63.874
 Approx polarizability: 129.373  -8.387 136.097  -7.849   5.990  97.305

                      1                      2                      3
                      A                      A                      A
 Frequencies --     29.3681                38.7130                62.2173
 Red. masses --      4.5902                 3.4642                 2.9032
 Frc consts  --      0.0023                 0.0031                 0.0066
 IR Inten    --      0.6767                 0.6218                 0.0582

                      4                      5                      6
                      A                      A                      A
 Frequencies --    115.8434               136.0653               162.8088
 Red. masses --      6.0005                 3.4694                 6.0849
 Frc consts  --      0.0474                 0.0378                 0.0950
 IR Inten    --      8.2686                 0.1600                 8.5518

                      7                      8                      9
                      A                      A                      A
 Frequencies --    193.4346               222.5031               243.2713
 Red. masses --      2.4687                 4.0357                 1.1637
 Frc consts  --      0.0544                 0.1177                 0.0406
 IR Inten    --      1.4631                 5.8257                 0.9164

                     10                     11                     12
                      A                      A                      A
 Frequencies --    249.3671               287.6277               356.3891
 Red. masses --      1.6652                 2.8930                 4.4260
 Frc consts  --      0.0610                 0.1410                 0.3312
 IR Inten    --      1.3722                12.4032                 6.4818

                     13                     14                     15
                      A                      A                      A
 Frequencies --    364.6712               419.2706               495.7065
 Red. masses --      8.1343                 2.8767                 4.9142
 Frc consts  --      0.6373                 0.2979                 0.7115
 IR Inten    --      0.5616                 2.1411                 0.7815

                     16                     17                     18
                      A                      A                      A
 Frequencies --    545.0016               577.2267               580.1713
 Red. masses --      5.5894                11.7813                 7.8301
 Frc consts  --      0.9782                 2.3128                 1.5528
 IR Inten    --      8.7355                 2.3923                 5.2263

                     19                     20                     21
                      A                      A                      A
 Frequencies --    658.7181               829.4071               851.6589
 Red. masses --      3.7969                 1.1161                 2.3175
 Frc consts  --      0.9707                 0.4524                 0.9904
 IR Inten    --      5.8271                 1.3067                15.7276

                     22                     23                     24
                      A                      A                      A
 Frequencies --    883.2153               922.6030               971.9713
 Red. masses --      2.7647                 5.0844                 2.3251
 Frc consts  --      1.2707                 2.5499                 1.2942
 IR Inten    --     38.4310                12.5362                43.5408

                     25                     26                     27
                      A                      A                      A
 Frequencies --   1024.1818              1046.4457              1075.4459
 Red. masses --      4.2091                 4.0794                 3.6186
 Frc consts  --      2.6013                 2.6319                 2.4659
 IR Inten    --     86.6353                78.6975               126.3011

                     28                     29                     30
                      A                      A                      A
 Frequencies --   1107.9904              1141.9971              1170.8194
 Red. masses --      2.0447                 2.0677                 3.6092
 Frc consts  --      1.4790                 1.5888                 2.9150
 IR Inten    --     81.5244                32.8190               196.0475

                     31                     32                     33
                      A                      A                      A
 Frequencies --   1197.4973              1209.3230              1313.9330
 Red. masses --      1.5909                 2.4985                 1.1057
 Frc consts  --      1.3441                 2.1529                 1.1247
 IR Inten    --      9.2819                36.2903                 1.0768

                     34                     35                     36
                      A                      A                      A
 Frequencies --   1332.9717              1368.3478              1382.6982
 Red. masses --      1.2510                 1.2887                 1.2237
 Frc consts  --      1.3096                 1.4217                 1.3784
 IR Inten    --      3.0652                22.2956                39.0870

                     37                     38                     39
                      A                      A                      A
 Frequencies --   1403.4214              1429.6192              1445.1819
 Red. masses --      1.2039                 1.2326                 1.3049
 Frc consts  --      1.3971                 1.4842                 1.6057
 IR Inten    --     14.1320                 3.2328                29.2858

                     40                     41                     42
                      A                      A                      A
 Frequencies --   1464.0292              1510.7678              1515.3809
 Red. masses --      1.4450                 1.0467                 1.0400
 Frc consts  --      1.8248                 1.4075                 1.4071
 IR Inten    --      8.4452                 3.3221                 5.8224

                     43                     44                     45
                      A                      A                      A
 Frequencies --   1523.7940              1529.4599              1557.3236
 Red. masses --      1.0523                 1.0487                 1.0889
 Frc consts  --      1.4396                 1.4454                 1.5560
 IR Inten    --      5.5449                 2.8758                 1.6080

                     46                     47                     48
                      A                      A                      A
 Frequencies --   2375.9392              2383.1067              3025.2428
 Red. masses --     12.6661                12.6827                 1.0628
 Frc consts  --     42.1275                42.4373                 5.7307
 IR Inten    --      0.5525                 0.2319                35.2915

                     49                     50                     51
                      A                      A                      A
 Frequencies --   3037.5147              3063.9760              3064.7352
 Red. masses --      1.0804                 1.0363                 1.0858
 Frc consts  --      5.8734                 5.7319                 6.0090
 IR Inten    --     13.1631                17.9436                30.4149

                     52                     53                     54
                      A                      A                      A
 Frequencies --   3073.7652              3078.2452              3136.5446
 Red. masses --      1.0361                 1.1014                 1.1028
 Frc consts  --      5.7675                 6.1490                 6.3924
 IR Inten    --      5.6476                19.3914                24.9836

                     55                     56                     57
                      A                      A                      A
 Frequencies --   3140.8986              3145.1520              3161.4699
 Red. masses --      1.1038                 1.1018                 1.1042
 Frc consts  --      6.4160                 6.4212                 6.5022
 IR Inten    --     25.3122                23.1852                 9.5681

 - Thermochemistry -
 -------------------
 Temperature   298.150 Kelvin.  Pressure   1.00000 Atm.
 Atom     1 has atomic number  6 and mass  12.00000

 Molecular mass:   154.07423 amu.
 Principal axes and moments of inertia in atomic units:
                           1         2         3
     Eigenvalues --  1285.237782220.413053161.00652
           X            0.99921  -0.03909   0.00740
           Y            0.03918   0.99916  -0.01227
           Z           -0.00692   0.01255   0.99990
 This molecule is an asymmetric top.
 Rotational symmetry number  1.
 Warning -- assumption of classical behavior for rotation
           may cause significant error
 Rotational temperatures (Kelvin)      0.06739     0.03901     0.02740
 Rotational constants (GHZ):           1.40421     0.81280     0.57094
 Zero-point vibrational energy     440431.8 (Joules/Mol)
                                  105.26573 (Kcal/Mol)
 Warning -- explicit consideration of  18 degrees of freedom as
           vibrations may cause significant error
 Vibrational temperatures:     42.25    55.70    89.52   166.67   195.77
          (Kelvin)            234.25   278.31   320.13   350.01   358.78
                              413.83   512.76   524.68   603.24   713.21
                              784.14   830.50   834.74   947.75  1193.33
                             1225.35  1270.75  1327.42  1398.45  1473.57
                             1505.60  1547.33  1594.15  1643.08  1684.55
                             1722.93  1739.95  1890.46  1917.85  1968.75
                             1989.39  2019.21  2056.90  2079.29  2106.41
                             2173.66  2180.30  2192.40  2200.55  2240.64
                             3418.45  3428.76  4352.65  4370.31  4408.38
                             4409.47  4422.46  4428.91  4512.79  4519.05
                             4525.17  4548.65

 Zero-point correction=                           0.167752 (Hartree/Particle)
 Thermal correction to Energy=                    0.180084
 Thermal correction to Enthalpy=                  0.181028
 Thermal correction to Gibbs Free Energy=         0.127837
 Sum of electronic and zero-point Energies=           -532.514039
 Sum of electronic and thermal Energies=              -532.501706
 Sum of electronic and thermal Enthalpies=            -532.500762
 Sum of electronic and thermal Free Energies=         -532.553953

                     E (Thermal)             CV                S
                      KCal/Mol        Cal/Mol-Kelvin    Cal/Mol-Kelvin
 Total                  113.005             42.476            111.950
 Electronic               0.000              0.000              0.000
 Translational            0.889              2.981             41.006
 Rotational               0.889              2.981             30.579
 Vibrational            111.227             36.514             40.365
 Vibration     1          0.593              1.984              5.872
 Vibration     2          0.594              1.981              5.324
 Vibration     3          0.597              1.972              4.386
 Vibration     4          0.608              1.936              3.169
 Vibration     5          0.614              1.917              2.858
 Vibration     6          0.623              1.888              2.517
 Vibration     7          0.635              1.849              2.195
 Vibration     8          0.648              1.807              1.939
 Vibration     9          0.659              1.774              1.779
 Vibration    10          0.662              1.764              1.735
 Vibration    11          0.685              1.697              1.488
 Vibration    12          0.732              1.562              1.138
 Vibration    13          0.738              1.545              1.102
 Vibration    14          0.782              1.428              0.894
 Vibration    15          0.851              1.260              0.669
 Vibration    16          0.900              1.151              0.555
 Vibration    17          0.934              1.081              0.491
 Vibration    18          0.937              1.074              0.485

 Optimization completed.
    -- Stationary point found.
 Normal termination of Gaussian 16 at Tue Dec  8 20:34:20 2020.

 ----------------------------------------------------------------------
 # B3LYP/6-311++G(d,p) empiricaldispersion=gd3bj scf=xqc pop=npa geom=c
 heck
 ----------------------------------------------------------------------

 --------------------------------------
 CID_11829655_JID_1523_Energie_neutraal
 --------------------------------------
 Structure from the checkpoint file:  "JID_1523.chk"
 Charge =  0 Multiplicity = 1

 SCF Done:  E(RB3LYP) =  -532.836531229     A.U. after   14 cycles
 Normal termination of Gaussian 16 at Tue Dec  8 20:36:11 2020.

 ----------------------------------------------------------------------
 # B3LYP/6-311++G(d,p) empiricaldispersion=gd3bj scf=xqc pop=npa geom=c
 heck
 ----------------------------------------------------------------------

 ------------------------------------
 CID_11829655_JID_1523_Energie_kation
 ------------------------------------
 Structure from the checkpoint file:  "JID_1523.chk"
 Charge =  1 Multiplicity = 2

 SCF Done:  E(UB3LYP) =  -532.444635678     A.U. after   27 cycles
 Normal termination of Gaussian 16 at Tue Dec  8 20:41:08 2020.
 Gaussian 16:  ES64L-G16RevA.03 25-Dec-2016

 ----------------------------------------------------------------------
 # B3LYP/6-311++G(d,p) empiricaldispersion=gd3bj scf=xqc pop=npa geom=c
 heck
 ----------------------------------------------------------------------

 -----------------------------------
 CID_11829655_JID_1523_Energie_anion
 -----------------------------------
 Structure from the checkpoint file:  "JID_1523.chk"
 Charge = -1 Multiplicity = 2

                         Standard orientation:
 ---------------------------------------------------------------------
 Center     Atomic      Atomic             Coordinates (Angstroms)
 Number     Number       Type             X           Y           Z
 ---------------------------------------------------------------------
      1          6           0       -3.278546    0.822002   -0.756018
      2          6           0       -2.338869    0.317774    0.321575
      3          8           0       -1.497027   -0.690660   -0.263636
      4          6           0       -0.548028   -1.226825    0.602000
      5          6           0        0.055912   -2.456802   -0.048366
      6          8           0        0.452287   -0.240520    0.958444
      7          6           0        1.066809    0.381449   -0.151922
      8          6           0        2.410255   -0.182148   -0.413212
      9          7           0        3.444108   -0.664718   -0.618849
     10          6           0        1.150794    1.832538    0.107327
     11          7           0        1.176137    2.974837    0.301908
     12          1           0       -2.715177    1.272395   -1.579486
     13          1           0       -3.950828    1.581205   -0.343429
     14          1           0       -3.881692    0.002053   -1.157837
     15          1           0       -1.720382    1.130504    0.721278
     16          1           0       -2.894173   -0.126844    1.160151
     17          1           0       -0.985251   -1.459610    1.580678
     18          1           0        0.469844   -2.217697   -1.033007
     19          1           0        0.853012   -2.861424    0.580102
     20          1           0       -0.719153   -3.216041   -0.184424
     21          1           0        0.450054    0.246140   -1.052205
 ---------------------------------------------------------------------

 SCF Done:  E(UB3LYP) =  -532.828347726     A.U. after   32 cycles

 The electronic state is 2-A.
 Alpha  occ. eigenvalues --  -19.05098 -19.04369 -14.21721 -14.21688 -10.20347
 Alpha  occ. eigenvalues --  -10.18377 -10.12084 -10.11525 -10.11422 -10.07335
 Alpha  occ. eigenvalues --  -10.06313  -0.99493  -0.93443  -0.81690  -0.81004
 Alpha  occ. eigenvalues --   -0.70693  -0.67180  -0.63594  -0.53590  -0.52100
 Alpha  occ. eigenvalues --   -0.48856  -0.45603  -0.43959  -0.38967  -0.36611
 Alpha  occ. eigenvalues --   -0.36243  -0.32874  -0.30839  -0.29702  -0.28304
 Alpha  occ. eigenvalues --   -0.28045  -0.27853  -0.27460  -0.26971  -0.25584
 Alpha  occ. eigenvalues --   -0.25192  -0.24276  -0.23892  -0.22186  -0.20446
 Alpha  occ. eigenvalues --   -0.19091   0.04601
 Alpha virt. eigenvalues --    0.06480   0.07520   0.07933   0.09326   0.10184
 Alpha virt. eigenvalues --    0.10524   0.10754   0.11461   0.12106   0.12805
 Alpha virt. eigenvalues --    0.13272   0.13507   0.14239   0.14739   0.15533

  Beta  occ. eigenvalues --  -19.04970 -19.04355 -14.21568 -14.21529 -10.20307
  Beta  occ. eigenvalues --  -10.18359 -10.12059 -10.11485 -10.11378 -10.07316
  Beta  occ. eigenvalues --  -10.06273  -0.99331  -0.93294  -0.81447  -0.80765
  Beta  occ. eigenvalues --   -0.70539  -0.67048  -0.63531  -0.53483  -0.51941
  Beta  occ. eigenvalues --   -0.48512  -0.45506  -0.43828  -0.38863  -0.36536
  Beta  occ. eigenvalues --   -0.36168  -0.32783  -0.30788  -0.29622  -0.28199
  Beta  occ. eigenvalues --   -0.27791  -0.27647  -0.27277  -0.26857  -0.25184
  Beta  occ. eigenvalues --   -0.24733  -0.24168  -0.23436  -0.22052  -0.20284
  Beta  occ. eigenvalues --   -0.19042
  Beta virt. eigenvalues --    0.07216   0.08094   0.08221   0.08674   0.09771
  Beta virt. eigenvalues --    0.10664   0.10776   0.11161   0.11875   0.12476
  Beta virt. eigenvalues --    0.12990   0.13501   0.13779   0.14486   0.15280

 Mulliken charges and spin densities:
               1          2
     1  C    1.148986  -1.665270
     2  C   -0.168505   0.087831
     3  O   -0.063209   0.028601
     4  C   -0.555246   0.134911
     5  C    0.379718  -0.781723
     6  O    0.011002   0.007258
     7  C    0.544742   0.395367
     8  C   -0.150939  -0.247479
     9  N   -0.302593   0.072770
    10  C    0.034767  -0.335092
    11  N   -0.274890   0.055271
    12  H   -0.201120   0.333584
    13  H   -0.241832   0.381360
    14  H   -0.304067   0.463064
    15  H    0.189851  -0.025431
    16  H   -0.570210   0.734480
    17  H   -0.272714   0.455708
    18  H   -0.079367   0.232456
    19  H    0.155590   0.020965
    20  H   -0.334796   0.504338
    21  H    0.054834   0.147030
 Sum of Mulliken charges =  -1.00000   1.00000

 Dipole moment (field-independent basis, Debye):
    X=              2.1113    Y=             -0.5372    Z=             -0.3127  Tot=              2.2009
 Quadrupole moment (field-independent basis, Debye-Ang):
   XX=           -134.5920   YY=           -108.5536   ZZ=            -89.2931
   XY=             -3.8634   XZ=              3.9063   YZ=             -0.7539

 Summary of Natural Population Analysis:

                                       Natural Population
                Natural  -----------------------------------------------
    Atom  No    Charge         Core      Valence    Rydberg      Total
 -----------------------------------------------------------------------
      C    1   -0.29241      0.99966     2.28727    0.00548     3.29241
      C    2   -0.01245      0.99958     2.00147    0.01140     3.01245
      O    3   -0.30661      0.99987     3.29564    0.01110     4.30661
      C    4    0.22169      0.99958     1.76001    0.01872     2.77831
      C    5   -0.30489      0.99963     2.29907    0.00619     3.30489
      O    6   -0.28544      0.99988     3.27706    0.00850     4.28544
      C    7   -0.03609      0.99939     2.02325    0.01345     3.03609
      C    8    0.14892      0.99962     1.83394    0.01751     2.85108
      N    9   -0.14976      0.99979     2.63915    0.01082     3.64976
      C   10    0.15351      0.99962     1.82924    0.01762     2.84649
      N   11   -0.14761      0.99979     2.63732    0.01051     3.64761
      H   12    0.09907      0.00000     0.39952    0.00141     0.40093
      H   13    0.10283      0.00000     0.39593    0.00124     0.39717
      H   14    0.10293      0.00000     0.39522    0.00186     0.39707
      H   15    0.08545      0.00000     0.41252    0.00203     0.41455
      H   16    0.08486      0.00000     0.41224    0.00290     0.41514
      H   17    0.08471      0.00000     0.41325    0.00203     0.41529
      H   18    0.10331      0.00000     0.39526    0.00143     0.39669
      H   19    0.10668      0.00000     0.39239    0.00093     0.39332
      H   20    0.10945      0.00000     0.38944    0.00110     0.39055
      H   21    0.13184      0.00000     0.36553    0.00263     0.36816
 =======================================================================
   * Total *   -0.00000     10.99642    29.85471    0.14887    41.00000

 Normal termination of Gaussian 16 at Tue Dec  8 20:47:23 2020.
