 Gaussian 16, Revision A.03,

 -----------------------------------------------------------
 # opt freq B3LYP/6-31G(d) empiricaldispersion=gd3bj scf=xqc
 -----------------------------------------------------------

 -------------------------------
 CID_137401455_JID_5887_neutraal
 -------------------------------
 Symbolic Z-matrix:
 Charge =  0 Multiplicity = 1

 SCF Done:  E(RB3LYP) =  -707.431290698     A.U. after   15 cycles
 SCF Done:  E(RB3LYP) =  -707.435895420     A.U. after   14 cycles
 SCF Done:  E(RB3LYP) =  -707.434144002     A.U. after   13 cycles
 SCF Done:  E(RB3LYP) =  -707.437578144     A.U. after   13 cycles
 SCF Done:  E(RB3LYP) =  -707.437138298     A.U. after   13 cycles
 SCF Done:  E(RB3LYP) =  -707.438316631     A.U. after   13 cycles
 SCF Done:  E(RB3LYP) =  -707.438516629     A.U. after   13 cycles
 SCF Done:  E(RB3LYP) =  -707.438643566     A.U. after   12 cycles
 SCF Done:  E(RB3LYP) =  -707.438706040     A.U. after   11 cycles
 SCF Done:  E(RB3LYP) =  -707.438722163     A.U. after   12 cycles
 SCF Done:  E(RB3LYP) =  -707.438737292     A.U. after   11 cycles
 SCF Done:  E(RB3LYP) =  -707.438743398     A.U. after   10 cycles
 SCF Done:  E(RB3LYP) =  -707.438744624     A.U. after   10 cycles
 SCF Done:  E(RB3LYP) =  -707.438744782     A.U. after    7 cycles
 SCF Done:  E(RB3LYP) =  -707.438744827     A.U. after    8 cycles
 Optimization completed.
    -- Stationary point found.
 Normal termination of Gaussian 16 at Thu Dec 10 17:28:37 2020.

 --------------------------------------------------------------------
 #N Geom=AllCheck Guess=TCheck SCRF=Check GenChk RB3LYP/6-31G(d) Freq
 --------------------------------------------------------------------

 Structure from the checkpoint file:  "JID_5887.chk"
 -------------------------------
 CID_137401455_JID_5887_neutraal
 -------------------------------
 Charge =  0 Multiplicity = 1

 SCF Done:  E(RB3LYP) =  -707.438744827     A.U. after    1 cycles

  Exact polarizability: 176.666   0.962 130.434   4.563   4.567  80.249
 Approx polarizability: 237.164  -0.824 234.555  11.086  11.773 120.791

                      1                      2                      3
                      A                      A                      A
 Frequencies --     22.4774                30.2804                66.2808
 Red. masses --      6.2643                 4.1661                 4.9653
 Frc consts  --      0.0019                 0.0023                 0.0129
 IR Inten    --      0.3438                 1.1079                 2.2168

                      4                      5                      6
                      A                      A                      A
 Frequencies --     84.0065                92.5038               119.7282
 Red. masses --      3.8465                 3.5066                 3.9607
 Frc consts  --      0.0160                 0.0177                 0.0335
 IR Inten    --      1.1011                 8.0578                 6.3395

                      7                      8                      9
                      A                      A                      A
 Frequencies --    140.3461               169.6493               196.0698
 Red. masses --      2.0567                 4.1973                 1.7497
 Frc consts  --      0.0239                 0.0712                 0.0396
 IR Inten    --      4.2522                 0.4484                 1.4922

                     10                     11                     12
                      A                      A                      A
 Frequencies --    210.8166               235.3736               261.1590
 Red. masses --      1.1021                 3.0334                 3.2476
 Frc consts  --      0.0289                 0.0990                 0.1305
 IR Inten    --      1.4056                10.1587                 4.6143

                     13                     14                     15
                      A                      A                      A
 Frequencies --    309.4004               324.8130               353.6861
 Red. masses --      3.3777                 3.2800                 3.4339
 Frc consts  --      0.1905                 0.2039                 0.2531
 IR Inten    --      4.5138                 3.1008                 4.5607

                     16                     17                     18
                      A                      A                      A
 Frequencies --    392.0993               428.9698               444.1069
 Red. masses --      3.5772                 3.0896                 4.3343
 Frc consts  --      0.3240                 0.3350                 0.5037
 IR Inten    --      1.7574                 3.2282                 4.1103

                     19                     20                     21
                      A                      A                      A
 Frequencies --    472.9580               498.3787               550.6926
 Red. masses --      3.9953                 3.2454                 4.3587
 Frc consts  --      0.5266                 0.4749                 0.7788
 IR Inten    --      9.2180                 0.4689                 2.4271

                     22                     23                     24
                      A                      A                      A
 Frequencies --    599.6536               641.7986               687.1118
 Red. masses --      2.9162                 4.2480                 5.7750
 Frc consts  --      0.6178                 1.0309                 1.6064
 IR Inten    --     41.6378                 1.2006                 4.6823

                     25                     26                     27
                      A                      A                      A
 Frequencies --    732.5522               759.4720               782.2660
 Red. masses --      3.9671                 3.3510                 4.1262
 Frc consts  --      1.2543                 1.1388                 1.4877
 IR Inten    --     13.0860                 8.2877                 2.2056

                     28                     29                     30
                      A                      A                      A
 Frequencies --    851.2592               919.9421               929.8821
 Red. masses --      2.0517                 4.2985                 1.6776
 Frc consts  --      0.8760                 2.1433                 0.8546
 IR Inten    --      5.6357                30.4235                 9.2541

                     31                     32                     33
                      A                      A                      A
 Frequencies --    962.5894               986.8644              1008.6225
 Red. masses --      3.0557                 1.3655                 1.9146
 Frc consts  --      1.6682                 0.7835                 1.1476
 IR Inten    --     13.1549                 2.9956                23.4792

                     34                     35                     36
                      A                      A                      A
 Frequencies --   1025.7614              1046.5301              1058.7945
 Red. masses --      1.7910                 1.8241                 2.3733
 Frc consts  --      1.1103                 1.1771                 1.5676
 IR Inten    --      9.4623                 6.4031                16.8502

                     37                     38                     39
                      A                      A                      A
 Frequencies --   1066.6883              1083.1335              1148.7186
 Red. masses --      1.9035                 2.7360                 3.4529
 Frc consts  --      1.2761                 1.8911                 2.6845
 IR Inten    --     18.7624                70.4908                80.2599

                     40                     41                     42
                      A                      A                      A
 Frequencies --   1155.7408              1192.3480              1222.0657
 Red. masses --      2.0984                 1.2770                 1.7894
 Frc consts  --      1.6514                 1.0697                 1.5745
 IR Inten    --    167.6525                 3.3479                 7.6363

                     43                     44                     45
                      A                      A                      A
 Frequencies --   1228.4115              1239.3273              1255.1582
 Red. masses --      1.7381                 1.8805                 2.4382
 Frc consts  --      1.5453                 1.7017                 2.2632
 IR Inten    --     31.9570                23.9797                 9.4105

                     46                     47                     48
                      A                      A                      A
 Frequencies --   1288.8439              1311.3547              1329.4136
 Red. masses --      1.8678                 2.1109                 1.7582
 Frc consts  --      1.8280                 2.1387                 1.8308
 IR Inten    --     28.5302                 5.6283                 6.6674

                     49                     50                     51
                      A                      A                      A
 Frequencies --   1338.1577              1401.7729              1421.0213
 Red. masses --      2.2133                 1.5167                 1.1693
 Frc consts  --      2.3351                 1.7559                 1.3911
 IR Inten    --    112.5767                49.3146                 5.0857

                     52                     53                     54
                      A                      A                      A
 Frequencies --   1438.5050              1454.5966              1482.1961
 Red. masses --      1.2462                 2.2697                 1.1324
 Frc consts  --      1.5193                 2.8295                 1.4658
 IR Inten    --      1.0857                 8.9045                43.4706

                     55                     56                     57
                      A                      A                      A
 Frequencies --   1490.9086              1500.2573              1515.7360
 Red. masses --      2.8736                 1.1630                 1.0682
 Frc consts  --      3.7633                 1.5423                 1.4459
 IR Inten    --     61.3846                 5.6179                 2.8270

                     58                     59                     60
                      A                      A                      A
 Frequencies --   1517.3875              1518.8006              1528.0619
 Red. masses --      1.1020                 1.0972                 1.0915
 Frc consts  --      1.4949                 1.4912                 1.5017
 IR Inten    --     23.6558                 0.8000                13.8605

                     61                     62                     63
                      A                      A                      A
 Frequencies --   1538.9831              1606.2914              1655.6497
 Red. masses --      1.0577                 5.4391                 5.8867
 Frc consts  --      1.4760                 8.2684                 9.5074
 IR Inten    --      6.8504                34.9154                50.8222

                     64                     65                     66
                      A                      A                      A
 Frequencies --   1750.1664              1833.6743              2960.8139
 Red. masses --     11.7296                 9.5024                 1.0864
 Frc consts  --     21.1685                18.8247                 5.6111
 IR Inten    --    191.3977               171.6153                69.9478

                     67                     68                     69
                      A                      A                      A
 Frequencies --   2995.0123              3005.5399              3053.9246
 Red. masses --      1.0649                 1.0437                 1.0505
 Frc consts  --      5.6279                 5.5550                 5.7727
 IR Inten    --     41.7499                58.4266                10.6699

                     70                     71                     72
                      A                      A                      A
 Frequencies --   3058.4493              3063.6736              3085.0876
 Red. masses --      1.1016                 1.0690                 1.0934
 Frc consts  --      6.0713                 5.9118                 6.1315
 IR Inten    --     52.9276                 1.2223                20.8525

                     73                     74                     75
                      A                      A                      A
 Frequencies --   3133.7261              3147.7385              3177.6807
 Red. masses --      1.0848                 1.0981                 1.1030
 Frc consts  --      6.2764                 6.4106                 6.5623
 IR Inten    --      7.9229                32.2384                 4.1595

                     76                     77                     78
                      A                      A                      A
 Frequencies --   3186.1222              3191.4247              3206.6705
 Red. masses --      1.0905                 1.0940                 1.0903
 Frc consts  --      6.5223                 6.5652                 6.6058
 IR Inten    --     11.5433                 4.1743                 2.3350

 - Thermochemistry -
 -------------------
 Temperature   298.150 Kelvin.  Pressure   1.00000 Atm.
 Atom     1 has atomic number  6 and mass  12.00000

 Molecular mass:   207.08954 amu.
 Principal axes and moments of inertia in atomic units:
                           1         2         3
     Eigenvalues --  1311.122716196.664567026.75619
           X            0.99995   0.00971  -0.00347
           Y           -0.00971   0.99995  -0.00193
           Z            0.00345   0.00196   0.99999
 This molecule is an asymmetric top.
 Rotational symmetry number  1.
 Warning -- assumption of classical behavior for rotation
           may cause significant error
 Rotational temperatures (Kelvin)      0.06606     0.01398     0.01233
 Rotational constants (GHZ):           1.37649     0.29124     0.25684
 Zero-point vibrational energy     593205.0 (Joules/Mol)
                                  141.77940 (Kcal/Mol)
 Warning -- explicit consideration of  22 degrees of freedom as
           vibrations may cause significant error
 Vibrational temperatures:     32.34    43.57    95.36   120.87   133.09
          (Kelvin)            172.26   201.93   244.09   282.10   303.32
                              338.65   375.75   445.16   467.33   508.88
                              564.14   617.19   638.97   680.48   717.06
                              792.32   862.77   923.41   988.60  1053.98
                             1092.71  1125.51  1224.77  1323.59  1337.89
                             1384.95  1419.88  1451.18  1475.84  1505.72
                             1523.37  1534.73  1558.39  1652.75  1662.85
                             1715.52  1758.28  1767.41  1783.12  1805.89
                             1854.36  1886.75  1912.73  1925.31  2016.84
                             2044.53  2069.69  2092.84  2132.55  2145.08
                             2158.54  2180.81  2183.18  2185.22  2198.54
                             2214.25  2311.10  2382.11  2518.10  2638.25
                             4259.95  4309.15  4324.30  4393.92  4400.43
                             4407.94  4438.75  4508.73  4528.89  4571.97
                             4584.12  4591.75  4613.68

 Zero-point correction=                           0.225940 (Hartree/Particle)
 Thermal correction to Energy=                    0.240950
 Thermal correction to Enthalpy=                  0.241894
 Thermal correction to Gibbs Free Energy=         0.181948
 Sum of electronic and zero-point Energies=           -707.212805
 Sum of electronic and thermal Energies=              -707.197795
 Sum of electronic and thermal Enthalpies=            -707.196851
 Sum of electronic and thermal Free Energies=         -707.256796

                     E (Thermal)             CV                S
                      KCal/Mol        Cal/Mol-Kelvin    Cal/Mol-Kelvin
 Total                  151.198             53.931            126.166
 Electronic               0.000              0.000              0.000
 Translational            0.889              2.981             41.888
 Rotational               0.889              2.981             32.412
 Vibrational            149.421             47.970             51.866
 Vibration     1          0.593              1.985              6.402
 Vibration     2          0.594              1.984              5.811
 Vibration     3          0.598              1.970              4.261
 Vibration     4          0.601              1.960              3.795
 Vibration     5          0.602              1.955              3.606
 Vibration     6          0.609              1.933              3.105
 Vibration     7          0.615              1.913              2.799
 Vibration     8          0.625              1.880              2.439
 Vibration     9          0.636              1.845              2.170
 Vibration    10          0.643              1.824              2.037
 Vibration    11          0.655              1.787              1.838
 Vibration    12          0.669              1.744              1.654
 Vibration    13          0.699              1.656              1.366
 Vibration    14          0.709              1.626              1.286
 Vibration    15          0.730              1.568              1.150
 Vibration    16          0.760              1.487              0.992
 Vibration    17          0.790              1.407              0.862
 Vibration    18          0.804              1.374              0.814
 Vibration    19          0.830              1.310              0.729
 Vibration    20          0.854              1.254              0.662
 Vibration    21          0.906              1.138              0.543
 Vibration    22          0.958              1.033              0.450

                           ! Non-Optimized Parameters !
 Normal termination of Gaussian 16 at Thu Dec 10 17:37:39 2020.

 ----------------------------------------------------------------------
 # B3LYP/6-311++G(d,p) empiricaldispersion=gd3bj scf=xqc pop=npa geom=c
 heck
 ----------------------------------------------------------------------

 ---------------------------------------
 CID_137401455_JID_5887_Energie_neutraal
 ---------------------------------------
 Structure from the checkpoint file:  "JID_5887.chk"
 Charge =  0 Multiplicity = 1

 SCF Done:  E(RB3LYP) =  -707.638185904     A.U. after   15 cycles
 Normal termination of Gaussian 16 at Thu Dec 10 17:42:03 2020.

 ----------------------------------------------------------------------
 # B3LYP/6-311++G(d,p) empiricaldispersion=gd3bj scf=xqc pop=npa geom=c
 heck
 ----------------------------------------------------------------------

 -------------------------------------
 CID_137401455_JID_5887_Energie_kation
 -------------------------------------
 Structure from the checkpoint file:  "JID_5887.chk"
 Charge =  1 Multiplicity = 2

 SCF Done:  E(UB3LYP) =  -707.306879443     A.U. after   33 cycles
 SCF Done:  E(UB3LYP) =  -707.306879447     a.u. after    2 cycles
 Normal termination of Gaussian 16 at Thu Dec 10 18:06:40 2020.
 Gaussian 16:  ES64L-G16RevA.03 25-Dec-2016

 ----------------------------------------------------------------------
 # B3LYP/6-311++G(d,p) empiricaldispersion=gd3bj scf=xqc pop=npa geom=c
 heck
 ----------------------------------------------------------------------

 ------------------------------------
 CID_137401455_JID_5887_Energie_anion
 ------------------------------------
 Structure from the checkpoint file:  "JID_5887.chk"
 Charge = -1 Multiplicity = 2

                         Standard orientation:
 ---------------------------------------------------------------------
 Center     Atomic      Atomic             Coordinates (Angstroms)
 Number     Number       Type             X           Y           Z
 ---------------------------------------------------------------------
      1          6           0        1.708356    2.106403    0.056691
      2          6           0        0.473582    1.248120   -0.074253
      3          6           0        0.465269   -0.164671   -0.110175
      4          6           0       -0.757437   -0.813820   -0.347513
      5          6           0       -1.928785   -0.087148   -0.493091
      6          6           0       -1.818798    1.304881   -0.382647
      7          7           0       -0.667679    1.950074   -0.200509
      8          6           0       -3.266673   -0.740451   -0.769779
      9          8           0       -4.339861   -0.136596   -0.072146
     10          6           0       -4.302469   -0.382796    1.322343
     11          6           0        1.640985   -1.070760    0.063294
     12          8           0        1.643842   -2.187238   -0.435247
     13          6           0        2.849791   -0.658942    0.904351
     14          6           0        4.082224   -0.559371    0.016104
     15          8           0        4.805546    0.408188   -0.032989
     16          1           0        2.590672    1.684257   -0.426418
     17          1           0        1.489570    3.080168   -0.386360
     18          1           0        1.959798    2.282445    1.110625
     19          1           0       -0.758443   -1.898470   -0.405423
     20          1           0       -2.713668    1.920948   -0.443821
     21          1           0       -3.520794   -0.640385   -1.831082
     22          1           0       -3.206620   -1.817704   -0.543329
     23          1           0       -4.336356   -1.462401    1.537062
     24          1           0       -3.401997    0.038397    1.791453
     25          1           0       -5.185745    0.095689    1.751173
     26          1           0        2.721600    0.258624    1.474835
     27          1           0        3.020175   -1.496737    1.593076
     28          1           0        4.263071   -1.458851   -0.607118
 ---------------------------------------------------------------------

 SCF Done:  E(UB3LYP) =  -707.670023464     A.U. after   24 cycles

 The electronic state is 2-A.
 Alpha  occ. eigenvalues --  -19.02871 -18.99240 -18.93374 -14.16489 -10.12758
 Alpha  occ. eigenvalues --  -10.11839 -10.11515 -10.08455 -10.07315 -10.05175
 Alpha  occ. eigenvalues --  -10.04673 -10.04540 -10.03753 -10.03560 -10.03342
 Alpha  occ. eigenvalues --   -0.94058  -0.92491  -0.87792  -0.80161  -0.67968
 Alpha  occ. eigenvalues --   -0.65559  -0.62601  -0.62056  -0.57763  -0.52989
 Alpha  occ. eigenvalues --   -0.50608  -0.46671  -0.45348  -0.40946  -0.38948
 Alpha  occ. eigenvalues --   -0.38298  -0.37510  -0.35135  -0.35096  -0.34082
 Alpha  occ. eigenvalues --   -0.32275  -0.30815  -0.30195  -0.29536  -0.29036
 Alpha  occ. eigenvalues --   -0.28776  -0.27117  -0.26153  -0.24859  -0.24673
 Alpha  occ. eigenvalues --   -0.23955  -0.23145  -0.22105  -0.21308  -0.16973
 Alpha  occ. eigenvalues --   -0.14773  -0.13757  -0.12208  -0.11884  -0.09490
 Alpha  occ. eigenvalues --    0.02863
 Alpha virt. eigenvalues --    0.07513   0.08909   0.09556   0.09725   0.09933
 Alpha virt. eigenvalues --    0.10603   0.11230   0.11764   0.12003   0.12332
 Alpha virt. eigenvalues --    0.13023   0.13398   0.14204   0.14656   0.14933

  Beta  occ. eigenvalues --  -19.02872 -18.99105 -18.92837 -14.16536 -10.12634
  Beta  occ. eigenvalues --  -10.11838 -10.11510 -10.08122 -10.07177 -10.04843
  Beta  occ. eigenvalues --  -10.04759 -10.04586 -10.03567 -10.03548 -10.03278
  Beta  occ. eigenvalues --   -0.94061  -0.92238  -0.86822  -0.79942  -0.67814
  Beta  occ. eigenvalues --   -0.65142  -0.62427  -0.61858  -0.57677  -0.52812
  Beta  occ. eigenvalues --   -0.49918  -0.46464  -0.45071  -0.40495  -0.38885
  Beta  occ. eigenvalues --   -0.38291  -0.37264  -0.35015  -0.34792  -0.33888
  Beta  occ. eigenvalues --   -0.31978  -0.30603  -0.29899  -0.29248  -0.28917
  Beta  occ. eigenvalues --   -0.28578  -0.26889  -0.25688  -0.24458  -0.24237
  Beta  occ. eigenvalues --   -0.23597  -0.22843  -0.21232  -0.19933  -0.16968
  Beta  occ. eigenvalues --   -0.13853  -0.13508  -0.12118  -0.10628  -0.09002
  Beta virt. eigenvalues --    0.07485   0.08662   0.09389   0.09770   0.09952
  Beta virt. eigenvalues --    0.10392   0.10871   0.11432   0.11825   0.12003
  Beta virt. eigenvalues --    0.12316   0.13101   0.13462   0.14611   0.14728

 Mulliken charges and spin densities:
               1          2
     1  C   -0.642124  -0.014559
     2  C   -0.662182   0.056682
     3  C    0.810849   0.015143
     4  C   -0.091874   0.201460
     5  C    0.529523  -0.020382
     6  C   -0.425757   0.264497
     7  N    0.029912  -0.037829
     8  C   -0.469826   0.001295
     9  O   -0.129881  -0.003280
    10  C   -0.339494  -0.002510
    11  C   -0.739923   0.318008
    12  O   -0.344882   0.186769
    13  C    0.015521  -0.132161
    14  C   -0.169159   0.062092
    15  O   -0.262074   0.035181
    16  H    0.150505   0.010922
    17  H    0.152289  -0.000525
    18  H    0.142534   0.005903
    19  H    0.208329  -0.010219
    20  H    0.171733  -0.018433
    21  H    0.156003   0.000334
    22  H    0.136779   0.000245
    23  H    0.107531   0.000827
    24  H    0.158901   0.000115
    25  H    0.134833   0.000249
    26  H    0.150616  -0.016032
    27  H    0.095019   0.105700
    28  H    0.126301  -0.009493
 Sum of Mulliken charges =  -1.00000   1.00000

 Dipole moment (field-independent basis, Debye):
    X=             -4.8132    Y=             -0.5936    Z=              2.1879  Tot=              5.3204
 Quadrupole moment (field-independent basis, Debye-Ang):
   XX=           -143.0295   YY=           -113.7415   ZZ=            -93.6191
   XY=              4.8522   XZ=             -1.1812   YZ=             -1.4867

 Summary of Natural Population Analysis:

                                       Natural Population
                Natural  -----------------------------------------------
    Atom  No    Charge         Core      Valence    Rydberg      Total
 -----------------------------------------------------------------------
      C    1   -0.30437      0.99964     2.29935    0.00538     3.30437
      C    2    0.14229      0.99953     1.84633    0.01185     2.85771
      C    3   -0.07559      0.99943     2.06377    0.01238     3.07559
      C    4   -0.02208      0.99949     2.01391    0.00868     3.02208
      C    5   -0.09048      0.99948     2.08326    0.00774     3.09048
      C    6    0.09523      0.99954     1.89145    0.01379     2.90477
      N    7   -0.26277      0.99968     2.75029    0.01279     3.76277
      C    8   -0.00907      0.99955     1.99784    0.01168     3.00907
      O    9   -0.29981      0.99989     3.28933    0.01059     4.29981
      C   10   -0.10142      0.99962     2.09317    0.00862     3.10142
      C   11    0.31291      0.99963     1.66538    0.02208     2.68709
      O   12   -0.25328      0.99988     3.24669    0.00671     4.25328
      C   13   -0.28119      0.99958     2.27306    0.00854     3.28119
      C   14    0.24485      0.99975     1.73497    0.02043     2.75515
      O   15   -0.27887      0.99988     3.27093    0.00806     4.27887
      H   16    0.10876      0.00000     0.39026    0.00098     0.39124
      H   17    0.10547      0.00000     0.39336    0.00117     0.39453
      H   18    0.09991      0.00000     0.39911    0.00098     0.40009
      H   19    0.10343      0.00000     0.39523    0.00134     0.39657
      H   20    0.08103      0.00000     0.41726    0.00170     0.41897
      H   21    0.09006      0.00000     0.40880    0.00114     0.40994
      H   22    0.07696      0.00000     0.42150    0.00154     0.42304
      H   23    0.07366      0.00000     0.42493    0.00141     0.42634
      H   24    0.08753      0.00000     0.41112    0.00135     0.41247
      H   25    0.08442      0.00000     0.41475    0.00083     0.41558
      H   26    0.10494      0.00000     0.39394    0.00112     0.39506
      H   27    0.11759      0.00000     0.38042    0.00199     0.38241
      H   28    0.04989      0.00000     0.44795    0.00216     0.45011
 =======================================================================
   * Total *    0.00000     14.99458    39.81838    0.18705    55.00000

 Normal termination of Gaussian 16 at Thu Dec 10 18:15:37 2020.
