 Gaussian 16, Revision A.03,

 -----------------------------------------------------------
 # opt freq B3LYP/6-31G(d) empiricaldispersion=gd3bj scf=xqc
 -----------------------------------------------------------

 ------------------------------
 CID_66067233_JID_8578_neutraal
 ------------------------------
 Symbolic Z-matrix:
 Charge =  0 Multiplicity = 1

 SCF Done:  E(RB3LYP) =  -836.454562831     A.U. after   15 cycles
 SCF Done:  E(RB3LYP) =  -836.459460397     A.U. after   14 cycles
 SCF Done:  E(RB3LYP) =  -836.459583368     A.U. after   14 cycles
 SCF Done:  E(RB3LYP) =  -836.461803129     A.U. after   13 cycles
 SCF Done:  E(RB3LYP) =  -836.462637063     A.U. after   12 cycles
 SCF Done:  E(RB3LYP) =  -836.462815796     A.U. after   12 cycles
 SCF Done:  E(RB3LYP) =  -836.462957370     A.U. after   11 cycles
 SCF Done:  E(RB3LYP) =  -836.462948207     A.U. after   11 cycles
 SCF Done:  E(RB3LYP) =  -836.462987699     A.U. after   10 cycles
 SCF Done:  E(RB3LYP) =  -836.462997782     A.U. after   10 cycles
 SCF Done:  E(RB3LYP) =  -836.462999075     A.U. after    8 cycles
 SCF Done:  E(RB3LYP) =  -836.462999262     A.U. after    8 cycles
 SCF Done:  E(RB3LYP) =  -836.462999295     A.U. after    7 cycles
 Optimization completed.
    -- Stationary point found.
 Normal termination of Gaussian 16 at Fri Dec 11 21:12:42 2020.

 --------------------------------------------------------------------
 #N Geom=AllCheck Guess=TCheck SCRF=Check GenChk RB3LYP/6-31G(d) Freq
 --------------------------------------------------------------------

 Structure from the checkpoint file:  "JID_8578.chk"
 ------------------------------
 CID_66067233_JID_8578_neutraal
 ------------------------------
 Charge =  0 Multiplicity = 1

 SCF Done:  E(RB3LYP) =  -836.462999295     A.U. after    1 cycles

  Exact polarizability: 177.347  19.327 144.621 -13.482  15.317 115.107
 Approx polarizability: 263.612  47.293 247.383 -25.085  38.683 189.645

                      1                      2                      3
                      A                      A                      A
 Frequencies --     40.5077                50.9884                72.6330
 Red. masses --      5.1473                 5.9642                 4.3613
 Frc consts  --      0.0050                 0.0091                 0.0136
 IR Inten    --      0.9634                 0.6832                 1.1339

                      4                      5                      6
                      A                      A                      A
 Frequencies --     81.7483               119.1292               138.2736
 Red. masses --      6.5825                 2.2684                 6.0775
 Frc consts  --      0.0259                 0.0190                 0.0685
 IR Inten    --      0.1258                 1.0929                 5.5037

                      7                      8                      9
                      A                      A                      A
 Frequencies --    156.9117               177.9718               211.3283
 Red. masses --      4.9226                 4.2871                 1.7531
 Frc consts  --      0.0714                 0.0800                 0.0461
 IR Inten    --      3.1724                 0.8646                 1.3360

                     10                     11                     12
                      A                      A                      A
 Frequencies --    229.0340               257.2561               272.3873
 Red. masses --      3.9161                 2.4800                 3.3059
 Frc consts  --      0.1210                 0.0967                 0.1445
 IR Inten    --      6.8206                 2.4913                 3.3706

                     13                     14                     15
                      A                      A                      A
 Frequencies --    299.4343               358.1551               375.9589
 Red. masses --      2.3320                 3.9404                 4.9281
 Frc consts  --      0.1232                 0.2978                 0.4104
 IR Inten    --      0.9318                 9.2450                12.2788

                     16                     17                     18
                      A                      A                      A
 Frequencies --    397.9700               402.3181               441.2015
 Red. masses --      1.2274                 2.2672                 3.6757
 Frc consts  --      0.1145                 0.2162                 0.4216
 IR Inten    --     57.9370                 2.0312                 5.9549

                     19                     20                     21
                      A                      A                      A
 Frequencies --    446.0456               470.9540               479.9667
 Red. masses --      2.5846                 4.3136                 3.3382
 Frc consts  --      0.3030                 0.5637                 0.4531
 IR Inten    --     12.2063                12.2976                18.9283

                     22                     23                     24
                      A                      A                      A
 Frequencies --    495.4051               541.3402               548.9142
 Red. masses --      4.4093                 2.8857                 3.9824
 Frc consts  --      0.6376                 0.4982                 0.7070
 IR Inten    --      9.6924                 9.4303                23.4351

                     25                     26                     27
                      A                      A                      A
 Frequencies --    579.8535               585.7351               637.8970
 Red. masses --      5.4628                 3.1669                 3.3234
 Frc consts  --      1.0822                 0.6402                 0.7968
 IR Inten    --      6.7466                 0.6847                56.4589

                     28                     29                     30
                      A                      A                      A
 Frequencies --    645.8701               702.3009               709.0385
 Red. masses --      2.2180                 3.0946                 3.6052
 Frc consts  --      0.5451                 0.8993                 1.0679
 IR Inten    --    271.7910               102.6202                16.8406

                     31                     32                     33
                      A                      A                      A
 Frequencies --    739.3131               771.4094               775.8749
 Red. masses --      1.5949                 1.7109                 2.7101
 Frc consts  --      0.5136                 0.5999                 0.9612
 IR Inten    --    102.5191                12.8628                20.8998

                     34                     35                     36
                      A                      A                      A
 Frequencies --    798.2637               828.6335               863.8615
 Red. masses --      2.8151                 1.8326                 2.1112
 Frc consts  --      1.0569                 0.7414                 0.9282
 IR Inten    --     27.7550                30.1950                13.7592

                     37                     38                     39
                      A                      A                      A
 Frequencies --    878.7311               889.6904               914.7843
 Red. masses --      1.7268                 2.1352                 2.9520
 Frc consts  --      0.7856                 0.9958                 1.4555
 IR Inten    --     25.1094                 3.7046                 1.7563

                     40                     41                     42
                      A                      A                      A
 Frequencies --    951.8775               969.3300               972.3923
 Red. masses --      2.4622                 2.2355                 1.3847
 Frc consts  --      1.3144                 1.2376                 0.7714
 IR Inten    --      2.3724                 9.1429                 0.3367

                     43                     44                     45
                      A                      A                      A
 Frequencies --    996.4726              1009.8126              1022.0615
 Red. masses --      2.8559                 2.7729                 4.5433
 Frc consts  --      1.6708                 1.6660                 2.7962
 IR Inten    --      1.1953                 9.8529                 3.2698

                     46                     47                     48
                      A                      A                      A
 Frequencies --   1073.1980              1097.7957              1110.8869
 Red. masses --      2.0949                 1.6154                 1.8488
 Frc consts  --      1.4216                 1.1470                 1.3443
 IR Inten    --      3.6555                 2.1264                 8.1619

                     49                     50                     51
                      A                      A                      A
 Frequencies --   1129.9386              1165.8390              1168.9091
 Red. masses --      2.4305                 2.0438                 1.3564
 Frc consts  --      1.8284                 1.6367                 1.0919
 IR Inten    --     11.7008                33.4047                 3.8134

                     52                     53                     54
                      A                      A                      A
 Frequencies --   1180.5846              1204.3227              1244.9211
 Red. masses --      2.0979                 1.9107                 2.6137
 Frc consts  --      1.7228                 1.6328                 2.3866
 IR Inten    --     16.1834                 5.9773               195.3696

                     55                     56                     57
                      A                      A                      A
 Frequencies --   1279.3250              1303.0198              1329.7045
 Red. masses --      1.3646                 1.3366                 3.0425
 Frc consts  --      1.3158                 1.3371                 3.1695
 IR Inten    --      6.2405                20.7676                 8.9933

                     58                     59                     60
                      A                      A                      A
 Frequencies --   1341.9130              1345.8181              1357.4205
 Red. masses --      1.8674                 2.2797                 1.3623
 Frc consts  --      1.9812                 2.4328                 1.4790
 IR Inten    --     21.8899                45.9671                18.4479

                     61                     62                     63
                      A                      A                      A
 Frequencies --   1369.9084              1374.6682              1382.0174
 Red. masses --      2.2906                 1.6899                 1.5120
 Frc consts  --      2.5326                 1.8815                 1.7015
 IR Inten    --      7.9522                 6.7215                 3.7225

                     64                     65                     66
                      A                      A                      A
 Frequencies --   1383.9251              1393.4945              1411.9819
 Red. masses --      1.4879                 1.4638                 1.5201
 Frc consts  --      1.6790                 1.6747                 1.7856
 IR Inten    --      3.4701                27.0831                 9.2507

                     67                     68                     69
                      A                      A                      A
 Frequencies --   1427.6026              1438.1498              1482.7018
 Red. masses --      1.8443                 1.2625                 1.1025
 Frc consts  --      2.2145                 1.5385                 1.4280
 IR Inten    --     23.9406                 1.0014                13.4379

                     70                     71                     72
                      A                      A                      A
 Frequencies --   1487.9672              1507.3057              1519.8504
 Red. masses --      3.3307                 1.0924                 1.0803
 Frc consts  --      4.3448                 1.4623                 1.4703
 IR Inten    --    105.1036                11.7192                 4.5720

                     73                     74                     75
                      A                      A                      A
 Frequencies --   1527.7465              1541.7994              1546.9307
 Red. masses --      1.0516                 2.3682                 1.0526
 Frc consts  --      1.4461                 3.3168                 1.4841
 IR Inten    --      4.7341                13.8522                 6.6270

                     76                     77                     78
                      A                      A                      A
 Frequencies --   1623.2143              1661.0000              1683.2775
 Red. masses --      5.9250                 2.8488                 1.5663
 Frc consts  --      9.1979                 4.6307                 2.6148
 IR Inten    --     39.3200                57.9529               228.4299

                     79                     80                     81
                      A                      A                      A
 Frequencies --   1804.9375              1819.9815              2989.3736
 Red. masses --      8.2792                12.3346                 1.0817
 Frc consts  --     15.8915                24.0719                 5.6951
 IR Inten    --    443.0248                65.9429                17.8407

                     82                     83                     84
                      A                      A                      A
 Frequencies --   3023.8186              3052.6247              3063.5467
 Red. masses --      1.0712                 1.0410                 1.0618
 Frc consts  --      5.7705                 5.7154                 5.8716
 IR Inten    --     23.3437                36.3116                 6.3696

                     85                     86                     87
                      A                      A                      A
 Frequencies --   3067.0580              3106.0065              3120.3683
 Red. masses --      1.0668                 1.0992                 1.1014
 Frc consts  --      5.9128                 6.2481                 6.3187
 IR Inten    --     44.3885                16.2323                33.3399

                     88                     89                     90
                      A                      A                      A
 Frequencies --   3132.0910              3139.3640              3159.5496
 Red. masses --      1.0980                 1.0928                 1.1001
 Frc consts  --      6.3462                 6.3454                 6.4702
 IR Inten    --     16.4934                10.4981                12.2749

                     91                     92                     93
                      A                      A                      A
 Frequencies --   3173.9177              3195.0667              3216.6655
 Red. masses --      1.0894                 1.0904                 1.0928
 Frc consts  --      6.4660                 6.5586                 6.6619
 IR Inten    --     25.6334                 8.2258                10.9894

                     94                     95                     96
                      A                      A                      A
 Frequencies --   3549.3666              3562.2621              3655.8968
 Red. masses --      1.0472                 1.0767                 1.0992
 Frc consts  --      7.7731                 8.0498                 8.6558
 IR Inten    --     28.8053                29.0455                22.5433

 - Thermochemistry -
 -------------------
 Temperature   298.150 Kelvin.  Pressure   1.00000 Atm.
 Atom     1 has atomic number  6 and mass  12.00000

 Molecular mass:   248.12733 amu.
 Principal axes and moments of inertia in atomic units:
                           1         2         3
     Eigenvalues --  2544.353255001.542855659.58469
           X            0.99977   0.02013  -0.00736
           Y           -0.01993   0.99944   0.02695
           Z            0.00790  -0.02680   0.99961
 This molecule is an asymmetric top.
 Rotational symmetry number  1.
 Warning -- assumption of classical behavior for rotation
           may cause significant error
 Rotational temperatures (Kelvin)      0.03404     0.01732     0.01530
 Rotational constants (GHZ):           0.70931     0.36084     0.31888
 Zero-point vibrational energy     743108.7 (Joules/Mol)
                                  177.60724 (Kcal/Mol)
 Warning -- explicit consideration of  26 degrees of freedom as
           vibrations may cause significant error
 Vibrational temperatures:     58.28    73.36   104.50   117.62   171.40
          (Kelvin)            198.94   225.76   256.06   304.05   329.53
                              370.13   391.90   430.82   515.31   540.92
                              572.59   578.85   634.79   641.76   677.60
                              690.57   712.78   778.87   789.77   834.28
                              842.74   917.79   929.26  1010.45  1020.15
                             1063.71  1109.89  1116.31  1148.52  1192.22
                             1242.90  1264.30  1280.07  1316.17  1369.54
                             1394.65  1399.06  1433.70  1452.90  1470.52
                             1544.09  1579.48  1598.32  1625.73  1677.38
                             1681.80  1698.60  1732.75  1791.16  1840.66
                             1874.75  1913.15  1930.71  1936.33  1953.03
                             1970.99  1977.84  1988.41  1991.16  2004.93
                             2031.53  2054.00  2069.18  2133.28  2140.85
                             2168.68  2186.73  2198.09  2218.31  2225.69
                             2335.44  2389.81  2421.86  2596.90  2618.55
                             4301.04  4350.60  4392.05  4407.76  4412.81
                             4468.85  4489.51  4506.38  4516.84  4545.89
                             4566.56  4596.99  4628.06  5106.75  5125.30
                             5260.02

 Zero-point correction=                           0.283035 (Hartree/Particle)
 Thermal correction to Energy=                    0.299126
 Thermal correction to Enthalpy=                  0.300070
 Thermal correction to Gibbs Free Energy=         0.239758
 Sum of electronic and zero-point Energies=           -836.179964
 Sum of electronic and thermal Energies=              -836.163873
 Sum of electronic and thermal Enthalpies=            -836.162929
 Sum of electronic and thermal Free Energies=         -836.223241

                     E (Thermal)             CV                S
                      KCal/Mol        Cal/Mol-Kelvin    Cal/Mol-Kelvin
 Total                  187.704             63.180            126.938
 Electronic               0.000              0.000              0.000
 Translational            0.889              2.981             42.427
 Rotational               0.889              2.981             32.643
 Vibrational            185.927             57.219             51.868
 Vibration     1          0.594              1.981              5.234
 Vibration     2          0.595              1.977              4.779
 Vibration     3          0.599              1.967              4.081
 Vibration     4          0.600              1.962              3.848
 Vibration     5          0.609              1.933              3.114
 Vibration     6          0.614              1.915              2.828
 Vibration     7          0.621              1.895              2.587
 Vibration     8          0.628              1.869              2.350
 Vibration     9          0.643              1.824              2.032
 Vibration    10          0.652              1.797              1.887
 Vibration    11          0.667              1.751              1.680
 Vibration    12          0.675              1.724              1.581
 Vibration    13          0.692              1.675              1.420
 Vibration    14          0.733              1.558              1.130
 Vibration    15          0.747              1.521              1.055
 Vibration    16          0.764              1.474              0.970
 Vibration    17          0.768              1.465              0.954
 Vibration    18          0.801              1.380              0.823
 Vibration    19          0.805              1.370              0.808
 Vibration    20          0.828              1.314              0.735
 Vibration    21          0.836              1.294              0.710
 Vibration    22          0.851              1.260              0.670
 Vibration    23          0.896              1.159              0.562
 Vibration    24          0.904              1.142              0.546
 Vibration    25          0.936              1.075              0.486
 Vibration    26          0.943              1.062              0.475

 Optimization completed.
    -- Stationary point found.
 Normal termination of Gaussian 16 at Fri Dec 11 21:28:53 2020.

 ----------------------------------------------------------------------
 # B3LYP/6-311++G(d,p) empiricaldispersion=gd3bj scf=xqc pop=npa geom=c
 heck
 ----------------------------------------------------------------------

 --------------------------------------
 CID_66067233_JID_8578_Energie_neutraal
 --------------------------------------
 Structure from the checkpoint file:  "JID_8578.chk"
 Charge =  0 Multiplicity = 1

 SCF Done:  E(RB3LYP) =  -836.703199703     A.U. after   17 cycles
 Normal termination of Gaussian 16 at Fri Dec 11 21:35:28 2020.

 ----------------------------------------------------------------------
 # B3LYP/6-311++G(d,p) empiricaldispersion=gd3bj scf=xqc pop=npa geom=c
 heck
 ----------------------------------------------------------------------

 ------------------------------------
 CID_66067233_JID_8578_Energie_kation
 ------------------------------------
 Structure from the checkpoint file:  "JID_8578.chk"
 Charge =  1 Multiplicity = 2

 SCF Done:  E(UB3LYP) =  -836.408675338     A.U. after   31 cycles
 Normal termination of Gaussian 16 at Fri Dec 11 21:51:32 2020.
 Gaussian 16:  ES64L-G16RevA.03 25-Dec-2016

 ----------------------------------------------------------------------
 # B3LYP/6-311++G(d,p) empiricaldispersion=gd3bj scf=xqc pop=npa geom=c
 heck
 ----------------------------------------------------------------------

 -----------------------------------
 CID_66067233_JID_8578_Energie_anion
 -----------------------------------
 Structure from the checkpoint file:  "JID_8578.chk"
 Charge = -1 Multiplicity = 2

                         Standard orientation:
 ---------------------------------------------------------------------
 Center     Atomic      Atomic             Coordinates (Angstroms)
 Number     Number       Type             X           Y           Z
 ---------------------------------------------------------------------
      1          6           0       -4.275837   -0.797741   -0.313741
      2          6           0       -3.026473   -0.679570    0.564109
      3          6           0       -2.085697    0.444578    0.117271
      4          6           0       -1.295377    0.080313   -1.151351
      5          8           0       -1.587453   -0.809592   -1.925580
      6          7           0       -0.199418    0.909185   -1.406398
      7          6           0        0.339286    1.873687   -0.562502
      8          8           0        1.342769    2.495257   -0.860747
      9          6           0       -0.468278    2.106016    0.716674
     10          7           0       -1.225848    0.958877    1.191586
     11          6           0       -0.432776   -0.025006    1.955995
     12          6           0        0.697200   -0.683525    1.188364
     13          6           0        1.901206   -0.011772    1.019146
     14          6           0        2.844744   -0.512844    0.102980
     15          7           0        2.677773   -1.678511   -0.541076
     16          6           0        1.550340   -2.358239   -0.300366
     17          6           0        0.525490   -1.907067    0.525599
     18          7           0        4.006759    0.189448   -0.159894
     19          1           0       -4.849485    0.137229   -0.308494
     20          1           0       -4.931362   -1.592292    0.057981
     21          1           0       -4.002740   -1.032044   -1.344824
     22          1           0       -3.318042   -0.462191    1.598035
     23          1           0       -2.493293   -1.635259    0.564849
     24          1           0       -2.714067    1.301319   -0.177682
     25          1           0        0.346196    0.676529   -2.231690
     26          1           0       -1.170672    2.926288    0.504223
     27          1           0        0.219581    2.461989    1.486320
     28          1           0       -0.029344    0.513664    2.820831
     29          1           0       -1.124042   -0.778611    2.339779
     30          1           0        2.099625    0.922181    1.536102
     31          1           0        1.453234   -3.307974   -0.823182
     32          1           0       -0.385908   -2.484766    0.634856
     33          1           0        4.493110   -0.154955   -0.979186
     34          1           0        3.906846    1.197610   -0.149895
 ---------------------------------------------------------------------

 SCF Done:  E(UB3LYP) =  -836.702152018     A.U. after   33 cycles
 SCF Done:  E(UB3LYP) =  -836.702152018     a.u. after    1 cycles

 The electronic state is 2-A.
 Alpha  occ. eigenvalues --  -18.97698 -18.97126 -14.23160 -14.20585 -14.20507
 Alpha  occ. eigenvalues --  -14.17326 -10.15367 -10.14296 -10.11968 -10.10145
 Alpha  occ. eigenvalues --  -10.09689 -10.08983 -10.07189 -10.06547 -10.06019
 Alpha  occ. eigenvalues --  -10.05651 -10.04545 -10.04311  -0.93684  -0.91880
 Alpha  occ. eigenvalues --   -0.84231  -0.83410  -0.79470  -0.77073  -0.69443
 Alpha  occ. eigenvalues --   -0.68016  -0.62235  -0.61725  -0.60615  -0.53903
 Alpha  occ. eigenvalues --   -0.52453  -0.50888  -0.49765  -0.47997  -0.44456
 Alpha  occ. eigenvalues --   -0.41307  -0.40232  -0.39492  -0.38525  -0.36587
 Alpha  occ. eigenvalues --   -0.36333  -0.34044  -0.33312  -0.32860  -0.32536
 Alpha  occ. eigenvalues --   -0.31796  -0.30904  -0.30843  -0.29352  -0.29194
 Alpha  occ. eigenvalues --   -0.28338  -0.27406  -0.27000  -0.25275  -0.24555
 Alpha  occ. eigenvalues --   -0.24354  -0.23843  -0.23097  -0.19987  -0.18727
 Alpha  occ. eigenvalues --   -0.16460  -0.15608  -0.14216  -0.13837  -0.10414
 Alpha  occ. eigenvalues --   -0.10297   0.04690
 Alpha virt. eigenvalues --    0.07051   0.07955   0.08473   0.08815   0.09134
 Alpha virt. eigenvalues --    0.09780   0.10132   0.10841   0.11462   0.11652
 Alpha virt. eigenvalues --    0.11824   0.12394   0.13116   0.13423   0.13640

  Beta  occ. eigenvalues --  -18.97490 -18.96907 -14.23239 -14.20585 -14.20473
  Beta  occ. eigenvalues --  -14.17198 -10.15185 -10.14022 -10.11992 -10.10166
  Beta  occ. eigenvalues --  -10.09696 -10.08980 -10.07028 -10.06532 -10.05882
  Beta  occ. eigenvalues --  -10.05638 -10.04594 -10.04222  -0.93331  -0.91464
  Beta  occ. eigenvalues --   -0.84101  -0.83299  -0.79407  -0.76949  -0.69255
  Beta  occ. eigenvalues --   -0.67919  -0.62081  -0.61573  -0.60493  -0.53719
  Beta  occ. eigenvalues --   -0.52126  -0.50738  -0.49615  -0.47855  -0.44341
  Beta  occ. eigenvalues --   -0.41221  -0.40114  -0.39368  -0.38354  -0.36491
  Beta  occ. eigenvalues --   -0.36207  -0.33957  -0.33029  -0.32589  -0.32221
  Beta  occ. eigenvalues --   -0.31681  -0.30677  -0.30639  -0.29059  -0.28880
  Beta  occ. eigenvalues --   -0.28108  -0.27237  -0.26819  -0.24962  -0.24470
  Beta  occ. eigenvalues --   -0.24208  -0.23345  -0.22935  -0.19659  -0.18562
  Beta  occ. eigenvalues --   -0.15779  -0.14908  -0.14034  -0.13670  -0.10248
  Beta  occ. eigenvalues --   -0.09951
  Beta virt. eigenvalues --    0.07067   0.08193   0.08567   0.08898   0.09355
  Beta virt. eigenvalues --    0.09830   0.10229   0.10604   0.10973   0.11475
  Beta virt. eigenvalues --    0.11786   0.11964   0.12440   0.13216   0.13566

 Mulliken charges and spin densities:
               1          2
     1  C   -0.039889  -0.691259
     2  C    0.084610  -0.129726
     3  C   -0.388006   0.107383
     4  C   -0.156927   0.105523
     5  O   -0.319398   0.086162
     6  N   -0.014316  -0.060687
     7  C   -0.035568   0.090369
     8  O   -0.331395   0.070047
     9  C   -0.012603  -0.179414
    10  N    0.376389  -0.019856
    11  C   -0.615957  -0.399201
    12  C    0.299525   0.450121
    13  C    0.835954  -0.441802
    14  C   -0.374064  -0.202016
    15  N   -0.153505   0.053988
    16  C   -0.312320   0.054655
    17  C   -0.598549   0.245481
    18  N   -0.264434   0.007305
    19  H   -0.037013   0.158150
    20  H    0.021495   0.099161
    21  H    0.122873   0.064566
    22  H   -0.085368   0.233309
    23  H    0.215178  -0.055027
    24  H    0.015653   0.157523
    25  H    0.288589   0.014738
    26  H    0.096952   0.057878
    27  H    0.045593   0.199620
    28  H   -0.392780   0.566620
    29  H    0.047577   0.119540
    30  H    0.017147   0.149848
    31  H    0.148349  -0.010122
    32  H    0.052355   0.066290
    33  H    0.238227   0.011604
    34  H    0.225628   0.019230
 Sum of Mulliken charges =  -1.00000   1.00000

 Dipole moment (field-independent basis, Debye):
    X=             -0.8914    Y=              0.5234    Z=             -0.3020  Tot=              1.0769
 Quadrupole moment (field-independent basis, Debye-Ang):
   XX=           -152.7025   YY=           -134.3563   ZZ=           -136.4279
   XY=              2.3361   XZ=             -3.8329   YZ=             -4.5096

 Summary of Natural Population Analysis:

                                       Natural Population
                Natural  -----------------------------------------------
    Atom  No    Charge         Core      Valence    Rydberg      Total
 -----------------------------------------------------------------------
      C    1   -0.28395      0.99966     2.28023    0.00405     3.28395
      C    2   -0.19543      0.99962     2.18582    0.00999     3.19543
      C    3   -0.04451      0.99953     2.03168    0.01330     3.04451
      C    4    0.37862      0.99966     1.59686    0.02486     2.62138
      O    5   -0.29160      0.99987     3.28627    0.00546     4.29160
      N    6   -0.33848      0.99963     2.83006    0.00879     3.83848
      C    7    0.36466      0.99969     1.61175    0.02390     2.63534
      O    8   -0.30080      0.99987     3.29487    0.00605     4.30080
      C    9   -0.13046      0.99957     2.11928    0.01162     3.13046
      N   10   -0.26915      0.99973     2.75410    0.01532     3.76915
      C   11   -0.09257      0.99956     2.07943    0.01358     3.09257
      C   12    0.01042      0.99949     1.98034    0.00975     2.98958
      C   13   -0.13202      0.99945     2.12239    0.01018     3.13202
      C   14    0.19111      0.99954     1.79102    0.01832     2.80889
      N   15   -0.25372      0.99967     2.74278    0.01127     3.75372
      C   16    0.06378      0.99960     1.92316    0.01346     2.93622
      C   17   -0.15132      0.99950     2.14192    0.00990     3.15132
      N   18   -0.40001      0.99970     2.89179    0.00851     3.90001
      H   19    0.09182      0.00000     0.40714    0.00104     0.40818
      H   20    0.09378      0.00000     0.40550    0.00073     0.40622
      H   21    0.11071      0.00000     0.38830    0.00100     0.38929
      H   22    0.09900      0.00000     0.39958    0.00142     0.40100
      H   23    0.10112      0.00000     0.39753    0.00135     0.39888
      H   24    0.10501      0.00000     0.39340    0.00160     0.39499
      H   25    0.19955      0.00000     0.29771    0.00274     0.30045
      H   26    0.10476      0.00000     0.39414    0.00110     0.39524
      H   27    0.10970      0.00000     0.38908    0.00122     0.39030
      H   28    0.10038      0.00000     0.39821    0.00141     0.39962
      H   29    0.09971      0.00000     0.39899    0.00130     0.40029
      H   30    0.10135      0.00000     0.39712    0.00153     0.39865
      H   31    0.08248      0.00000     0.41633    0.00119     0.41752
      H   32    0.09967      0.00000     0.39867    0.00166     0.40033
      H   33    0.18637      0.00000     0.31168    0.00195     0.31363
      H   34    0.19002      0.00000     0.30841    0.00157     0.30998
 =======================================================================
   * Total *    0.00000     17.99335    47.76553    0.24112    66.00000

 Normal termination of Gaussian 16 at Fri Dec 11 22:08:42 2020.
