 Gaussian 16, Revision A.03,

 -----------------------------------------------------------
 # opt freq B3LYP/6-31G(d) empiricaldispersion=gd3bj scf=xqc
 -----------------------------------------------------------

 ------------------------------
 CID_61434069_JID_8227_neutraal
 ------------------------------
 Symbolic Z-matrix:
 Charge =  0 Multiplicity = 1

 SCF Done:  E(RB3LYP) =  -1090.12481035     A.U. after   15 cycles
 SCF Done:  E(RB3LYP) =  -1090.13198802     A.U. after   13 cycles
 SCF Done:  E(RB3LYP) =  -1090.13307791     A.U. after   12 cycles
 SCF Done:  E(RB3LYP) =  -1090.13335743     A.U. after   11 cycles
 SCF Done:  E(RB3LYP) =  -1090.13350826     A.U. after   11 cycles
 SCF Done:  E(RB3LYP) =  -1090.13367414     A.U. after   11 cycles
 SCF Done:  E(RB3LYP) =  -1090.13378870     A.U. after   11 cycles
 SCF Done:  E(RB3LYP) =  -1090.13385929     A.U. after   11 cycles
 SCF Done:  E(RB3LYP) =  -1090.13390896     A.U. after   10 cycles
 SCF Done:  E(RB3LYP) =  -1090.13393033     A.U. after   10 cycles
 SCF Done:  E(RB3LYP) =  -1090.13394211     A.U. after   10 cycles
 SCF Done:  E(RB3LYP) =  -1090.13394523     A.U. after    9 cycles
 SCF Done:  E(RB3LYP) =  -1090.13394600     A.U. after    8 cycles
 SCF Done:  E(RB3LYP) =  -1090.13394619     A.U. after    7 cycles
 Optimization completed.
    -- Stationary point found.
 Normal termination of Gaussian 16 at Fri Dec 11 19:35:51 2020.

 --------------------------------------------------------------------
 #N Geom=AllCheck Guess=TCheck SCRF=Check GenChk RB3LYP/6-31G(d) Freq
 --------------------------------------------------------------------

 Structure from the checkpoint file:  "JID_8227.chk"
 ------------------------------
 CID_61434069_JID_8227_neutraal
 ------------------------------
 Charge =  0 Multiplicity = 1

 SCF Done:  E(RB3LYP) =  -1090.13394619     A.U. after    1 cycles

  Exact polarizability: 204.752 -12.742 199.881  17.185  19.857 128.509
 Approx polarizability: 294.812 -17.401 298.259  42.999  48.789 226.717

                      1                      2                      3
                      A                      A                      A
 Frequencies --     17.4368                35.1512                41.2637
 Red. masses --      4.6717                 3.8786                 4.8251
 Frc consts  --      0.0008                 0.0028                 0.0048
 IR Inten    --      0.3063                 0.7287                 0.2179

                      4                      5                      6
                      A                      A                      A
 Frequencies --     50.3272                71.1077                78.3809
 Red. masses --      3.9550                 3.2767                 4.1090
 Frc consts  --      0.0059                 0.0098                 0.0149
 IR Inten    --      0.5719                 1.8760                 0.1763

                      7                      8                      9
                      A                      A                      A
 Frequencies --    105.2252               136.8755               162.0303
 Red. masses --      3.1375                 3.9822                 2.5581
 Frc consts  --      0.0205                 0.0440                 0.0396
 IR Inten    --      1.2521                 1.3690                 1.9570

                     10                     11                     12
                      A                      A                      A
 Frequencies --    187.8649               237.5057               264.7356
 Red. masses --      3.4142                 3.7189                 2.4060
 Frc consts  --      0.0710                 0.1236                 0.0994
 IR Inten    --      2.1760                 0.1346                26.7584

                     13                     14                     15
                      A                      A                      A
 Frequencies --    283.3930               318.6118               342.5729
 Red. masses --      2.0915                 2.3675                 3.7522
 Frc consts  --      0.0990                 0.1416                 0.2594
 IR Inten    --     29.7854                 1.7528                 2.7657

                     16                     17                     18
                      A                      A                      A
 Frequencies --    354.7050               422.0268               426.9677
 Red. masses --      2.5677                 3.6945                 3.2885
 Frc consts  --      0.1903                 0.3877                 0.3532
 IR Inten    --     10.2436                 3.1250                 1.3797

                     19                     20                     21
                      A                      A                      A
 Frequencies --    445.1159               460.2163               478.2869
 Red. masses --      3.4758                 4.4991                 3.5856
 Frc consts  --      0.4057                 0.5614                 0.4833
 IR Inten    --      9.2385                 2.1565                 4.9068

                     22                     23                     24
                      A                      A                      A
 Frequencies --    557.4678               582.1323               594.4166
 Red. masses --      3.8966                 2.9848                 4.4241
 Frc consts  --      0.7135                 0.5959                 0.9210
 IR Inten    --      6.6052                13.9174                 2.5700

                     25                     26                     27
                      A                      A                      A
 Frequencies --    644.6277               656.2520               682.4465
 Red. masses --      3.6871                 6.6233                 1.2741
 Frc consts  --      0.9027                 1.6806                 0.3496
 IR Inten    --      3.6622                 0.6066                 4.9939

                     28                     29                     30
                      A                      A                      A
 Frequencies --    701.6582               714.8257               741.8947
 Red. masses --      3.7805                 2.6444                 3.3022
 Frc consts  --      1.0966                 0.7961                 1.0709
 IR Inten    --      2.8738                23.4223                 9.6776

                     31                     32                     33
                      A                      A                      A
 Frequencies --    786.7424               794.4503               828.2334
 Red. masses --      1.2973                 1.3377                 3.3895
 Frc consts  --      0.4731                 0.4974                 1.3699
 IR Inten    --     25.1452                36.2535                 9.2533

                     34                     35                     36
                      A                      A                      A
 Frequencies --    835.7728               837.3860               851.6667
 Red. masses --      1.4247                 4.7102                 1.3609
 Frc consts  --      0.5863                 1.9460                 0.5816
 IR Inten    --     22.7801                12.6994                 8.1348

                     37                     38                     39
                      A                      A                      A
 Frequencies --    863.2548               865.8477               882.5033
 Red. masses --      1.2896                 3.8516                 1.4182
 Frc consts  --      0.5662                 1.7013                 0.6507
 IR Inten    --     25.3851                26.3242                68.2968

                     40                     41                     42
                      A                      A                      A
 Frequencies --    889.8906               898.4192               946.7013
 Red. masses --      1.5718                 2.1608                 1.3168
 Frc consts  --      0.7334                 1.0276                 0.6953
 IR Inten    --      3.4316                12.3855                 1.9539

                     43                     44                     45
                      A                      A                      A
 Frequencies --    957.5248               976.4279               986.8902
 Red. masses --      3.3155                 2.4968                 1.3204
 Frc consts  --      1.7910                 1.4025                 0.7577
 IR Inten    --      3.5044                10.9620                 1.5800

                     46                     47                     48
                      A                      A                      A
 Frequencies --    996.8105              1014.3884              1037.3415
 Red. masses --      2.3446                 1.7839                 3.0034
 Frc consts  --      1.3726                 1.0815                 1.9042
 IR Inten    --      0.0600                20.9105                 4.6512

                     49                     50                     51
                      A                      A                      A
 Frequencies --   1050.7713              1063.6776              1070.0262
 Red. masses --      2.0086                 1.3975                 2.4763
 Frc consts  --      1.3067                 0.9316                 1.6705
 IR Inten    --      3.2788                11.2616                 1.8131

                     52                     53                     54
                      A                      A                      A
 Frequencies --   1083.1783              1091.6614              1119.6593
 Red. masses --      1.4853                 2.9603                 1.1102
 Frc consts  --      1.0268                 2.0785                 0.8200
 IR Inten    --      4.0064                28.7670                 3.0495

                     55                     56                     57
                      A                      A                      A
 Frequencies --   1143.8778              1154.1513              1185.3746
 Red. masses --      1.2652                 1.2154                 1.2776
 Frc consts  --      0.9754                 0.9539                 1.0577
 IR Inten    --      2.9673                 0.7902                10.5462

                     58                     59                     60
                      A                      A                      A
 Frequencies --   1194.2314              1205.1283              1208.2384
 Red. masses --      1.6739                 1.6119                 1.4324
 Frc consts  --      1.4065                 1.3793                 1.2320
 IR Inten    --      1.4886                23.3229                 7.1033

                     61                     62                     63
                      A                      A                      A
 Frequencies --   1214.2272              1241.5827              1244.2555
 Red. masses --      1.2873                 2.0299                 1.5914
 Frc consts  --      1.1182                 1.8436                 1.4516
 IR Inten    --      7.6026                13.8713                 3.1375

                     64                     65                     66
                      A                      A                      A
 Frequencies --   1249.8523              1279.0623              1306.6603
 Red. masses --      2.3854                 1.8046                 1.4766
 Frc consts  --      2.1955                 1.7395                 1.4854
 IR Inten    --     13.4020                50.3144                 4.0056

                     67                     68                     69
                      A                      A                      A
 Frequencies --   1312.4585              1343.6437              1367.1810
 Red. masses --      1.4508                 1.9178                 1.9952
 Frc consts  --      1.4724                 2.0400                 2.1973
 IR Inten    --     37.4614                 3.7975                 3.8514

                     70                     71                     72
                      A                      A                      A
 Frequencies --   1409.4008              1426.5055              1440.1594
 Red. masses --      1.7063                 1.6497                 1.6307
 Frc consts  --      1.9970                 1.9779                 1.9928
 IR Inten    --     61.0035                10.1348                47.5671

                     73                     74                     75
                      A                      A                      A
 Frequencies --   1448.2998              1467.9618              1476.3565
 Red. masses --      2.2283                 2.4556                 6.1466
 Frc consts  --      2.7538                 3.1178                 7.8935
 IR Inten    --      6.3102                 3.8017                18.3057

                     76                     77                     78
                      A                      A                      A
 Frequencies --   1482.1395              1528.2895              1530.7422
 Red. masses --      1.0938                 1.3890                 1.1468
 Frc consts  --      1.4157                 1.9115                 1.5832
 IR Inten    --      1.7607                14.5290                 3.2157

                     79                     80                     81
                      A                      A                      A
 Frequencies --   1536.7642              1564.9627              1603.0147
 Red. masses --      1.0963                 2.3933                 5.8083
 Frc consts  --      1.5254                 3.4535                 8.7937
 IR Inten    --      1.7936                54.4359                 0.5377

                     82                     83                     84
                      A                      A                      A
 Frequencies --   1629.2919              1673.3278              1691.4213
 Red. masses --      6.2774                 4.6252                 1.1491
 Frc consts  --      9.8181                 7.6303                 1.9369
 IR Inten    --      5.4122                22.8166                24.8889

                     85                     86                     87
                      A                      A                      A
 Frequencies --   2958.1561              2959.9730              3035.8678
 Red. masses --      1.0732                 1.0732                 1.0877
 Frc consts  --      5.5332                 5.5401                 5.9063
 IR Inten    --     78.3865                66.5721                38.9317

                     88                     89                     90
                      A                      A                      A
 Frequencies --   3051.9708              3092.0894              3150.4920
 Red. masses --      1.0860                 1.0885                 1.0525
 Frc consts  --      5.9597                 6.1315                 6.1552
 IR Inten    --     50.0444                24.8075                19.2963

                     91                     92                     93
                      A                      A                      A
 Frequencies --   3159.2898              3169.8513              3210.6503
 Red. masses --      1.0572                 1.0886                 1.0886
 Frc consts  --      6.2172                 6.4445                 6.6114
 IR Inten    --     10.2292                24.0637                 7.5085

                     94                     95                     96
                      A                      A                      A
 Frequencies --   3212.6818              3223.5981              3230.4095
 Red. masses --      1.0910                 1.0911                 1.0935
 Frc consts  --      6.6344                 6.6804                 6.7234
 IR Inten    --     11.1153                 3.2239                 7.4181

                     97                     98                     99
                      A                      A                      A
 Frequencies --   3232.1163              3246.4839              3265.0058
 Red. masses --      1.1197                 1.1167                 1.0936
 Frc consts  --      6.8917                 6.9345                 6.8686
 IR Inten    --      3.2650                19.9899                 0.5477

                    100                    101                    102
                      A                      A                      A
 Frequencies --   3274.4041              3464.4054              3553.6023
 Red. masses --      1.0971                 1.0494                 1.0930
 Frc consts  --      6.9305                 7.4211                 8.1321
 IR Inten    --      0.9670                 4.3615                 1.6051

 - Thermochemistry -
 -------------------
 Temperature   298.150 Kelvin.  Pressure   1.00000 Atm.
 Atom     1 has atomic number  6 and mass  12.00000

 Molecular mass:   258.11907 amu.
 Principal axes and moments of inertia in atomic units:
                           1         2         3
     Eigenvalues --  4535.645885789.111379482.34619
           X            0.99319  -0.11650   0.00047
           Y            0.11650   0.99318  -0.00378
           Z           -0.00003   0.00380   0.99999
 This molecule is an asymmetric top.
 Rotational symmetry number  1.
 Warning -- assumption of classical behavior for rotation
           may cause significant error
 Rotational temperatures (Kelvin)      0.01910     0.01496     0.00913
 Rotational constants (GHZ):           0.39790     0.31175     0.19033
 Zero-point vibrational energy     792970.8 (Joules/Mol)
                                  189.52456 (Kcal/Mol)
 Warning -- explicit consideration of  24 degrees of freedom as
           vibrations may cause significant error
 Vibrational temperatures:     25.09    50.57    59.37    72.41   102.31
          (Kelvin)            112.77   151.40   196.93   233.13   270.30
                              341.72   380.90   407.74   458.41   492.89
                              510.34   607.20   614.31   640.42   662.15
                              688.15   802.07   837.56   855.23   927.48
                              944.20   981.89  1009.53  1028.47  1067.42
                             1131.95  1143.04  1191.64  1202.49  1204.81
                             1225.36  1242.03  1245.76  1269.73  1280.35
                             1292.62  1362.09  1377.66  1404.86  1419.91
                             1434.19  1459.48  1492.50  1511.83  1530.39
                             1539.53  1558.45  1570.66  1610.94  1645.78
                             1660.57  1705.49  1718.23  1733.91  1738.39
                             1747.00  1786.36  1790.21  1798.26  1840.29
                             1879.99  1888.34  1933.20  1967.07  2027.81
                             2052.42  2072.07  2083.78  2112.07  2124.15
                             2132.47  2198.87  2202.40  2211.06  2251.63
                             2306.38  2344.19  2407.55  2433.58  4256.13
                             4258.74  4367.94  4391.11  4448.83  4532.86
                             4545.51  4560.71  4619.41  4622.33  4638.04
                             4647.84  4650.29  4670.97  4697.62  4711.14
                             4984.51  5112.84

 Zero-point correction=                           0.302027 (Hartree/Particle)
 Thermal correction to Energy=                    0.319022
 Thermal correction to Enthalpy=                  0.319966
 Thermal correction to Gibbs Free Energy=         0.254568
 Sum of electronic and zero-point Energies=          -1089.831920
 Sum of electronic and thermal Energies=             -1089.814924
 Sum of electronic and thermal Enthalpies=           -1089.813980
 Sum of electronic and thermal Free Energies=        -1089.879378

                     E (Thermal)             CV                S
                      KCal/Mol        Cal/Mol-Kelvin    Cal/Mol-Kelvin
 Total                  200.189             65.275            137.642
 Electronic               0.000              0.000              0.000
 Translational            0.889              2.981             42.545
 Rotational               0.889              2.981             33.876
 Vibrational            198.412             59.314             61.222
 Vibration     1          0.593              1.986              6.907
 Vibration     2          0.594              1.982              5.515
 Vibration     3          0.594              1.981              5.197
 Vibration     4          0.595              1.977              4.804
 Vibration     5          0.598              1.968              4.122
 Vibration     6          0.600              1.964              3.931
 Vibration     7          0.605              1.945              3.355
 Vibration     8          0.614              1.917              2.847
 Vibration     9          0.622              1.889              2.526
 Vibration    10          0.633              1.857              2.249
 Vibration    11          0.656              1.783              1.821
 Vibration    12          0.671              1.738              1.630
 Vibration    13          0.682              1.704              1.513
 Vibration    14          0.705              1.638              1.317
 Vibration    15          0.722              1.590              1.200
 Vibration    16          0.731              1.566              1.145
 Vibration    17          0.784              1.422              0.885
 Vibration    18          0.789              1.412              0.869
 Vibration    19          0.804              1.372              0.811
 Vibration    20          0.818              1.338              0.765
 Vibration    21          0.835              1.298              0.715
 Vibration    22          0.913              1.123              0.529
 Vibration    23          0.939              1.070              0.481
 Vibration    24          0.952              1.044              0.459

 Optimization completed.
    -- Stationary point found.
 Normal termination of Gaussian 16 at Fri Dec 11 19:51:59 2020.

 ----------------------------------------------------------------------
 # B3LYP/6-311++G(d,p) empiricaldispersion=gd3bj scf=xqc pop=npa geom=c
 heck
 ----------------------------------------------------------------------

 --------------------------------------
 CID_61434069_JID_8227_Energie_neutraal
 --------------------------------------
 Structure from the checkpoint file:  "JID_8227.chk"
 Charge =  0 Multiplicity = 1

 SCF Done:  E(RB3LYP) =  -1090.34950636     A.U. after   16 cycles
 Normal termination of Gaussian 16 at Fri Dec 11 19:58:46 2020.

 ----------------------------------------------------------------------
 # B3LYP/6-311++G(d,p) empiricaldispersion=gd3bj scf=xqc pop=npa geom=c
 heck
 ----------------------------------------------------------------------

 ------------------------------------
 CID_61434069_JID_8227_Energie_kation
 ------------------------------------
 Structure from the checkpoint file:  "JID_8227.chk"
 Charge =  1 Multiplicity = 2

 SCF Done:  E(UB3LYP) =  -1090.08005844     A.U. after   30 cycles
 Normal termination of Gaussian 16 at Fri Dec 11 20:15:52 2020.
 Gaussian 16:  ES64L-G16RevA.03 25-Dec-2016

 ----------------------------------------------------------------------
 # B3LYP/6-311++G(d,p) empiricaldispersion=gd3bj scf=xqc pop=npa geom=c
 heck
 ----------------------------------------------------------------------

 -----------------------------------
 CID_61434069_JID_8227_Energie_anion
 -----------------------------------
 Structure from the checkpoint file:  "JID_8227.chk"
 Charge = -1 Multiplicity = 2

                         Standard orientation:
 ---------------------------------------------------------------------
 Center     Atomic      Atomic             Coordinates (Angstroms)
 Number     Number       Type             X           Y           Z
 ---------------------------------------------------------------------
      1          6           0       -0.633314    3.828235   -0.809528
      2          6           0       -2.098088    3.643283   -0.490460
      3          6           0       -1.046722    2.904251    0.298194
      4          7           0       -0.928638    1.490530    0.060080
      5          6           0       -1.867533    0.739999    0.920947
      6          6           0       -2.010454   -0.714766    0.565563
      7          6           0       -2.815849   -1.180469   -0.440251
      8         16           0       -2.702291   -2.900156   -0.625889
      9          6           0       -1.559701   -3.005705    0.678353
     10          6           0       -1.291864   -1.775763    1.207413
     11          6           0        0.408867    0.982603    0.023708
     12          6           0        0.690171   -0.148419   -0.758697
     13          6           0        1.976488   -0.673173   -0.813423
     14          6           0        3.029316   -0.073660   -0.109498
     15          6           0        2.750509    1.059916    0.656509
     16          6           0        1.459133    1.583491    0.728087
     17          6           0        4.436971   -0.620838   -0.204861
     18          7           0        4.438792   -2.088782   -0.194301
     19          1           0       -0.154374    4.766092   -0.544440
     20          1           0       -0.252602    3.360283   -1.711643
     21          1           0       -2.633421    4.454768   -0.005536
     22          1           0       -2.686796    3.052608   -1.185789
     23          1           0       -0.880371    3.251618    1.323995
     24          1           0       -1.569332    0.823558    1.981515
     25          1           0       -2.835202    1.241385    0.820945
     26          1           0       -3.454889   -0.602525   -1.094297
     27          1           0       -1.155944   -3.965559    0.969252
     28          1           0       -0.591686   -1.609727    2.018540
     29          1           0       -0.111325   -0.603001   -1.329165
     30          1           0        2.181637   -1.556416   -1.409750
     31          1           0        3.552436    1.540848    1.213025
     32          1           0        1.271809    2.463191    1.334578
     33          1           0        4.889724   -0.308599   -1.156661
     34          1           0        5.048770   -0.160473    0.591438
     35          1           0        5.393959   -2.432460   -0.277216
     36          1           0        4.085599   -2.419233    0.702648
 ---------------------------------------------------------------------

 SCF Done:  E(UB3LYP) =  -1090.33703781     A.U. after   33 cycles
 SCF Done:  E(UB3LYP) =  -1090.33703781     a.u. after    1 cycles

 The electronic state is 2-A.
 Alpha  occ. eigenvalues --  -88.78727 -14.22392 -14.19262 -10.11258 -10.11128
 Alpha  occ. eigenvalues --  -10.10688 -10.10377 -10.10348 -10.09557 -10.08989
 Alpha  occ. eigenvalues --  -10.08497 -10.08145 -10.08117 -10.07377 -10.07178
 Alpha  occ. eigenvalues --  -10.07024 -10.06749 -10.06538  -7.87346  -5.83627
 Alpha  occ. eigenvalues --   -5.83263  -5.82969  -0.85310  -0.79193  -0.78691
 Alpha  occ. eigenvalues --   -0.75936  -0.73750  -0.67192  -0.64781  -0.64250
 Alpha  occ. eigenvalues --   -0.63742  -0.57967  -0.55476  -0.51575  -0.51376
 Alpha  occ. eigenvalues --   -0.49599  -0.48204  -0.46517  -0.45337  -0.43105
 Alpha  occ. eigenvalues --   -0.41612  -0.40005  -0.39269  -0.37838  -0.36533
 Alpha  occ. eigenvalues --   -0.35476  -0.34754  -0.32941  -0.32563  -0.32120
 Alpha  occ. eigenvalues --   -0.31800  -0.31144  -0.29968  -0.29522  -0.28721
 Alpha  occ. eigenvalues --   -0.27864  -0.27451  -0.25981  -0.25481  -0.24663
 Alpha  occ. eigenvalues --   -0.24120  -0.21642  -0.20607  -0.17029  -0.16506
 Alpha  occ. eigenvalues --   -0.15183  -0.14918  -0.14424  -0.11574   0.04150
 Alpha virt. eigenvalues --    0.05592   0.05981   0.06863   0.07245   0.07753
 Alpha virt. eigenvalues --    0.07887   0.08502   0.08757   0.08959   0.09262
 Alpha virt. eigenvalues --    0.09920   0.10222   0.10292   0.11081   0.11226

  Beta  occ. eigenvalues --  -88.78716 -14.22394 -14.19216 -10.11250 -10.11115
  Beta  occ. eigenvalues --  -10.10632 -10.10336 -10.10311 -10.09535 -10.08973
  Beta  occ. eigenvalues --  -10.08492 -10.08133 -10.08101 -10.07363 -10.07173
  Beta  occ. eigenvalues --  -10.07005 -10.06752 -10.06515  -7.87336  -5.83622
  Beta  occ. eigenvalues --   -5.83258  -5.82931  -0.85292  -0.79123  -0.78612
  Beta  occ. eigenvalues --   -0.75903  -0.73715  -0.67135  -0.64743  -0.64195
  Beta  occ. eigenvalues --   -0.63648  -0.57903  -0.55415  -0.51538  -0.51335
  Beta  occ. eigenvalues --   -0.49565  -0.48092  -0.46476  -0.45283  -0.43068
  Beta  occ. eigenvalues --   -0.41563  -0.39952  -0.39226  -0.37792  -0.36489
  Beta  occ. eigenvalues --   -0.35430  -0.34716  -0.32910  -0.32526  -0.32072
  Beta  occ. eigenvalues --   -0.31750  -0.31106  -0.29921  -0.29475  -0.28566
  Beta  occ. eigenvalues --   -0.27830  -0.27407  -0.25923  -0.25421  -0.24622
  Beta  occ. eigenvalues --   -0.24095  -0.21620  -0.20582  -0.16931  -0.16385
  Beta  occ. eigenvalues --   -0.15083  -0.14608  -0.14356  -0.11531
  Beta virt. eigenvalues --    0.06232   0.06455   0.06804   0.07118   0.07469
  Beta virt. eigenvalues --    0.07938   0.08248   0.08805   0.08864   0.09326
  Beta virt. eigenvalues --    0.09367   0.10076   0.10264   0.10657   0.11129

 Mulliken charges and spin densities:
               1          2
     1  C    0.226265  -0.572232
     2  C    1.120184  -1.614234
     3  C   -0.860516   1.069753
     4  N    0.415940   0.060228
     5  C    0.667381  -1.370580
     6  C   -0.872544   0.774423
     7  C   -0.154190   0.399835
     8  S   -0.013723  -0.182102
     9  C   -0.499201  -0.089230
    10  C    0.224753   0.130135
    11  C    0.191846  -1.436829
    12  C   -0.039222   0.324460
    13  C   -1.007316   1.114524
    14  C   -1.532680   1.938975
    15  C   -0.847477   0.312845
    16  C    1.241699  -1.387935
    17  C    2.119689  -2.779524
    18  N   -0.446124   0.118625
    19  H   -0.059825   0.216358
    20  H    0.123073   0.023226
    21  H   -0.295977   0.443213
    22  H    0.172258  -0.040784
    23  H   -0.269001   0.481509
    24  H    0.040398   0.084344
    25  H   -0.168670   0.356403
    26  H    0.033457   0.229756
    27  H    0.121064   0.122613
    28  H    0.024152   0.152235
    29  H    0.147760   0.034683
    30  H    0.189730   0.024210
    31  H   -0.053749   0.210251
    32  H   -0.186515   0.321729
    33  H    0.017570   0.135908
    34  H   -0.602195   0.779124
    35  H   -0.197949   0.446239
    36  H    0.029657   0.167846
 Sum of Mulliken charges =  -1.00000   1.00000

 Dipole moment (field-independent basis, Debye):
    X=             -5.9681    Y=             -1.4855    Z=             -1.4726  Tot=              6.3240
 Quadrupole moment (field-independent basis, Debye-Ang):
   XX=           -208.6875   YY=           -177.2036   ZZ=           -141.3237
   XY=             21.2565   XZ=              2.0443   YZ=             -5.3451

 Summary of Natural Population Analysis:

                                       Natural Population
                Natural  -----------------------------------------------
    Atom  No    Charge         Core      Valence    Rydberg      Total
 -----------------------------------------------------------------------
      C    1   -0.19709      0.99961     2.18827    0.00921     3.19709
      C    2   -0.19943      0.99961     2.19032    0.00950     3.19943
      C    3   -0.01867      0.99956     2.00562    0.01349     3.01867
      N    4   -0.27498      0.99966     2.76172    0.01360     3.77498
      C    5   -0.08456      0.99955     2.07440    0.01061     3.08456
      C    6   -0.05001      0.99948     2.03827    0.01226     3.05001
      C    7   -0.17690      0.99945     2.16732    0.01013     3.17690
      S    8    0.19598      4.99946     2.78248    0.02208     7.80402
      C    9   -0.18555      0.99954     2.17555    0.01047     3.18555
      C   10   -0.11948      0.99948     2.10946    0.01053     3.11948
      C   11    0.08347      0.99946     1.90520    0.01188     2.91653
      C   12   -0.10358      0.99952     2.09530    0.00877     3.10358
      C   13   -0.09275      0.99951     2.08366    0.00958     3.09275
      C   14   -0.02577      0.99950     2.01588    0.01038     3.02577
      C   15   -0.09818      0.99952     2.08890    0.00976     3.09818
      C   16   -0.11320      0.99951     2.10503    0.00866     3.11320
      C   17   -0.09320      0.99960     2.08127    0.01233     3.09320
      N   18   -0.42098      0.99978     2.91056    0.01064     3.92098
      H   19    0.10314      0.00000     0.39598    0.00088     0.39686
      H   20    0.10744      0.00000     0.39162    0.00094     0.39256
      H   21    0.10300      0.00000     0.39562    0.00138     0.39700
      H   22    0.10391      0.00000     0.39491    0.00118     0.39609
      H   23    0.09214      0.00000     0.40503    0.00284     0.40786
      H   24    0.08779      0.00000     0.41056    0.00165     0.41221
      H   25    0.10439      0.00000     0.39412    0.00149     0.39561
      H   26    0.11014      0.00000     0.38880    0.00106     0.38986
      H   27    0.10884      0.00000     0.39034    0.00081     0.39116
      H   28    0.11085      0.00000     0.38809    0.00106     0.38915
      H   29    0.10609      0.00000     0.39177    0.00214     0.39391
      H   30    0.10859      0.00000     0.39007    0.00133     0.39141
      H   31    0.09883      0.00000     0.39996    0.00121     0.40117
      H   32    0.10258      0.00000     0.39579    0.00163     0.39742
      H   33    0.09392      0.00000     0.40482    0.00126     0.40608
      H   34    0.08239      0.00000     0.41530    0.00231     0.41761
      H   35    0.17744      0.00000     0.31890    0.00366     0.32256
      H   36    0.17338      0.00000     0.32431    0.00231     0.32662
 =======================================================================
   * Total *    0.00000     21.99178    46.77520    0.23302    69.00000

 Normal termination of Gaussian 16 at Fri Dec 11 20:35:46 2020.
