 Gaussian 16, Revision A.03,

 -----------------------------------------------------------
 # opt freq B3LYP/6-31G(d) empiricaldispersion=gd3bj scf=xqc
 -----------------------------------------------------------

 ------------------------------
 CID_14866896_JID_4058_neutraal
 ------------------------------
 Symbolic Z-matrix:
 Charge =  0 Multiplicity = 1

 SCF Done:  E(RB3LYP) =  -655.737392684     A.U. after   14 cycles
 SCF Done:  E(RB3LYP) =  -655.740260940     A.U. after   13 cycles
 SCF Done:  E(RB3LYP) =  -655.736480493     A.U. after   14 cycles
 SCF Done:  E(RB3LYP) =  -655.741349516     A.U. after   12 cycles
 SCF Done:  E(RB3LYP) =  -655.741193240     A.U. after   12 cycles
 SCF Done:  E(RB3LYP) =  -655.741658907     A.U. after   12 cycles
 SCF Done:  E(RB3LYP) =  -655.741717294     A.U. after   11 cycles
 SCF Done:  E(RB3LYP) =  -655.741815171     A.U. after   12 cycles
 SCF Done:  E(RB3LYP) =  -655.741809947     A.U. after   13 cycles
 SCF Done:  E(RB3LYP) =  -655.741953700     A.U. after   12 cycles
 SCF Done:  E(RB3LYP) =  -655.742766280     A.U. after   11 cycles
 SCF Done:  E(RB3LYP) =  -655.742770283     A.U. after   10 cycles
 SCF Done:  E(RB3LYP) =  -655.742771441     A.U. after    9 cycles
 SCF Done:  E(RB3LYP) =  -655.742771674     A.U. after    8 cycles
 SCF Done:  E(RB3LYP) =  -655.742771763     A.U. after    7 cycles
 Optimization completed.
    -- Stationary point found.
 Normal termination of Gaussian 16 at Thu Dec 10 09:24:28 2020.

 --------------------------------------------------------------------
 #N Geom=AllCheck Guess=TCheck SCRF=Check GenChk RB3LYP/6-31G(d) Freq
 --------------------------------------------------------------------

 Structure from the checkpoint file:  "JID_4058.chk"
 ------------------------------
 CID_14866896_JID_4058_neutraal
 ------------------------------
 Charge =  0 Multiplicity = 1

 SCF Done:  E(RB3LYP) =  -655.742771763     A.U. after    1 cycles

  Exact polarizability: 130.817  -2.434 119.112  -0.448   0.626 104.680
 Approx polarizability: 158.395  -8.040 171.006  -3.649  -0.047 171.430

                      1                      2                      3
                      A                      A                      A
 Frequencies --     27.4349                34.1793                54.3454
 Red. masses --      4.0296                 4.3029                 5.7581
 Frc consts  --      0.0018                 0.0030                 0.0100
 IR Inten    --      1.3331                 0.5445                 1.2786

                      4                      5                      6
                      A                      A                      A
 Frequencies --     74.6607                81.1789               137.0687
 Red. masses --      4.4003                 4.0057                 1.1146
 Frc consts  --      0.0145                 0.0156                 0.0123
 IR Inten    --      3.0137                 2.9093                 0.2746

                      7                      8                      9
                      A                      A                      A
 Frequencies --    159.3519               172.4341               204.5131
 Red. masses --      2.5455                 2.9555                 3.4596
 Frc consts  --      0.0381                 0.0518                 0.0853
 IR Inten    --      0.8987                 1.6703                 2.9629

                     10                     11                     12
                      A                      A                      A
 Frequencies --    212.5535               238.4139               248.4471
 Red. masses --      2.7270                 3.1404                 1.0510
 Frc consts  --      0.0726                 0.1052                 0.0382
 IR Inten    --      3.8358                 3.4064                 0.1557

                     13                     14                     15
                      A                      A                      A
 Frequencies --    254.1222               284.7851               306.0297
 Red. masses --      1.1722                 2.5186                 2.2527
 Frc consts  --      0.0446                 0.1203                 0.1243
 IR Inten    --      0.7014                 0.7438                 3.3335

                     16                     17                     18
                      A                      A                      A
 Frequencies --    336.4497               389.8521               407.7401
 Red. masses --      3.4249                 4.1629                 3.1817
 Frc consts  --      0.2284                 0.3728                 0.3117
 IR Inten    --      7.4131                 2.3826                 1.7446

                     19                     20                     21
                      A                      A                      A
 Frequencies --    453.4655               485.3742               497.9115
 Red. masses --      3.1071                 3.8349                 2.8667
 Frc consts  --      0.3764                 0.5323                 0.4187
 IR Inten    --      2.6332                 3.4152                11.1245

                     22                     23                     24
                      A                      A                      A
 Frequencies --    570.1572               629.2408               702.0004
 Red. masses --      2.4685                 3.3611                 3.0987
 Frc consts  --      0.4728                 0.7841                 0.8997
 IR Inten    --      2.3131                 3.7066                 3.1626

                     25                     26                     27
                      A                      A                      A
 Frequencies --    777.1917               834.9475               857.6892
 Red. masses --      6.3407                 2.5986                 3.0266
 Frc consts  --      2.2565                 1.0674                 1.3118
 IR Inten    --      5.7061                 6.4364                 4.9076

                     28                     29                     30
                      A                      A                      A
 Frequencies --    863.1525               875.8863               938.1466
 Red. masses --      1.9596                 3.0502                 1.7287
 Frc consts  --      0.8602                 1.3787                 0.8964
 IR Inten    --      0.2469                 2.1770                 3.5351

                     31                     32                     33
                      A                      A                      A
 Frequencies --    960.6542               975.7516              1003.1880
 Red. masses --      1.7393                 1.5331                 1.8489
 Frc consts  --      0.9457                 0.8600                 1.0963
 IR Inten    --      8.1404                 2.2366                 2.8019

                     34                     35                     36
                      A                      A                      A
 Frequencies --   1010.8506              1024.1909              1035.7404
 Red. masses --      2.0554                 1.8951                 2.0744
 Frc consts  --      1.2374                 1.1713                 1.3111
 IR Inten    --      4.9675                11.1581                 2.5942

                     37                     38                     39
                      A                      A                      A
 Frequencies --   1055.7017              1076.2347              1092.4397
 Red. masses --      2.4139                 1.9048                 2.2939
 Frc consts  --      1.5851                 1.2999                 1.6130
 IR Inten    --     26.7939                15.8602                32.0669

                     40                     41                     42
                      A                      A                      A
 Frequencies --   1117.3469              1138.7800              1169.8242
 Red. masses --      2.5465                 3.0025                 2.4101
 Frc consts  --      1.8732                 2.2941                 1.9433
 IR Inten    --     80.5327                 3.3598                 2.2921

                     43                     44                     45
                      A                      A                      A
 Frequencies --   1176.3388              1186.6909              1217.4133
 Red. masses --      2.2255                 1.2780                 1.4960
 Frc consts  --      1.8145                 1.0604                 1.3064
 IR Inten    --      6.4438                 1.0145                 1.7627

                     46                     47                     48
                      A                      A                      A
 Frequencies --   1221.9454              1239.2649              1278.7624
 Red. masses --      1.5758                 1.4333                 1.5781
 Frc consts  --      1.3863                 1.2969                 1.5204
 IR Inten    --      9.3308                 3.5093                79.0932

                     49                     50                     51
                      A                      A                      A
 Frequencies --   1285.7694              1298.8937              1321.7697
 Red. masses --      1.3187                 2.8199                 1.3255
 Frc consts  --      1.2845                 2.8030                 1.3644
 IR Inten    --      4.0394               183.7916                 4.6147

                     52                     53                     54
                      A                      A                      A
 Frequencies --   1334.8482              1341.6039              1358.1791
 Red. masses --      1.3152                 1.3373                 1.4387
 Frc consts  --      1.3807                 1.4182                 1.5636
 IR Inten    --      6.6665                 9.6537                 0.7654

                     55                     56                     57
                      A                      A                      A
 Frequencies --   1372.1513              1384.8376              1397.8918
 Red. masses --      1.2849                 1.3707                 1.4415
 Frc consts  --      1.4254                 1.5488                 1.6597
 IR Inten    --      1.2507                 1.3406                 4.8385

                     58                     59                     60
                      A                      A                      A
 Frequencies --   1410.7613              1440.8356              1443.9450
 Red. masses --      1.4044                 1.2404                 1.2049
 Frc consts  --      1.6469                 1.5172                 1.4802
 IR Inten    --      2.4647                 3.1506                 3.9780

                     61                     62                     63
                      A                      A                      A
 Frequencies --   1444.3162              1492.7707              1512.7586
 Red. masses --      1.2091                 1.2018                 1.0482
 Frc consts  --      1.4860                 1.5778                 1.4133
 IR Inten    --      2.7117                 6.1804                 5.7391

                     64                     65                     66
                      A                      A                      A
 Frequencies --   1518.8790              1525.1675              1527.7046
 Red. masses --      1.0846                 1.0478                 1.0508
 Frc consts  --      1.4743                 1.4360                 1.4450
 IR Inten    --      1.9729                 7.3980                 2.3999

                     67                     68                     69
                      A                      A                      A
 Frequencies --   1528.4178              1531.9291              1533.1653
 Red. masses --      1.0584                 1.0593                 1.0884
 Frc consts  --      1.4568                 1.4647                 1.5073
 IR Inten    --      5.4567                 9.1873                 1.1429

                     70                     71                     72
                      A                      A                      A
 Frequencies --   1538.8883              1823.2385              1827.0935
 Red. masses --      1.0423                 9.9236                10.9701
 Frc consts  --      1.4543                19.4360                21.5767
 IR Inten    --      9.2431               174.6426               206.6916

                     73                     74                     75
                      A                      A                      A
 Frequencies --   2880.8718              3009.1743              3038.8994
 Red. masses --      1.0826                 1.0836                 1.0636
 Frc consts  --      5.2937                 5.7810                 5.7869
 IR Inten    --     72.4091                17.9826                12.9030

                     76                     77                     78
                      A                      A                      A
 Frequencies --   3042.6533              3044.0856              3053.4988
 Red. masses --      1.0690                 1.0458                 1.0727
 Frc consts  --      5.8310                 5.7099                 5.8930
 IR Inten    --      0.8804                39.8507                26.9264

                     79                     80                     81
                      A                      A                      A
 Frequencies --   3064.0824              3075.2232              3080.0833
 Red. masses --      1.0362                 1.0302                 1.0840
 Frc consts  --      5.7317                 5.7400                 6.0589
 IR Inten    --     18.6880                36.2521                11.5219

                     82                     83                     84
                      A                      A                      A
 Frequencies --   3096.7013              3102.2795              3107.1620
 Red. masses --      1.0868                 1.0959                 1.1014
 Frc consts  --      6.1404                 6.2139                 6.2651
 IR Inten    --     17.4544                21.3538                11.6382

                     85                     86                     87
                      A                      A                      A
 Frequencies --   3110.8013              3115.7759              3131.9389
 Red. masses --      1.1015                 1.1025                 1.1019
 Frc consts  --      6.2804                 6.3063                 6.3681
 IR Inten    --     75.7854                25.5938                22.6569

                     88                     89                     90
                      A                      A                      A
 Frequencies --   3149.4770              3150.8274              3181.9806
 Red. masses --      1.1073                 1.1029                 1.1072
 Frc consts  --      6.4714                 6.4513                 6.6048
 IR Inten    --     20.6886                10.2870                16.7957

 - Thermochemistry -
 -------------------
 Temperature   298.150 Kelvin.  Pressure   1.00000 Atm.
 Atom     1 has atomic number  6 and mass  12.00000

 Molecular mass:   198.12559 amu.
 Principal axes and moments of inertia in atomic units:
                           1         2         3
     Eigenvalues --  1700.381594174.562975066.79218
           X            0.99979   0.01998   0.00410
           Y           -0.02003   0.99971   0.01322
           Z           -0.00383  -0.01330   0.99990
 This molecule is an asymmetric top.
 Rotational symmetry number  1.
 Warning -- assumption of classical behavior for rotation
           may cause significant error
 Rotational temperatures (Kelvin)      0.05094     0.02075     0.01709
 Rotational constants (GHZ):           1.06137     0.43232     0.35619
 Zero-point vibrational energy     734035.6 (Joules/Mol)
                                  175.43873 (Kcal/Mol)
 Warning -- explicit consideration of  22 degrees of freedom as
           vibrations may cause significant error
 Vibrational temperatures:     39.47    49.18    78.19   107.42   116.80
          (Kelvin)            197.21   229.27   248.09   294.25   305.82
                              343.02   357.46   365.63   409.74   440.31
                              484.08   560.91   586.65   652.44   698.35
                              716.38   820.33   905.34  1010.02  1118.21
                             1201.30  1234.02  1241.88  1260.21  1349.78
                             1382.17  1403.89  1443.36  1454.39  1473.58
                             1490.20  1518.92  1548.46  1571.78  1607.61
                             1638.45  1683.12  1692.49  1707.38  1751.59
                             1758.11  1783.03  1839.85  1849.94  1868.82
                             1901.73  1920.55  1930.27  1954.12  1974.22
                             1992.47  2011.25  2029.77  2073.04  2077.51
                             2078.05  2147.76  2176.52  2185.33  2194.38
                             2198.03  2199.05  2204.10  2205.88  2214.12
                             2623.23  2628.78  4144.93  4329.53  4372.30
                             4377.70  4379.76  4393.30  4408.53  4424.56
                             4431.55  4455.46  4463.49  4470.51  4475.75
                             4482.91  4506.16  4531.39  4533.34  4578.16

 Zero-point correction=                           0.279579 (Hartree/Particle)
 Thermal correction to Energy=                    0.295015
 Thermal correction to Enthalpy=                  0.295960
 Thermal correction to Gibbs Free Energy=         0.235640
 Sum of electronic and zero-point Energies=           -655.463192
 Sum of electronic and thermal Energies=              -655.447756
 Sum of electronic and thermal Enthalpies=            -655.446812
 Sum of electronic and thermal Free Energies=         -655.507132

                     E (Thermal)             CV                S
                      KCal/Mol        Cal/Mol-Kelvin    Cal/Mol-Kelvin
 Total                  185.125             55.818            126.953
 Electronic               0.000              0.000              0.000
 Translational            0.889              2.981             41.756
 Rotational               0.889              2.981             31.953
 Vibrational            183.348             49.856             53.244
 Vibration     1          0.593              1.984              6.007
 Vibration     2          0.594              1.983              5.571
 Vibration     3          0.596              1.976              4.653
 Vibration     4          0.599              1.966              4.027
 Vibration     5          0.600              1.962              3.862
 Vibration     6          0.614              1.916              2.844
 Vibration     7          0.621              1.892              2.557
 Vibration     8          0.626              1.876              2.409
 Vibration     9          0.640              1.833              2.092
 Vibration    10          0.644              1.822              2.022
 Vibration    11          0.656              1.782              1.815
 Vibration    12          0.662              1.765              1.742
 Vibration    13          0.665              1.756              1.702
 Vibration    14          0.683              1.702              1.505
 Vibration    15          0.696              1.662              1.384
 Vibration    16          0.717              1.603              1.229
 Vibration    17          0.758              1.492              1.001
 Vibration    18          0.772              1.453              0.935
 Vibration    19          0.812              1.353              0.785
 Vibration    20          0.841              1.282              0.696
 Vibration    21          0.853              1.255              0.663
 Vibration    22          0.926              1.096              0.504

                           ! Non-Optimized Parameters !
 Normal termination of Gaussian 16 at Thu Dec 10 09:34:07 2020.

 ----------------------------------------------------------------------
 # B3LYP/6-311++G(d,p) empiricaldispersion=gd3bj scf=xqc pop=npa geom=c
 heck
 ----------------------------------------------------------------------

 --------------------------------------
 CID_14866896_JID_4058_Energie_neutraal
 --------------------------------------
 Structure from the checkpoint file:  "JID_4058.chk"
 Charge =  0 Multiplicity = 1

 SCF Done:  E(RB3LYP) =  -655.933490285     A.U. after   14 cycles
 Normal termination of Gaussian 16 at Thu Dec 10 09:38:07 2020.

 ----------------------------------------------------------------------
 # B3LYP/6-311++G(d,p) empiricaldispersion=gd3bj scf=xqc pop=npa geom=c
 heck
 ----------------------------------------------------------------------

 ------------------------------------
 CID_14866896_JID_4058_Energie_kation
 ------------------------------------
 Structure from the checkpoint file:  "JID_4058.chk"
 Charge =  1 Multiplicity = 2

 SCF Done:  E(UB3LYP) =  -655.597934496     A.U. after   29 cycles
 Normal termination of Gaussian 16 at Thu Dec 10 09:50:21 2020.
 Gaussian 16:  ES64L-G16RevA.03 25-Dec-2016

 ----------------------------------------------------------------------
 # B3LYP/6-311++G(d,p) empiricaldispersion=gd3bj scf=xqc pop=npa geom=c
 heck
 ----------------------------------------------------------------------

 -----------------------------------
 CID_14866896_JID_4058_Energie_anion
 -----------------------------------
 Structure from the checkpoint file:  "JID_4058.chk"
 Charge = -1 Multiplicity = 2

                         Standard orientation:
 ---------------------------------------------------------------------
 Center     Atomic      Atomic             Coordinates (Angstroms)
 Number     Number       Type             X           Y           Z
 ---------------------------------------------------------------------
      1          6           0       -3.625895   -1.228696    0.885026
      2          6           0       -2.539588   -0.898935   -0.137277
      3          6           0       -1.554342   -2.058121   -0.411434
      4          6           0       -0.247878   -1.364486   -0.804790
      5          6           0       -0.173021   -0.196712    0.192270
      6          6           0       -1.648664    0.318698    0.284608
      7          6           0       -1.907442    1.487822   -0.636429
      8          8           0       -2.149915    2.618311   -0.272175
      9          6           0        0.886492    0.879269   -0.119441
     10          6           0        0.983459    1.939055    0.990725
     11          6           0        2.229861    0.213084   -0.360163
     12          8           0        2.831184    0.201711   -1.411926
     13          8           0        2.683519   -0.400383    0.759260
     14          6           0        3.942992   -1.074824    0.618853
     15          1           0       -4.221244   -2.090181    0.561137
     16          1           0       -3.181819   -1.474562    1.857364
     17          1           0       -4.307859   -0.383495    1.030793
     18          1           0       -3.031490   -0.648828   -1.088903
     19          1           0       -1.399685   -2.635721    0.510105
     20          1           0       -1.930269   -2.751622   -1.170617
     21          1           0       -0.301406   -0.985109   -1.834162
     22          1           0        0.626833   -2.020265   -0.745562
     23          1           0        0.074011   -0.618739    1.174384
     24          1           0       -1.876956    0.657526    1.299064
     25          1           0       -1.872532    1.244370   -1.724184
     26          1           0        0.644217    1.367050   -1.069813
     27          1           0        1.218187    1.468663    1.950349
     28          1           0        1.769685    2.667643    0.766595
     29          1           0        0.038982    2.481280    1.084705
     30          1           0        3.875798   -1.857538   -0.141486
     31          1           0        4.725565   -0.368622    0.329929
     32          1           0        4.155831   -1.505887    1.597340
 ---------------------------------------------------------------------

 SCF Done:  E(UB3LYP) =  -655.923300724     A.U. after   33 cycles
 SCF Done:  E(UB3LYP) =  -655.923300724     a.u. after    1 cycles

 The electronic state is 2-A.
 Alpha  occ. eigenvalues --  -19.06970 -19.01535 -18.99438 -10.20040 -10.12460
 Alpha  occ. eigenvalues --  -10.12255 -10.08932 -10.08007 -10.08000 -10.07181
 Alpha  occ. eigenvalues --  -10.06572 -10.06567 -10.06543 -10.06459  -1.00992
 Alpha  occ. eigenvalues --   -0.92678  -0.92309  -0.75710  -0.70416  -0.64702
 Alpha  occ. eigenvalues --   -0.63125  -0.61640  -0.57374  -0.53384  -0.50098
 Alpha  occ. eigenvalues --   -0.47207  -0.46646  -0.44344  -0.40626  -0.39820
 Alpha  occ. eigenvalues --   -0.38465  -0.37104  -0.36435  -0.33914  -0.33417
 Alpha  occ. eigenvalues --   -0.32902  -0.32488  -0.31577  -0.31435  -0.29667
 Alpha  occ. eigenvalues --   -0.29065  -0.28472  -0.27592  -0.26310  -0.25972
 Alpha  occ. eigenvalues --   -0.24684  -0.23324  -0.23013  -0.22654  -0.22297
 Alpha  occ. eigenvalues --   -0.22072  -0.21109  -0.17700  -0.13695   0.04542
 Alpha virt. eigenvalues --    0.06257   0.06676   0.07916   0.08585   0.08862
 Alpha virt. eigenvalues --    0.09604   0.09850   0.10078   0.10734   0.10957
 Alpha virt. eigenvalues --    0.11846   0.12018   0.12177   0.13090   0.13152

  Beta  occ. eigenvalues --  -19.06957 -19.01530 -18.99190 -10.20039 -10.12211
  Beta  occ. eigenvalues --  -10.12207 -10.08922 -10.07984 -10.07968 -10.07200
  Beta  occ. eigenvalues --  -10.06562 -10.06555 -10.06528 -10.06434  -1.00979
  Beta  occ. eigenvalues --   -0.92297  -0.92196  -0.75652  -0.70389  -0.64669
  Beta  occ. eigenvalues --   -0.63010  -0.61533  -0.57313  -0.53327  -0.49781
  Beta  occ. eigenvalues --   -0.47081  -0.46575  -0.44170  -0.40540  -0.39770
  Beta  occ. eigenvalues --   -0.38439  -0.37057  -0.36364  -0.33814  -0.33349
  Beta  occ. eigenvalues --   -0.32742  -0.32362  -0.31488  -0.31372  -0.29623
  Beta  occ. eigenvalues --   -0.28921  -0.28385  -0.26828  -0.26160  -0.25895
  Beta  occ. eigenvalues --   -0.24605  -0.23260  -0.22945  -0.22616  -0.22140
  Beta  occ. eigenvalues --   -0.21870  -0.21080  -0.17666  -0.13504
  Beta virt. eigenvalues --    0.06890   0.07303   0.08123   0.08572   0.08851
  Beta virt. eigenvalues --    0.09504   0.09946   0.10074   0.10478   0.11029
  Beta virt. eigenvalues --    0.11429   0.12083   0.12225   0.12332   0.13179

 Mulliken charges and spin densities:
               1          2
     1  C    0.330630  -1.137462
     2  C   -1.383337   1.817245
     3  C    1.155366  -1.887367
     4  C   -1.046724   0.838028
     5  C   -0.213774   0.280526
     6  C    1.087484  -1.188320
     7  C   -0.414092   0.125163
     8  O   -0.255935   0.076067
     9  C    1.756796  -1.297224
    10  C   -0.344605  -0.397383
    11  C   -1.855051   1.220669
    12  O   -0.181483   0.002806
    13  O   -0.053315   0.068121
    14  C    1.013810  -1.216681
    15  H   -0.166097   0.302093
    16  H   -0.096914   0.248935
    17  H    0.118840   0.021725
    18  H    0.141267   0.023868
    19  H   -0.353678   0.530263
    20  H   -0.059329   0.218679
    21  H    0.109411   0.066426
    22  H   -0.063469   0.208248
    23  H    0.012761   0.236081
    24  H    0.171801   0.101995
    25  H    0.082061  -0.007562
    26  H    0.226104   0.034614
    27  H    0.037566   0.131313
    28  H    0.123010   0.023920
    29  H    0.212746  -0.034379
    30  H   -0.207411   0.380653
    31  H   -0.201829   0.365477
    32  H   -0.682608   0.843464
 Sum of Mulliken charges =  -1.00000   1.00000

 Dipole moment (field-independent basis, Debye):
    X=             -2.1745    Y=              2.9085    Z=             -2.3285  Tot=              4.3139
 Quadrupole moment (field-independent basis, Debye-Ang):
   XX=           -153.8586   YY=           -137.0053   ZZ=           -116.9912
   XY=             10.1799   XZ=             -0.8706   YZ=              8.7476

 Summary of Natural Population Analysis:

                                       Natural Population
                Natural  -----------------------------------------------
    Atom  No    Charge         Core      Valence    Rydberg      Total
 -----------------------------------------------------------------------
      C    1   -0.28134      0.99964     2.27622    0.00548     3.28134
      C    2   -0.10412      0.99960     2.09500    0.00952     3.10412
      C    3   -0.18692      0.99962     2.17828    0.00903     3.18692
      C    4   -0.19169      0.99961     2.18322    0.00886     3.19169
      C    5   -0.09822      0.99957     2.08597    0.01269     3.09822
      C    6   -0.15455      0.99955     2.14257    0.01243     3.15455
      C    7    0.25661      0.99969     1.72246    0.02123     2.74339
      O    8   -0.26410      0.99988     3.25746    0.00676     4.26410
      C    9   -0.15147      0.99953     2.14136    0.01058     3.15147
      C   10   -0.28599      0.99965     2.28029    0.00605     3.28599
      C   11    0.41910      0.99965     1.55493    0.02631     2.58090
      O   12   -0.30776      0.99987     3.30250    0.00540     4.30776
      O   13   -0.28116      0.99986     3.27159    0.00971     4.28116
      C   14   -0.10349      0.99959     2.09466    0.00924     3.10349
      H   15    0.09856      0.00000     0.40064    0.00079     0.40144
      H   16    0.09901      0.00000     0.40002    0.00098     0.40099
      H   17    0.09819      0.00000     0.40106    0.00075     0.40181
      H   18    0.09206      0.00000     0.40598    0.00196     0.40794
      H   19    0.09868      0.00000     0.39924    0.00207     0.40132
      H   20    0.09921      0.00000     0.39986    0.00093     0.40079
      H   21    0.09516      0.00000     0.40366    0.00117     0.40484
      H   22    0.10493      0.00000     0.39401    0.00105     0.39507
      H   23    0.10617      0.00000     0.39128    0.00255     0.39383
      H   24    0.10677      0.00000     0.39179    0.00144     0.39323
      H   25    0.03833      0.00000     0.45974    0.00194     0.46167
      H   26    0.10933      0.00000     0.38938    0.00130     0.39067
      H   27    0.10302      0.00000     0.39600    0.00098     0.39698
      H   28    0.09776      0.00000     0.40161    0.00063     0.40224
      H   29    0.11147      0.00000     0.38757    0.00096     0.38853
      H   30    0.09190      0.00000     0.40661    0.00149     0.40810
      H   31    0.08917      0.00000     0.40959    0.00124     0.41083
      H   32    0.09537      0.00000     0.40229    0.00233     0.40463
 =======================================================================
   * Total *    0.00000     13.99530    39.82683    0.17787    54.00000

 Normal termination of Gaussian 16 at Thu Dec 10 10:03:31 2020.
