 Gaussian 16, Revision A.03,

 -----------------------------------------------------------
 # opt freq B3LYP/6-31G(d) empiricaldispersion=gd3bj scf=xqc
 -----------------------------------------------------------

 ------------------------------
 CID_23345605_JID_5750_neutraal
 ------------------------------
 Symbolic Z-matrix:
 Charge =  0 Multiplicity = 1

 SCF Done:  E(RB3LYP) =  -727.205568253     A.U. after   16 cycles
 SCF Done:  E(RB3LYP) =  -727.219757306     A.U. after   13 cycles
 SCF Done:  E(RB3LYP) =  -727.220783920     A.U. after   12 cycles
 SCF Done:  E(RB3LYP) =  -727.220917989     A.U. after   12 cycles
 SCF Done:  E(RB3LYP) =  -727.220935126     A.U. after   11 cycles
 SCF Done:  E(RB3LYP) =  -727.220961323     A.U. after   11 cycles
 SCF Done:  E(RB3LYP) =  -727.220967490     A.U. after   10 cycles
 SCF Done:  E(RB3LYP) =  -727.220969790     A.U. after    9 cycles
 SCF Done:  E(RB3LYP) =  -727.220970243     A.U. after    8 cycles
 Optimization completed.
    -- Stationary point found.
 Normal termination of Gaussian 16 at Thu Dec 10 16:45:44 2020.

 --------------------------------------------------------------------
 #N Geom=AllCheck Guess=TCheck SCRF=Check GenChk RB3LYP/6-31G(d) Freq
 --------------------------------------------------------------------

 Structure from the checkpoint file:  "JID_5750.chk"
 ------------------------------
 CID_23345605_JID_5750_neutraal
 ------------------------------
 Charge =  0 Multiplicity = 1

 SCF Done:  E(RB3LYP) =  -727.220970244     A.U. after    1 cycles

  Exact polarizability: 178.874   2.763 126.674  -0.007  -0.002  71.402
 Approx polarizability: 257.281   8.914 231.446  -0.017  -0.016 104.825

                      1                      2                      3
                      A                      A                      A
 Frequencies --     30.0598                61.4734                72.6501
 Red. masses --      3.4754                 4.8240                 9.4901
 Frc consts  --      0.0019                 0.0107                 0.0295
 IR Inten    --      0.0236                 0.5299                 1.7281

                      4                      5                      6
                      A                      A                      A
 Frequencies --    119.5377               168.2279               171.2083
 Red. masses --      5.6939                 4.4471                 5.2331
 Frc consts  --      0.0479                 0.0742                 0.0904
 IR Inten    --      0.6437                 0.0567                 1.5486

                      7                      8                      9
                      A                      A                      A
 Frequencies --    243.4843               255.8208               259.1118
 Red. masses --      1.1469                 4.2083                 5.2726
 Frc consts  --      0.0401                 0.1623                 0.2086
 IR Inten    --      0.0188                 0.2802                 0.0598

                     10                     11                     12
                      A                      A                      A
 Frequencies --    281.3491               288.0192               308.9208
 Red. masses --      3.7830                 1.1312                 2.3995
 Frc consts  --      0.1764                 0.0553                 0.1349
 IR Inten    --      0.0092                 0.1577                 0.9589

                     13                     14                     15
                      A                      A                      A
 Frequencies --    319.7746               348.1513               384.1660
 Red. masses --      1.0878                 3.3018                 4.5494
 Frc consts  --      0.0655                 0.2358                 0.3956
 IR Inten    --      0.0000                 0.6335                 0.6002

                     16                     17                     18
                      A                      A                      A
 Frequencies --    395.2732               417.7906               437.8062
 Red. masses --      2.9012                 4.4787                 3.6430
 Frc consts  --      0.2671                 0.4606                 0.4114
 IR Inten    --      1.1753                 4.1614                 5.4273

                     19                     20                     21
                      A                      A                      A
 Frequencies --    540.2159               554.7233               586.6990
 Red. masses --      2.9990                 3.6354                 7.9566
 Frc consts  --      0.5157                 0.6591                 1.6136
 IR Inten    --     18.8678                18.2086                 0.3857

                     22                     23                     24
                      A                      A                      A
 Frequencies --    612.4706               628.2367               632.9848
 Red. masses --      1.8747                 2.4680                 4.9877
 Frc consts  --      0.4143                 0.5739                 1.1774
 IR Inten    --     59.6695                12.9250                20.1711

                     25                     26                     27
                      A                      A                      A
 Frequencies --    693.9190               718.0129               728.2766
 Red. masses --      5.9284                 4.9036                 5.6656
 Frc consts  --      1.6819                 1.4895                 1.7705
 IR Inten    --      6.6003                35.2113                23.3279

                     28                     29                     30
                      A                      A                      A
 Frequencies --    766.3992               822.2678               833.9421
 Red. masses --      4.7836                10.2631                 1.6666
 Frc consts  --      1.6555                 4.0884                 0.6829
 IR Inten    --     44.1915                 0.7025                 5.8059

                     31                     32                     33
                      A                      A                      A
 Frequencies --    837.1685               942.9329               954.2649
 Red. masses --      3.0940                 1.7777                 1.2744
 Frc consts  --      1.2776                 0.9313                 0.6838
 IR Inten    --      2.3677                 0.9643                 0.0196

                     34                     35                     36
                      A                      A                      A
 Frequencies --    957.6540               981.0139              1005.5294
 Red. masses --      1.7596                 1.1993                 5.1452
 Frc consts  --      0.9508                 0.6800                 3.0651
 IR Inten    --      0.2349                 0.0050                 4.9747

                     37                     38                     39
                      A                      A                      A
 Frequencies --   1044.0545              1067.1759              1076.4490
 Red. masses --      2.3115                 1.3912                 2.0948
 Frc consts  --      1.4846                 0.9335                 1.4301
 IR Inten    --     20.2852                 0.0002                 6.6211

                     40                     41                     42
                      A                      A                      A
 Frequencies --   1125.5548              1143.5889              1188.1951
 Red. masses --      5.8755                 3.0308                 2.0985
 Frc consts  --      4.3856                 2.3353                 1.7456
 IR Inten    --    178.8768                24.6207               142.4952

                     43                     44                     45
                      A                      A                      A
 Frequencies --   1234.0952              1242.5469              1258.9022
 Red. masses --      1.8342                 2.6631                 2.0115
 Frc consts  --      1.6459                 2.4225                 1.8783
 IR Inten    --     24.9367                 2.9093                78.0602

                     46                     47                     48
                      A                      A                      A
 Frequencies --   1274.2352              1319.8318              1399.1803
 Red. masses --      2.5970                 2.8049                 2.8513
 Frc consts  --      2.4844                 2.8787                 3.2888
 IR Inten    --     10.2815                13.9574               132.3206

                     49                     50                     51
                      A                      A                      A
 Frequencies --   1428.0040              1430.0665              1438.4447
 Red. masses --      1.4098                 1.2061                 3.3037
 Frc consts  --      1.6938                 1.4533                 4.0275
 IR Inten    --      9.8500                 5.0725                19.4494

                     52                     53                     54
                      A                      A                      A
 Frequencies --   1458.6402              1466.9460              1512.3706
 Red. masses --      1.6592                 2.5430                 1.0477
 Frc consts  --      2.0799                 3.2243                 1.4119
 IR Inten    --     40.4059                92.4369                 0.0419

                     55                     56                     57
                      A                      A                      A
 Frequencies --   1517.1475              1519.8392              1531.8077
 Red. masses --      1.0457                 1.1155                 2.6778
 Frc consts  --      1.4181                 1.5181                 3.7020
 IR Inten    --      0.1361                 1.3053                21.3076

                     58                     59                     60
                      A                      A                      A
 Frequencies --   1536.0864              1537.0542              1551.2343
 Red. masses --      1.0710                 1.0496                 1.0777
 Frc consts  --      1.4889                 1.4611                 1.5280
 IR Inten    --      2.8424                 5.7982                 9.3156

                     61                     62                     63
                      A                      A                      A
 Frequencies --   1620.8055              1759.8190              1831.1698
 Red. masses --     10.2694                 9.8855                10.0756
 Frc consts  --     15.8948                18.0379                19.9058
 IR Inten    --     11.6811                71.4710               384.1218

                     64                     65                     66
                      A                      A                      A
 Frequencies --   3047.2390              3048.2165              3054.7936
 Red. masses --      1.0341                 1.0344                 1.0357
 Frc consts  --      5.6575                 5.6628                 5.6946
 IR Inten    --     22.2108                21.4668                17.3792

                     67                     68                     69
                      A                      A                      A
 Frequencies --   3117.3204              3118.9129              3119.8062
 Red. masses --      1.1031                 1.1029                 1.1035
 Frc consts  --      6.3157                 6.3211                 6.3284
 IR Inten    --      0.0254                 3.1172                 8.3788

                     70                     71                     72
                      A                      A                      A
 Frequencies --   3124.1978              3125.4193              3126.1442
 Red. masses --      1.1029                 1.1020                 1.1024
 Frc consts  --      6.3428                 6.3421                 6.3479
 IR Inten    --     36.8326                65.6413                46.8445

                     73                     74                     75
                      A                      A                      A
 Frequencies --   3219.4064              3233.5065              3699.2320
 Red. masses --      1.0874                 1.0925                 1.0642
 Frc consts  --      6.6403                 6.7301                 8.5798
 IR Inten    --      0.7351                 3.7206                88.2543

 - Thermochemistry -
 -------------------
 Temperature   298.150 Kelvin.  Pressure   1.00000 Atm.
 Atom     1 has atomic number  6 and mass  12.00000

 Molecular mass:   208.07356 amu.
 Principal axes and moments of inertia in atomic units:
                           1         2         3
     Eigenvalues --  1419.730484826.288985847.54845
           X            0.99996  -0.00943   0.00001
           Y            0.00943   0.99996   0.00000
           Z           -0.00001  -0.00000   1.00000
 This molecule is an asymmetric top.
 Rotational symmetry number  1.
 Warning -- assumption of classical behavior for rotation
           may cause significant error
 Rotational temperatures (Kelvin)      0.06101     0.01795     0.01481
 Rotational constants (GHZ):           1.27119     0.37394     0.30863
 Zero-point vibrational energy     561688.5 (Joules/Mol)
                                  134.24676 (Kcal/Mol)
 Warning -- explicit consideration of  22 degrees of freedom as
           vibrations may cause significant error
 Vibrational temperatures:     43.25    88.45   104.53   171.99   242.04
          (Kelvin)            246.33   350.32   368.07   372.80   404.80
                              414.40   444.47   460.08   500.91   552.73
                              568.71   601.11   629.91   777.25   798.12
                              844.13   881.21   903.89   910.72   998.39
                             1033.06  1047.83  1102.68  1183.06  1199.86
                             1204.50  1356.67  1372.97  1377.85  1411.46
                             1446.73  1502.16  1535.43  1548.77  1619.42
                             1645.37  1709.55  1775.59  1787.75  1811.28
                             1833.34  1898.94  2013.11  2054.58  2057.55
                             2069.60  2098.66  2110.61  2175.96  2182.84
                             2186.71  2203.93  2210.09  2211.48  2231.88
                             2331.98  2531.99  2634.64  4384.30  4385.70
                             4395.17  4485.13  4487.42  4488.71  4495.02
                             4496.78  4497.82  4632.01  4652.29  5322.37

 Zero-point correction=                           0.213936 (Hartree/Particle)
 Thermal correction to Energy=                    0.227972
 Thermal correction to Enthalpy=                  0.228916
 Thermal correction to Gibbs Free Energy=         0.172993
 Sum of electronic and zero-point Energies=           -727.007034
 Sum of electronic and thermal Energies=              -726.992998
 Sum of electronic and thermal Enthalpies=            -726.992054
 Sum of electronic and thermal Free Energies=         -727.047977

                     E (Thermal)             CV                S
                      KCal/Mol        Cal/Mol-Kelvin    Cal/Mol-Kelvin
 Total                  143.055             53.840            117.701
 Electronic               0.000              0.000              0.000
 Translational            0.889              2.981             41.902
 Rotational               0.889              2.981             32.061
 Vibrational            141.277             47.878             43.738
 Vibration     1          0.594              1.984              5.825
 Vibration     2          0.597              1.973              4.409
 Vibration     3          0.599              1.967              4.080
 Vibration     4          0.609              1.933              3.108
 Vibration     5          0.625              1.882              2.455
 Vibration     6          0.626              1.878              2.422
 Vibration     7          0.659              1.774              1.777
 Vibration     8          0.666              1.753              1.690
 Vibration     9          0.668              1.747              1.668
 Vibration    10          0.681              1.708              1.525
 Vibration    11          0.685              1.696              1.486
 Vibration    12          0.698              1.657              1.368
 Vibration    13          0.706              1.636              1.311
 Vibration    14          0.726              1.579              1.175
 Vibration    15          0.753              1.504              1.023
 Vibration    16          0.762              1.480              0.980
 Vibration    17          0.781              1.432              0.900
 Vibration    18          0.798              1.388              0.834
 Vibration    19          0.895              1.161              0.565
 Vibration    20          0.910              1.129              0.534
 Vibration    21          0.944              1.060              0.473
 Vibration    22          0.972              1.005              0.429

                           ! Non-Optimized Parameters !
 Normal termination of Gaussian 16 at Thu Dec 10 16:53:57 2020.

 ----------------------------------------------------------------------
 # B3LYP/6-311++G(d,p) empiricaldispersion=gd3bj scf=xqc pop=npa geom=c
 heck
 ----------------------------------------------------------------------

 --------------------------------------
 CID_23345605_JID_5750_Energie_neutraal
 --------------------------------------
 Structure from the checkpoint file:  "JID_5750.chk"
 Charge =  0 Multiplicity = 1

 SCF Done:  E(RB3LYP) =  -727.427092322     A.U. after   16 cycles
 Normal termination of Gaussian 16 at Thu Dec 10 16:58:37 2020.

 ----------------------------------------------------------------------
 # B3LYP/6-311++G(d,p) empiricaldispersion=gd3bj scf=xqc pop=npa geom=c
 heck
 ----------------------------------------------------------------------

 ------------------------------------
 CID_23345605_JID_5750_Energie_kation
 ------------------------------------
 Structure from the checkpoint file:  "JID_5750.chk"
 Charge =  1 Multiplicity = 2

 SCF Done:  E(UB3LYP) =  -727.098902200     A.U. after   27 cycles
 Normal termination of Gaussian 16 at Thu Dec 10 17:06:28 2020.
 Gaussian 16:  ES64L-G16RevA.03 25-Dec-2016

 ----------------------------------------------------------------------
 # B3LYP/6-311++G(d,p) empiricaldispersion=gd3bj scf=xqc pop=npa geom=c
 heck
 ----------------------------------------------------------------------

 -----------------------------------
 CID_23345605_JID_5750_Energie_anion
 -----------------------------------
 Structure from the checkpoint file:  "JID_5750.chk"
 Charge = -1 Multiplicity = 2

                         Standard orientation:
 ---------------------------------------------------------------------
 Center     Atomic      Atomic             Coordinates (Angstroms)
 Number     Number       Type             X           Y           Z
 ---------------------------------------------------------------------
      1          6           0        3.127527    0.524596   -1.259551
      2          6           0        2.688639   -0.254115    0.000201
      3          6           0        3.355395   -1.636351    0.000451
      4          6           0        3.126450    0.524366    1.260500
      5          6           0        1.170167   -0.351185   -0.000486
      6          6           0        0.343371    0.753143   -0.001306
      7          6           0       -1.025900    0.740839   -0.001126
      8          6           0       -1.787950   -0.412046   -0.000417
      9          6           0       -0.988769   -1.581754   -0.000512
     10          6           0        0.406244   -1.550780   -0.000548
     11          6           0       -3.259130   -0.483058    0.000195
     12          8           0       -3.914840   -1.503861    0.000658
     13          8           0       -3.813636    0.755557    0.000261
     14          8           0       -1.119437    2.135049    0.000421
     15          8           0        0.393191    2.163049    0.000060
     16          1           0        4.217300    0.639704   -1.271642
     17          1           0        2.680494    1.524255   -1.285892
     18          1           0        2.827564   -0.004389   -2.170461
     19          1           0        4.444044   -1.518419    0.000481
     20          1           0        3.082596   -2.216437    0.888814
     21          1           0        3.082650   -2.216745   -0.887743
     22          1           0        2.679275    1.523959    1.286787
     23          1           0        2.825870   -0.004945    2.171022
     24          1           0        4.216198    0.639572    1.273401
     25          1           0       -1.509632   -2.533258   -0.000515
     26          1           0        0.934870   -2.496685   -0.000568
     27          1           0       -4.779714    0.623100    0.000713
 ---------------------------------------------------------------------

 SCF Done:  E(UB3LYP) =  -727.436482544     A.U. after   33 cycles
 SCF Done:  E(UB3LYP) =  -727.436482544     a.u. after    1 cycles

 The electronic state is 2-A.
 Alpha  occ. eigenvalues --  -19.07714 -19.07707 -19.01049 -18.93333 -10.11659
 Alpha  occ. eigenvalues --  -10.07899 -10.07291 -10.07189 -10.05844 -10.05284
 Alpha  occ. eigenvalues --  -10.05281 -10.03084 -10.03022 -10.02173 -10.01970
 Alpha  occ. eigenvalues --   -1.03096  -0.94547  -0.85157  -0.79686  -0.72916
 Alpha  occ. eigenvalues --   -0.69416  -0.61133  -0.59425  -0.58080  -0.58044
 Alpha  occ. eigenvalues --   -0.52360  -0.46627  -0.44059  -0.43406  -0.40024
 Alpha  occ. eigenvalues --   -0.37906  -0.35352  -0.34221  -0.33537  -0.33031
 Alpha  occ. eigenvalues --   -0.32446  -0.30250  -0.29514  -0.29332  -0.28802
 Alpha  occ. eigenvalues --   -0.28714  -0.27511  -0.26420  -0.25679  -0.24116
 Alpha  occ. eigenvalues --   -0.23384  -0.23125  -0.20898  -0.20218  -0.19596
 Alpha  occ. eigenvalues --   -0.18719  -0.17161  -0.12062  -0.10557  -0.09254
 Alpha  occ. eigenvalues --    0.05264
 Alpha virt. eigenvalues --    0.07136   0.07884   0.09422   0.09690   0.10169
 Alpha virt. eigenvalues --    0.10643   0.12060   0.12115   0.12552   0.13746
 Alpha virt. eigenvalues --    0.13910   0.14693   0.15106   0.16038   0.16396

  Beta  occ. eigenvalues --  -19.07715 -19.07668 -19.00947 -18.92969 -10.11331
  Beta  occ. eigenvalues --  -10.07930 -10.07289 -10.06986 -10.05842 -10.05250
  Beta  occ. eigenvalues --  -10.05246 -10.03131 -10.02635 -10.01972 -10.01783
  Beta  occ. eigenvalues --   -1.02995  -0.94162  -0.84595  -0.79619  -0.72597
  Beta  occ. eigenvalues --   -0.69162  -0.60529  -0.59252  -0.58006  -0.57852
  Beta  occ. eigenvalues --   -0.51627  -0.46447  -0.43944  -0.43207  -0.39941
  Beta  occ. eigenvalues --   -0.37613  -0.35173  -0.33779  -0.33411  -0.32973
  Beta  occ. eigenvalues --   -0.32093  -0.30101  -0.29398  -0.28716  -0.28629
  Beta  occ. eigenvalues --   -0.27724  -0.27326  -0.26394  -0.25525  -0.23796
  Beta  occ. eigenvalues --   -0.23152  -0.23046  -0.20809  -0.19367  -0.19361
  Beta  occ. eigenvalues --   -0.18413  -0.15614  -0.11694  -0.08807  -0.08179
  Beta virt. eigenvalues --    0.07074   0.07888   0.09361   0.09550   0.10141
  Beta virt. eigenvalues --    0.10582   0.11702   0.11991   0.12385   0.12471
  Beta virt. eigenvalues --    0.13727   0.13849   0.15089   0.15091   0.15990

 Mulliken charges and spin densities:
               1          2
     1  C   -0.614847  -0.048211
     2  C    0.385805   0.015757
     3  C   -0.449403  -0.002725
     4  C   -0.612090  -0.051145
     5  C    1.227200   0.292460
     6  C   -0.759113  -0.044079
     7  C   -0.602482   0.103305
     8  C    0.871193   0.118594
     9  C   -0.823368   0.215885
    10  C   -0.713579  -0.075068
    11  C    0.372855   0.232021
    12  O   -0.438971   0.129181
    13  O   -0.247066   0.020220
    14  O   -0.144363   0.009413
    15  O   -0.113110  -0.001576
    16  H    0.086484   0.037824
    17  H    0.154556   0.008517
    18  H    0.128858  -0.000265
    19  H    0.135539  -0.000438
    20  H    0.129435  -0.000396
    21  H    0.129452  -0.000468
    22  H    0.154013   0.009055
    23  H    0.128704  -0.000127
    24  H    0.084805   0.039415
    25  H    0.170671  -0.011774
    26  H    0.096362   0.005665
    27  H    0.262460  -0.001041
 Sum of Mulliken charges =  -1.00000   1.00000

 Dipole moment (field-independent basis, Debye):
    X=              6.1248    Y=              0.6214    Z=             -0.0043  Tot=              6.1563
 Quadrupole moment (field-independent basis, Debye-Ang):
   XX=           -127.1665   YY=           -110.4955   ZZ=            -97.1919
   XY=            -11.8787   XZ=             -0.0216   YZ=             -0.0059

 Summary of Natural Population Analysis:

                                       Natural Population
                Natural  -----------------------------------------------
    Atom  No    Charge         Core      Valence    Rydberg      Total
 -----------------------------------------------------------------------
      C    1   -0.27574      0.99964     2.27075    0.00535     3.27574
      C    2   -0.05283      0.99957     2.04413    0.00912     3.05283
      C    3   -0.28330      0.99964     2.27806    0.00560     3.28330
      C    4   -0.27574      0.99964     2.27075    0.00535     3.27574
      C    5    0.03145      0.99943     1.95746    0.01167     2.96855
      C    6    0.11159      0.99925     1.87787    0.01129     2.88841
      C    7    0.17927      0.99925     1.80927    0.01220     2.82073
      C    8   -0.07366      0.99940     2.06460    0.00966     3.07366
      C    9   -0.04651      0.99957     2.03803    0.00891     3.04651
      C   10   -0.13880      0.99956     2.13154    0.00770     3.13880
      C   11    0.43592      0.99967     1.54091    0.02350     2.56408
      O   12   -0.29974      0.99987     3.29342    0.00645     4.29974
      O   13   -0.35154      0.99988     3.34398    0.00768     4.35154
      O   14   -0.11576      0.99990     3.10837    0.00749     4.11576
      O   15   -0.14237      0.99990     3.13430    0.00816     4.14237
      H   16    0.08922      0.00000     0.40989    0.00089     0.41078
      H   17    0.10265      0.00000     0.39642    0.00094     0.39735
      H   18    0.09974      0.00000     0.39953    0.00073     0.40026
      H   19    0.09281      0.00000     0.40634    0.00085     0.40719
      H   20    0.10008      0.00000     0.39903    0.00088     0.39992
      H   21    0.10008      0.00000     0.39904    0.00088     0.39992
      H   22    0.10266      0.00000     0.39640    0.00094     0.39734
      H   23    0.09975      0.00000     0.39952    0.00073     0.40025
      H   24    0.08923      0.00000     0.40988    0.00089     0.41077
      H   25    0.10217      0.00000     0.39665    0.00118     0.39783
      H   26    0.09339      0.00000     0.40554    0.00108     0.40661
      H   27    0.22596      0.00000     0.26877    0.00527     0.27404
 =======================================================================
   * Total *    0.00000     14.99416    39.85043    0.15541    55.00000

 Normal termination of Gaussian 16 at Thu Dec 10 17:16:47 2020.
