 Gaussian 16, Revision A.03,

 -----------------------------------------------------------
 # opt freq B3LYP/6-31G(d) empiricaldispersion=gd3bj scf=xqc
 -----------------------------------------------------------

 ------------------------------
 CID_80593294_JID_5896_neutraal
 ------------------------------
 Symbolic Z-matrix:
 Charge =  0 Multiplicity = 1

 SCF Done:  E(RB3LYP) =  -1014.18170558     A.U. after   15 cycles
 SCF Done:  E(RB3LYP) =  -1014.18620753     A.U. after   14 cycles
 SCF Done:  E(RB3LYP) =  -1014.18758393     A.U. after   14 cycles
 SCF Done:  E(RB3LYP) =  -1014.18916630     A.U. after   13 cycles
 SCF Done:  E(RB3LYP) =  -1014.18945665     A.U. after   13 cycles
 SCF Done:  E(RB3LYP) =  -1014.19048463     A.U. after   13 cycles
 SCF Done:  E(RB3LYP) =  -1014.19146658     A.U. after   13 cycles
 SCF Done:  E(RB3LYP) =  -1014.19188595     A.U. after   13 cycles
 SCF Done:  E(RB3LYP) =  -1014.19213465     A.U. after   12 cycles
 SCF Done:  E(RB3LYP) =  -1014.19231941     A.U. after   12 cycles
 SCF Done:  E(RB3LYP) =  -1014.19251523     A.U. after    9 cycles
 SCF Done:  E(RB3LYP) =  -1014.19252359     A.U. after    9 cycles
 SCF Done:  E(RB3LYP) =  -1014.19252100     A.U. after    8 cycles
 SCF Done:  E(RB3LYP) =  -1014.19252055     A.U. after    8 cycles
 SCF Done:  E(RB3LYP) =  -1014.19251835     A.U. after    7 cycles
 SCF Done:  E(RB3LYP) =  -1014.19251856     A.U. after    7 cycles
 Optimization completed.
    -- Stationary point found.
 Normal termination of Gaussian 16 at Thu Dec 10 17:41:16 2020.

 --------------------------------------------------------------------
 #N Geom=AllCheck Guess=TCheck SCRF=Check GenChk RB3LYP/6-31G(d) Freq
 --------------------------------------------------------------------

 Structure from the checkpoint file:  "JID_5896.chk"
 ------------------------------
 CID_80593294_JID_5896_neutraal
 ------------------------------
 Charge =  0 Multiplicity = 1

 SCF Done:  E(RB3LYP) =  -1014.19251856     A.U. after    1 cycles

  Exact polarizability: 152.939  -0.997 142.055  -7.725   6.260 138.869
 Approx polarizability: 206.610  -2.300 222.139 -24.736  17.814 222.665

                      1                      2                      3
                      A                      A                      A
 Frequencies --     21.1889                27.1897                44.6990
 Red. masses --      3.2453                 4.0299                 3.5391
 Frc consts  --      0.0009                 0.0018                 0.0042
 IR Inten    --      1.6465                 0.7859                 0.5346

                      4                      5                      6
                      A                      A                      A
 Frequencies --     50.9705                72.8194                90.1144
 Red. masses --      5.7010                 5.0694                 3.0105
 Frc consts  --      0.0087                 0.0158                 0.0144
 IR Inten    --      1.4913                 3.2772                 2.9295

                      7                      8                      9
                      A                      A                      A
 Frequencies --    131.0028               155.4036               187.4865
 Red. masses --      3.9800                 4.5728                 3.3126
 Frc consts  --      0.0402                 0.0651                 0.0686
 IR Inten    --      0.3261                 1.3138                 0.0478

                     10                     11                     12
                      A                      A                      A
 Frequencies --    225.0177               238.9131               241.7629
 Red. masses --      1.6643                 1.0760                 1.4973
 Frc consts  --      0.0497                 0.0362                 0.0516
 IR Inten    --      0.2374                 0.7838                 0.8110

                     13                     14                     15
                      A                      A                      A
 Frequencies --    258.6942               272.2006               293.8443
 Red. masses --      1.3294                 2.1518                 3.0221
 Frc consts  --      0.0524                 0.0939                 0.1537
 IR Inten    --      0.7449                10.7475                 9.9287

                     16                     17                     18
                      A                      A                      A
 Frequencies --    317.6308               336.1456               355.0611
 Red. masses --      2.1688                 3.0687                 1.4735
 Frc consts  --      0.1289                 0.2043                 0.1094
 IR Inten    --      2.0965                14.8229               172.1240

                     19                     20                     21
                      A                      A                      A
 Frequencies --    386.2595               396.8394               406.1718
 Red. masses --      2.7289                 2.5891                 3.7220
 Frc consts  --      0.2399                 0.2402                 0.3618
 IR Inten    --      4.7993                11.3929                17.0305

                     22                     23                     24
                      A                      A                      A
 Frequencies --    419.9206               437.0578               486.6669
 Red. masses --      2.4425                 3.0131                 2.2314
 Frc consts  --      0.2538                 0.3391                 0.3114
 IR Inten    --      1.9855                 3.3819                 3.5925

                     25                     26                     27
                      A                      A                      A
 Frequencies --    528.8795               566.5171               604.8380
 Red. masses --      4.3485                 2.4529                 1.4335
 Frc consts  --      0.7166                 0.4638                 0.3090
 IR Inten    --      6.0580                36.9216                52.4370

                     28                     29                     30
                      A                      A                      A
 Frequencies --    632.7655               663.6080               670.8287
 Red. masses --      1.2996                 3.9653                 5.1505
 Frc consts  --      0.3066                 1.0289                 1.3656
 IR Inten    --     29.3795                14.8957                 1.5094

                     31                     32                     33
                      A                      A                      A
 Frequencies --    745.0213               788.2153               830.1393
 Red. masses --      5.8740                 1.1817                 2.2613
 Frc consts  --      1.9210                 0.4326                 0.9181
 IR Inten    --     13.6674                 1.0474                 1.2480

                     34                     35                     36
                      A                      A                      A
 Frequencies --    841.7006               858.4996               896.2431
 Red. masses --      1.9654                 1.8091                 3.6446
 Frc consts  --      0.8204                 0.7856                 1.7248
 IR Inten    --      5.7876                 1.7051                25.3657

                     37                     38                     39
                      A                      A                      A
 Frequencies --    913.2784               937.4456               945.5116
 Red. masses --      1.5590                 3.1186                 1.1730
 Frc consts  --      0.7661                 1.6147                 0.6178
 IR Inten    --      1.4334                 2.3161                 1.1997

                     40                     41                     42
                      A                      A                      A
 Frequencies --    969.4327               978.0312               982.8834
 Red. masses --      1.8804                 1.4731                 1.3076
 Frc consts  --      1.0412                 0.8302                 0.7442
 IR Inten    --      5.1075                 2.0784                 3.1877

                     43                     44                     45
                      A                      A                      A
 Frequencies --    990.2983              1003.7747              1046.7599
 Red. masses --      1.8096                 2.1691                 1.4034
 Frc consts  --      1.0456                 1.2877                 0.9060
 IR Inten    --     15.2094                19.1874                 0.3503

                     46                     47                     48
                      A                      A                      A
 Frequencies --   1072.3517              1100.2630              1100.5501
 Red. masses --      1.2491                 1.6181                 2.0420
 Frc consts  --      0.8463                 1.1541                 1.4572
 IR Inten    --      7.8980                 4.5574                 2.0669

                     49                     50                     51
                      A                      A                      A
 Frequencies --   1168.6664              1197.7956              1204.5314
 Red. masses --      2.2208                 1.9393                 2.4845
 Frc consts  --      1.7871                 1.6393                 2.1239
 IR Inten    --      3.8693                22.7754                 7.3402

                     52                     53                     54
                      A                      A                      A
 Frequencies --   1207.6191              1210.4135              1219.8554
 Red. masses --      1.3498                 1.8413                 2.1137
 Frc consts  --      1.1598                 1.5895                 1.8532
 IR Inten    --      2.9783                 1.3892                22.4256

                     55                     56                     57
                      A                      A                      A
 Frequencies --   1257.6203              1280.6411              1325.8399
 Red. masses --      3.0040                 1.3949                 1.2850
 Frc consts  --      2.7993                 1.3478                 1.3309
 IR Inten    --     12.9429                 2.9214                 5.0877

                     58                     59                     60
                      A                      A                      A
 Frequencies --   1349.6775              1365.8300              1374.9135
 Red. masses --      2.9884                 1.4688                 1.3272
 Frc consts  --      3.2074                 1.6144                 1.4782
 IR Inten    --    185.9357                19.2354                 4.6987

                     61                     62                     63
                      A                      A                      A
 Frequencies --   1390.8639              1394.6996              1412.3821
 Red. masses --      1.3100                 3.4961                 2.3721
 Frc consts  --      1.4931                 4.0067                 2.7880
 IR Inten    --      5.6601               139.7702                73.6222

                     64                     65                     66
                      A                      A                      A
 Frequencies --   1417.6622              1430.0337              1439.4290
 Red. masses --      2.0757                 1.2778                 1.2564
 Frc consts  --      2.4578                 1.5396                 1.5337
 IR Inten    --     88.4824                10.5384                 9.1161

                     67                     68                     69
                      A                      A                      A
 Frequencies --   1449.4593              1481.9324              1499.2762
 Red. masses --      1.2378                 1.0948                 1.4669
 Frc consts  --      1.5322                 1.4166                 1.9427
 IR Inten    --      4.8018                 4.9458                36.5655

                     70                     71                     72
                      A                      A                      A
 Frequencies --   1508.5681              1518.4990              1518.8062
 Red. masses --      1.0926                 1.2097                 1.1061
 Frc consts  --      1.4650                 1.6435                 1.5033
 IR Inten    --      2.1029                 6.4089                 0.8200

                     73                     74                     75
                      A                      A                      A
 Frequencies --   1525.3612              1528.7462              1530.8381
 Red. masses --      1.0522                 1.0880                 1.0756
 Frc consts  --      1.4424                 1.4982                 1.4851
 IR Inten    --      1.4828                 2.6851                 8.4888

                     76                     77                     78
                      A                      A                      A
 Frequencies --   1535.6063              1543.8795              1656.1683
 Red. masses --      1.0592                 1.0550                 1.2509
 Frc consts  --      1.4716                 1.4816                 2.0216
 IR Inten    --      4.3548                19.8576               154.6040

                     79                     80                     81
                      A                      A                      A
 Frequencies --   1775.8293              3023.0190              3027.3693
 Red. masses --      8.3731                 1.0589                 1.0648
 Frc consts  --     15.5574                 5.7014                 5.7497
 IR Inten    --    372.3210                18.9258                11.5683

                     82                     83                     84
                      A                      A                      A
 Frequencies --   3033.2394              3041.6863              3048.4026
 Red. masses --      1.0563                 1.0394                 1.0422
 Frc consts  --      5.7262                 5.6660                 5.7061
 IR Inten    --     17.3158                31.6666                19.1800

                     85                     86                     87
                      A                      A                      A
 Frequencies --   3063.2716              3097.5710              3106.6081
 Red. masses --      1.1010                 1.0958                 1.0999
 Frc consts  --      6.0871                 6.1947                 6.2544
 IR Inten    --     36.7415                12.6572                62.7329

                     88                     89                     90
                      A                      A                      A
 Frequencies --   3114.3976              3116.5303              3118.2965
 Red. masses --      1.1028                 1.0954                 1.1010
 Frc consts  --      6.3021                 6.2684                 6.3076
 IR Inten    --     22.8259                11.7495                65.1537

                     91                     92                     93
                      A                      A                      A
 Frequencies --   3145.4607              3146.9965              3167.9467
 Red. masses --      1.1027                 1.0552                 1.0833
 Frc consts  --      6.4277                 6.1573                 6.4055
 IR Inten    --     15.6097                16.1119                18.8796

                     94                     95                     96
                      A                      A                      A
 Frequencies --   3170.3772              3227.3544              3265.8475
 Red. masses --      1.0544                 1.1169                 1.1181
 Frc consts  --      6.2444                 6.8545                 7.0265
 IR Inten    --      8.7987                 6.8757                 0.2970

                     97                     98                     99
                      A                      A                      A
 Frequencies --   3570.9352              3576.1617              3695.0704
 Red. masses --      1.0445                 1.0751                 1.1045
 Frc consts  --      7.8470                 8.1011                 8.8850
 IR Inten    --     34.0803                16.6787                35.5030

 - Thermochemistry -
 -------------------
 Temperature   298.150 Kelvin.  Pressure   1.00000 Atm.
 Atom     1 has atomic number  6 and mass  12.00000

 Molecular mass:   228.12964 amu.
 Principal axes and moments of inertia in atomic units:
                           1         2         3
     Eigenvalues --  2596.113735058.470265161.98539
           X            0.99990   0.01068   0.00884
           Y           -0.01300   0.94391   0.32995
           Z           -0.00482  -0.33004   0.94396
 This molecule is an asymmetric top.
 Rotational symmetry number  1.
 Warning -- assumption of classical behavior for rotation
           may cause significant error
 Rotational temperatures (Kelvin)      0.03336     0.01712     0.01678
 Rotational constants (GHZ):           0.69517     0.35678     0.34962
 Zero-point vibrational energy     801491.3 (Joules/Mol)
                                  191.56102 (Kcal/Mol)
 Warning -- explicit consideration of  27 degrees of freedom as
           vibrations may cause significant error
 Vibrational temperatures:     30.49    39.12    64.31    73.34   104.77
          (Kelvin)            129.65   188.48   223.59   269.75   323.75
                              343.74   347.84   372.20   391.64   422.78
                              457.00   483.64   510.85   555.74   570.96
                              584.39   604.17   628.83   700.21   760.94
                              815.09   870.23   910.41   954.78   965.17
                             1071.92  1134.07  1194.39  1211.02  1235.19
                             1289.49  1314.00  1348.78  1360.38  1394.80
                             1407.17  1414.15  1424.82  1444.21  1506.05
                             1542.87  1583.03  1583.45  1681.45  1723.36
                             1733.05  1737.49  1741.51  1755.10  1809.44
                             1842.56  1907.59  1941.88  1965.12  1978.19
                             2001.14  2006.66  2032.10  2039.70  2057.50
                             2071.02  2085.45  2132.17  2157.12  2170.49
                             2184.78  2185.22  2194.65  2199.52  2202.53
                             2209.40  2221.30  2382.86  2555.02  4349.45
                             4355.71  4364.15  4376.31  4385.97  4407.36
                             4456.71  4469.72  4480.92  4483.99  4486.53
                             4525.62  4527.83  4557.97  4561.47  4643.44
                             4698.83  5137.78  5145.30  5316.38

 Zero-point correction=                           0.305272 (Hartree/Particle)
 Thermal correction to Energy=                    0.322824
 Thermal correction to Enthalpy=                  0.323768
 Thermal correction to Gibbs Free Energy=         0.258457
 Sum of electronic and zero-point Energies=          -1013.887247
 Sum of electronic and thermal Energies=             -1013.869695
 Sum of electronic and thermal Enthalpies=           -1013.868751
 Sum of electronic and thermal Free Energies=        -1013.934061

                     E (Thermal)             CV                S
                      KCal/Mol        Cal/Mol-Kelvin    Cal/Mol-Kelvin
 Total                  202.575             65.126            137.458
 Electronic               0.000              0.000              0.000
 Translational            0.889              2.981             42.176
 Rotational               0.889              2.981             32.583
 Vibrational            200.798             59.165             62.698
 Vibration     1          0.593              1.985              6.520
 Vibration     2          0.593              1.984              6.025
 Vibration     3          0.595              1.980              5.039
 Vibration     4          0.595              1.977              4.779
 Vibration     5          0.599              1.967              4.076
 Vibration     6          0.602              1.956              3.658
 Vibration     7          0.612              1.922              2.931
 Vibration     8          0.620              1.897              2.605
 Vibration     9          0.632              1.857              2.253
 Vibration    10          0.650              1.803              1.918
 Vibration    11          0.657              1.781              1.811
 Vibration    12          0.658              1.776              1.790
 Vibration    13          0.668              1.748              1.671
 Vibration    14          0.675              1.725              1.582
 Vibration    15          0.689              1.685              1.452
 Vibration    16          0.704              1.640              1.322
 Vibration    17          0.717              1.603              1.230
 Vibration    18          0.731              1.565              1.144
 Vibration    19          0.755              1.500              1.015
 Vibration    20          0.763              1.477              0.974
 Vibration    21          0.771              1.457              0.940
 Vibration    22          0.783              1.427              0.892
 Vibration    23          0.797              1.389              0.836
 Vibration    24          0.843              1.280              0.692
 Vibration    25          0.884              1.186              0.590
 Vibration    26          0.922              1.104              0.511
 Vibration    27          0.963              1.022              0.441

                           ! Non-Optimized Parameters !
 Normal termination of Gaussian 16 at Thu Dec 10 17:54:13 2020.

 ----------------------------------------------------------------------
 # B3LYP/6-311++G(d,p) empiricaldispersion=gd3bj scf=xqc pop=npa geom=c
 heck
 ----------------------------------------------------------------------

 --------------------------------------
 CID_80593294_JID_5896_Energie_neutraal
 --------------------------------------
 Structure from the checkpoint file:  "JID_5896.chk"
 Charge =  0 Multiplicity = 1

 SCF Done:  E(RB3LYP) =  -1014.40172394     A.U. after   15 cycles
 Normal termination of Gaussian 16 at Thu Dec 10 18:00:00 2020.

 ----------------------------------------------------------------------
 # B3LYP/6-311++G(d,p) empiricaldispersion=gd3bj scf=xqc pop=npa geom=c
 heck
 ----------------------------------------------------------------------

 ------------------------------------
 CID_80593294_JID_5896_Energie_kation
 ------------------------------------
 Structure from the checkpoint file:  "JID_5896.chk"
 Charge =  1 Multiplicity = 2

 SCF Done:  E(UB3LYP) =  -1014.10704849     A.U. after   28 cycles
 Normal termination of Gaussian 16 at Thu Dec 10 18:13:01 2020.
 Gaussian 16:  ES64L-G16RevA.03 25-Dec-2016

 ----------------------------------------------------------------------
 # B3LYP/6-311++G(d,p) empiricaldispersion=gd3bj scf=xqc pop=npa geom=c
 heck
 ----------------------------------------------------------------------

 -----------------------------------
 CID_80593294_JID_5896_Energie_anion
 -----------------------------------
 Structure from the checkpoint file:  "JID_5896.chk"
 Charge = -1 Multiplicity = 2

                         Standard orientation:
 ---------------------------------------------------------------------
 Center     Atomic      Atomic             Coordinates (Angstroms)
 Number     Number       Type             X           Y           Z
 ---------------------------------------------------------------------
      1          6           0       -2.598932   -0.672575    1.590029
      2          6           0       -3.162761   -0.152190    0.260129
      3          6           0       -4.301425    0.843896    0.513687
      4          6           0       -2.074518    0.502864   -0.607899
      5          6           0       -0.900263   -0.406882   -1.015002
      6          6           0       -1.303720   -1.552159   -1.943467
      7          7           0        0.154003    0.377069   -1.654409
      8          6           0        1.198829    1.033742   -1.074356
      9          8           0        1.813909    1.908439   -1.673365
     10          6           0        1.528209    0.694554    0.377328
     11          6           0        2.559286    1.618245    0.998609
     12          6           0        1.119448    1.790648    1.362451
     13          6           0        1.636908   -0.745819    0.774225
     14         16           0        2.420114   -1.862856   -0.177181
     15          7           0        1.120142   -1.070934    1.979972
     16          1           0       -2.123435    0.145546    2.149318
     17          1           0       -1.853482   -1.461640    1.444812
     18          1           0       -3.396024   -1.083125    2.219744
     19          1           0       -3.582189   -1.006721   -0.288756
     20          1           0       -3.936998    1.718926    1.067110
     21          1           0       -4.733958    1.201785   -0.427497
     22          1           0       -5.104671    0.387102    1.102947
     23          1           0       -2.533022    0.910530   -1.520191
     24          1           0       -1.661976    1.362096   -0.060716
     25          1           0       -0.470426   -0.846567   -0.117277
     26          1           0       -1.722464   -1.165408   -2.881557
     27          1           0       -0.429707   -2.166008   -2.178021
     28          1           0       -2.061915   -2.189087   -1.477841
     29          1           0       -0.028089    0.701888   -2.597587
     30          1           0        3.219458    1.174214    1.736429
     31          1           0        3.011783    2.318208    0.305360
     32          1           0        0.580975    2.631683    0.936106
     33          1           0        0.802993    1.527771    2.368334
     34          1           0        0.477727   -0.458979    2.462990
     35          1           0        1.186951   -2.032917    2.284771
 ---------------------------------------------------------------------

 SCF Done:  E(UB3LYP) =  -1014.40231702     A.U. after   31 cycles

 The electronic state is 2-A.
 Alpha  occ. eigenvalues --  -88.65830 -18.97859 -14.22497 -14.22053 -10.16639
 Alpha  occ. eigenvalues --  -10.11058 -10.10814 -10.09453 -10.08727 -10.08044
 Alpha  occ. eigenvalues --  -10.07146 -10.06907 -10.06553 -10.06179 -10.06075
 Alpha  occ. eigenvalues --   -7.74590  -5.70938  -5.70485  -5.70145  -0.93171
 Alpha  occ. eigenvalues --   -0.82819  -0.81807  -0.76197  -0.71798  -0.66095
 Alpha  occ. eigenvalues --   -0.62366  -0.59076  -0.58859  -0.54843  -0.51931
 Alpha  occ. eigenvalues --   -0.51114  -0.49466  -0.46383  -0.44585  -0.43340
 Alpha  occ. eigenvalues --   -0.39633  -0.38451  -0.37816  -0.36782  -0.34940
 Alpha  occ. eigenvalues --   -0.34363  -0.32602  -0.32436  -0.30429  -0.29934
 Alpha  occ. eigenvalues --   -0.29364  -0.28745  -0.28163  -0.27444  -0.26870
 Alpha  occ. eigenvalues --   -0.25624  -0.24795  -0.24353  -0.23939  -0.22965
 Alpha  occ. eigenvalues --   -0.22645  -0.20865  -0.18883  -0.15428  -0.14489
 Alpha  occ. eigenvalues --   -0.10708  -0.08253   0.03973
 Alpha virt. eigenvalues --    0.06059   0.07049   0.07816   0.07935   0.09356
 Alpha virt. eigenvalues --    0.09602   0.09951   0.10439   0.10538   0.11714
 Alpha virt. eigenvalues --    0.11965   0.12482   0.12729   0.12971   0.13111

  Beta  occ. eigenvalues --  -88.65813 -18.97852 -14.22493 -14.21940 -10.16615
  Beta  occ. eigenvalues --  -10.10812 -10.10482 -10.09496 -10.08720 -10.08034
  Beta  occ. eigenvalues --  -10.07080 -10.06899 -10.06528 -10.06156 -10.06031
  Beta  occ. eigenvalues --   -7.74574  -5.70949  -5.70409  -5.70134  -0.93148
  Beta  occ. eigenvalues --   -0.82441  -0.81717  -0.76106  -0.71771  -0.66066
  Beta  occ. eigenvalues --   -0.61782  -0.59004  -0.58822  -0.54744  -0.51882
  Beta  occ. eigenvalues --   -0.51016  -0.49129  -0.46324  -0.44514  -0.43151
  Beta  occ. eigenvalues --   -0.39560  -0.38403  -0.37730  -0.36690  -0.34887
  Beta  occ. eigenvalues --   -0.34288  -0.32550  -0.32407  -0.30390  -0.29823
  Beta  occ. eigenvalues --   -0.29312  -0.28641  -0.27919  -0.27013  -0.26638
  Beta  occ. eigenvalues --   -0.25508  -0.24388  -0.24079  -0.23851  -0.22909
  Beta  occ. eigenvalues --   -0.22450  -0.20640  -0.18571  -0.15399  -0.14463
  Beta  occ. eigenvalues --   -0.09864  -0.08198
  Beta virt. eigenvalues --    0.06309   0.07304   0.07993   0.08221   0.09359
  Beta virt. eigenvalues --    0.09453   0.09962   0.10198   0.10581   0.10669
  Beta virt. eigenvalues --    0.11796   0.12220   0.12596   0.12750   0.13028

 Mulliken charges and spin densities:
               1          2
     1  C    0.236923  -0.909926
     2  C   -0.951770   1.322048
     3  C    0.658149  -1.318503
     4  C    0.200662  -0.817669
     5  C   -0.461995   0.366317
     6  C   -0.246174  -0.244738
     7  N   -0.022717   0.047824
     8  C   -0.463832   0.082192
     9  O   -0.318240   0.002853
    10  C    0.509125   0.139185
    11  C   -0.230874  -0.088294
    12  C   -0.155060  -0.218892
    13  C    0.015897   0.241459
    14  S   -0.688817   0.153885
    15  N   -0.295866   0.084653
    16  H   -0.007618   0.138699
    17  H   -0.244114   0.403955
    18  H   -0.424694   0.574650
    19  H    0.103106   0.035183
    20  H    0.010590   0.117156
    21  H   -0.177433   0.305198
    22  H   -0.215238   0.359203
    23  H    0.089665   0.057395
    24  H    0.166668   0.000369
    25  H    0.728561  -0.551446
    26  H   -0.050575   0.177772
    27  H    0.053862   0.121947
    28  H   -0.049625   0.207857
    29  H    0.242565   0.048894
    30  H    0.171724  -0.019013
    31  H    0.178121   0.029511
    32  H    0.148823   0.017521
    33  H    0.057820   0.070012
    34  H    0.193148   0.018984
    35  H    0.239231   0.043758
 Sum of Mulliken charges =  -1.00000   1.00000

 Dipole moment (field-independent basis, Debye):
    X=             -0.8302    Y=              2.7375    Z=              1.3142  Tot=              3.1480
 Quadrupole moment (field-independent basis, Debye-Ang):
   XX=           -171.4362   YY=           -137.4494   ZZ=           -126.8716
   XY=              3.0317   XZ=             14.6486   YZ=              5.0240

 Summary of Natural Population Analysis:

                                       Natural Population
                Natural  -----------------------------------------------
    Atom  No    Charge         Core      Valence    Rydberg      Total
 -----------------------------------------------------------------------
      C    1   -0.28690      0.99965     2.28028    0.00697     3.28690
      C    2   -0.11694      0.99961     2.10797    0.00936     3.11694
      C    3   -0.27993      0.99965     2.27543    0.00485     3.27993
      C    4   -0.18815      0.99959     2.17915    0.00940     3.18815
      C    5   -0.02352      0.99957     2.01203    0.01192     3.02352
      C    6   -0.28604      0.99964     2.28170    0.00471     3.28604
      N    7   -0.31042      0.99965     2.80047    0.01030     3.81042
      C    8    0.36456      0.99960     1.61236    0.02348     2.63544
      O    9   -0.33141      0.99988     3.32601    0.00553     4.33141
      C   10   -0.11186      0.99943     2.09865    0.01377     3.11186
      C   11   -0.16674      0.99960     2.15845    0.00870     3.16674
      C   12   -0.19310      0.99961     2.18486    0.00863     3.19310
      C   13    0.13936      0.99958     1.83949    0.02157     2.86064
      S   14   -0.12492      4.99953     3.11221    0.01318     8.12492
      N   15   -0.37601      0.99966     2.86514    0.01121     3.87601
      H   16    0.09280      0.00000     0.40587    0.00133     0.40720
      H   17    0.10334      0.00000     0.39515    0.00151     0.39666
      H   18    0.10080      0.00000     0.39801    0.00119     0.39920
      H   19    0.09284      0.00000     0.40516    0.00200     0.40716
      H   20    0.09483      0.00000     0.40414    0.00103     0.40517
      H   21    0.09798      0.00000     0.40097    0.00105     0.40202
      H   22    0.09936      0.00000     0.39962    0.00102     0.40064
      H   23    0.09543      0.00000     0.40345    0.00113     0.40457
      H   24    0.09814      0.00000     0.40043    0.00143     0.40186
      H   25    0.11321      0.00000     0.38350    0.00329     0.38679
      H   26    0.09253      0.00000     0.40652    0.00095     0.40747
      H   27    0.11327      0.00000     0.38594    0.00080     0.38673
      H   28    0.10059      0.00000     0.39846    0.00096     0.39941
      H   29    0.18784      0.00000     0.30968    0.00249     0.31216
      H   30    0.10395      0.00000     0.39531    0.00074     0.39605
      H   31    0.11599      0.00000     0.38268    0.00133     0.38401
      H   32    0.10584      0.00000     0.39312    0.00104     0.39416
      H   33    0.09781      0.00000     0.40108    0.00110     0.40219
      H   34    0.18903      0.00000     0.30907    0.00190     0.31097
      H   35    0.19644      0.00000     0.30197    0.00159     0.30356
 =======================================================================
   * Total *   -0.00000     18.99426    42.81430    0.19144    62.00000

 Normal termination of Gaussian 16 at Thu Dec 10 18:27:05 2020.
