 Gaussian 16, Revision A.03,

 -----------------------------------------------------------
 # opt freq B3LYP/6-31G(d) empiricaldispersion=gd3bj scf=xqc
 -----------------------------------------------------------

 ------------------------------
 CID_123984808_JID_646_neutraal
 ------------------------------
 Symbolic Z-matrix:
 Charge =  0 Multiplicity = 1

 SCF Done:  E(RB3LYP) =  -421.569504179     A.U. after   14 cycles
 SCF Done:  E(RB3LYP) =  -421.572399696     A.U. after   11 cycles
 SCF Done:  E(RB3LYP) =  -421.572677830     A.U. after   12 cycles
 SCF Done:  E(RB3LYP) =  -421.572725865     A.U. after   10 cycles
 SCF Done:  E(RB3LYP) =  -421.572743793     A.U. after   10 cycles
 SCF Done:  E(RB3LYP) =  -421.572761360     A.U. after   11 cycles
 SCF Done:  E(RB3LYP) =  -421.572771734     A.U. after   10 cycles
 SCF Done:  E(RB3LYP) =  -421.572774466     A.U. after    8 cycles
 SCF Done:  E(RB3LYP) =  -421.572774904     A.U. after    8 cycles
 Optimization completed.
    -- Stationary point found.

 1\1\GINC-NODE311\FOpt\RB3LYP\6-31G(d)\C8H12N2\VSC10255\08-Dec-2020\0\\
 # opt freq B3LYP/6-31G(d) empiricaldispersion=gd3bj scf=xqc\\CID_12398
 4808_JID_646_neutraal\\0,1\C,-1.6518533433,-1.3851397933,0.3898519251\
 C,-2.6009734412,-0.5040893626,-0.4419196245\N,-2.4402870367,0.93863685
 98,-0.1918020555\C,-1.1248797862,1.3454220811,0.3256678609\C,-0.014918
 3359,0.4734189358,-0.2653515493\C,-0.2295987678,-0.981406657,0.1103244
 115\C,0.8382923472,-1.7955371466,0.1140582008\C,2.1642183779,-1.242734
 6957,-0.1909076798\N,2.4673724446,0.0026330786,-0.1947070901\C,1.38219

 Normal termination of Gaussian 16 at Tue Dec  8 12:17:59 2020.

 --------------------------------------------------------------------
 #N Geom=AllCheck Guess=TCheck SCRF=Check GenChk RB3LYP/6-31G(d) Freq
 --------------------------------------------------------------------

 Structure from the checkpoint file:  "JID_646.chk"
 ------------------------------
 CID_123984808_JID_646_neutraal
 ------------------------------
 Charge =  0 Multiplicity = 1

 SCF Done:  E(RB3LYP) =  -421.572774904     A.U. after    1 cycles

  Exact polarizability: 110.534  -1.693  97.033   3.230  -0.893  62.497
 Approx polarizability: 155.851  -1.363 147.665   6.094  -0.187  97.948

                      1                      2                      3
                      A                      A                      A
 Frequencies --     91.5174               153.3939               177.5426
 Red. masses --      2.7505                 3.3116                 2.0851
 Frc consts  --      0.0136                 0.0459                 0.0387
 IR Inten    --      1.8582                 1.5954                 5.2990

                      4                      5                      6
                      A                      A                      A
 Frequencies --    240.4592               323.2770               327.7694
 Red. masses --      2.2485                 3.2757                 2.2190
 Frc consts  --      0.0766                 0.2017                 0.1405
 IR Inten    --      2.6551                 1.7972                 3.3635

                      7                      8                      9
                      A                      A                      A
 Frequencies --    425.4181               455.2384               509.3436
 Red. masses --      5.2676                 3.8979                 2.5410
 Frc consts  --      0.5617                 0.4759                 0.3884
 IR Inten    --      3.0709                 0.8043                 7.3056

                     10                     11                     12
                      A                      A                      A
 Frequencies --    521.1968               589.6522               616.4161
 Red. masses --      3.2870                 2.2663                 3.0251
 Frc consts  --      0.5261                 0.4643                 0.6772
 IR Inten    --      2.8485                24.4984                 9.3559

                     13                     14                     15
                      A                      A                      A
 Frequencies --    715.5815               753.9096               807.8330
 Red. masses --      1.8944                 2.6756                 2.6438
 Frc consts  --      0.5715                 0.8960                 1.0165
 IR Inten    --     49.3658                35.0101                23.3286

                     16                     17                     18
                      A                      A                      A
 Frequencies --    852.0628               884.3888               904.7546
 Red. masses --      1.3297                 2.0628                 1.7236
 Frc consts  --      0.5688                 0.9506                 0.8313
 IR Inten    --     17.3108                 2.5793                 4.0338

                     19                     20                     21
                      A                      A                      A
 Frequencies --    938.4532               955.3303               983.7287
 Red. masses --      2.3759                 2.3194                 1.9136
 Frc consts  --      1.2328                 1.2472                 1.0911
 IR Inten    --      2.7564                 4.7973                 1.7760

                     22                     23                     24
                      A                      A                      A
 Frequencies --   1002.5686              1043.3386              1062.1325
 Red. masses --      2.2148                 2.2151                 1.7442
 Frc consts  --      1.3116                 1.4207                 1.1593
 IR Inten    --      7.7791                12.6671                 2.1675

                     25                     26                     27
                      A                      A                      A
 Frequencies --   1097.8770              1106.8210              1132.6853
 Red. masses --      2.0815                 2.6213                 2.2912
 Frc consts  --      1.4782                 1.8920                 1.7319
 IR Inten    --      3.8877                 0.4010                 8.1895

                     28                     29                     30
                      A                      A                      A
 Frequencies --   1159.4624              1202.4606              1230.6169
 Red. masses --      3.7081                 1.9193                 1.3211
 Frc consts  --      2.9371                 1.6351                 1.1788
 IR Inten    --     18.3763                 5.0377                 9.5122

                     31                     32                     33
                      A                      A                      A
 Frequencies --   1243.4569              1249.0702              1272.3089
 Red. masses --      1.3975                 1.2160                 1.3064
 Frc consts  --      1.2731                 1.1178                 1.2460
 IR Inten    --     12.4714                 1.4511                 1.5544

                     34                     35                     36
                      A                      A                      A
 Frequencies --   1315.8777              1349.1074              1368.1180
 Red. masses --      1.2244                 1.3066                 1.4823
 Frc consts  --      1.2492                 1.4012                 1.6346
 IR Inten    --      0.9647                 1.3596                 5.9623

                     37                     38                     39
                      A                      A                      A
 Frequencies --   1383.6221              1397.5161              1406.1619
 Red. masses --      1.3671                 1.2947                 1.4288
 Frc consts  --      1.5420                 1.4899                 1.6645
 IR Inten    --     11.0424                 6.8930                 7.5668

                     40                     41                     42
                      A                      A                      A
 Frequencies --   1422.6019              1426.2507              1494.4991
 Red. masses --      1.5163                 1.5206                 1.1016
 Frc consts  --      1.8080                 1.8225                 1.4497
 IR Inten    --      1.8085                22.5588                 4.7510

                     43                     44                     45
                      A                      A                      A
 Frequencies --   1508.1659              1510.4346              1541.0696
 Red. masses --      1.1663                 1.1581                 1.0841
 Frc consts  --      1.5630                 1.5567                 1.5169
 IR Inten    --      6.3445                 1.9195                 1.1485

                     46                     47                     48
                      A                      A                      A
 Frequencies --   1556.1722              1667.9457              1738.0190
 Red. masses --      1.0836                 8.7707                 7.0493
 Frc consts  --      1.5460                14.3763                12.5460
 IR Inten    --      3.0420                64.2354                26.2301

                     49                     50                     51
                      A                      A                      A
 Frequencies --   2946.5853              2981.7121              2996.3477
 Red. masses --      1.0740                 1.0769                 1.0750
 Frc consts  --      5.4940                 5.6408                 5.6866
 IR Inten    --     53.4359                 3.6264                61.4939

                     52                     53                     54
                      A                      A                      A
 Frequencies --   3011.0106              3030.4892              3054.2109
 Red. masses --      1.0703                 1.0684                 1.0886
 Frc consts  --      5.7172                 5.7811                 5.9831
 IR Inten    --     12.3116                64.9460                43.1256

                     55                     56                     57
                      A                      A                      A
 Frequencies --   3082.6649              3090.4319              3096.7444
 Red. masses --      1.0947                 1.0909                 1.0956
 Frc consts  --      6.1289                 6.1388                 6.1904
 IR Inten    --     31.2760                44.0465                43.2657

                     58                     59                     60
                      A                      A                      A
 Frequencies --   3117.1765              3180.7136              3531.4263
 Red. masses --      1.0885                 1.0918                 1.0752
 Frc consts  --      6.2316                 6.5081                 7.9004
 IR Inten    --     61.1726                23.9773                 0.7709

 - Thermochemistry -
 -------------------
 Temperature   298.150 Kelvin.  Pressure   1.00000 Atm.
 Atom     1 has atomic number  6 and mass  12.00000

 Molecular mass:   136.10005 amu.
 Principal axes and moments of inertia in atomic units:
                           1         2         3
     Eigenvalues --   655.297011644.265502163.79070
           X            0.99999   0.00400   0.00207
           Y           -0.00398   0.99994  -0.01033
           Z           -0.00212   0.01033   0.99994
 This molecule is an asymmetric top.
 Rotational symmetry number  1.
 Warning -- assumption of classical behavior for rotation
           may cause significant error
 Rotational temperatures (Kelvin)      0.13218     0.05268     0.04003
 Rotational constants (GHZ):           2.75408     1.09760     0.83406
 Zero-point vibrational energy     509819.4 (Joules/Mol)
                                  121.84975 (Kcal/Mol)
 Warning -- explicit consideration of  12 degrees of freedom as
           vibrations may cause significant error
 Vibrational temperatures:    131.67   220.70   255.44   345.97   465.12
          (Kelvin)            471.59   612.08   654.99   732.83   749.89
                              848.38   886.89  1029.56  1084.71  1162.29
                             1225.93  1272.44  1301.74  1350.22  1374.51
                             1415.37  1442.47  1501.13  1528.17  1579.60
                             1592.47  1629.68  1668.21  1730.07  1770.58
                             1789.06  1797.13  1830.57  1893.25  1941.06
                             1968.42  1990.72  2010.71  2023.15  2046.81
                             2052.06  2150.25  2169.91  2173.18  2217.26
                             2238.98  2399.80  2500.62  4239.48  4290.02
                             4311.08  4332.17  4360.20  4394.33  4435.27
                             4446.44  4455.52  4484.92  4576.34  5080.93

 Zero-point correction=                           0.194180 (Hartree/Particle)
 Thermal correction to Energy=                    0.202495
 Thermal correction to Enthalpy=                  0.203439
 Thermal correction to Gibbs Free Energy=         0.161141
 Sum of electronic and zero-point Energies=           -421.378595
 Sum of electronic and thermal Energies=              -421.370280
 Sum of electronic and thermal Enthalpies=            -421.369336
 Sum of electronic and thermal Free Energies=         -421.411634

                     E (Thermal)             CV                S
                      KCal/Mol        Cal/Mol-Kelvin    Cal/Mol-Kelvin
 Total                  127.067             33.276             89.023
 Electronic               0.000              0.000              0.000
 Translational            0.889              2.981             40.637
 Rotational               0.889              2.981             29.235
 Vibrational            125.290             27.314             19.152
 Vibration     1          0.602              1.955              3.627
 Vibration     2          0.619              1.899              2.630
 Vibration     3          0.628              1.870              2.354
 Vibration     4          0.658              1.778              1.799
 Vibration     5          0.708              1.629              1.293
 Vibration     6          0.711              1.620              1.271
 Vibration     7          0.787              1.415              0.874
 Vibration     8          0.814              1.349              0.780
 Vibration     9          0.864              1.229              0.635
 Vibration    10          0.876              1.203              0.607
 Vibration    11          0.947              1.054              0.468
 Vibration    12          0.976              0.997              0.422

                           ! Non-Optimized Parameters !

 1\1\GINC-NODE311\Freq\RB3LYP\6-31G(d)\C8H12N2\VSC10255\08-Dec-2020\0\\
 #N Geom=AllCheck Guess=TCheck SCRF=Check GenChk RB3LYP/6-31G(d) Freq\\
 CID_123984808_JID_646_neutraal\\0,1\C,-1.6518533433,-1.3851397933,0.38
 98519251\C,-2.6009734412,-0.5040893626,-0.4419196245\N,-2.4402870367,0
 .9386368598,-0.1918020555\C,-1.1248797862,1.3454220811,0.3256678609\C,
 -0.0149183359,0.4734189358,-0.2653515493\C,-0.2295987678,-0.981406657,
 0.1103244115\C,0.8382923472,-1.7955371466,0.1140582008\C,2.1642183779,
 -1.2427346957,-0.1909076798\N,2.4673724446,0.0026330786,-0.1947070901\

 Normal termination of Gaussian 16 at Tue Dec  8 12:23:33 2020.

 ----------------------------------------------------------------------
 # B3LYP/6-311++G(d,p) empiricaldispersion=gd3bj scf=xqc pop=npa geom=c
 heck
 ----------------------------------------------------------------------

 --------------------------------------
 CID_123984808_JID_646_Energie_neutraal
 --------------------------------------
 Structure from the checkpoint file:  "JID_646.chk"
 Charge =  0 Multiplicity = 1

 SCF Done:  E(RB3LYP) =  -421.688845593     A.U. after   15 cycles
 Normal termination of Gaussian 16 at Tue Dec  8 12:25:23 2020.

 ----------------------------------------------------------------------
 # B3LYP/6-311++G(d,p) empiricaldispersion=gd3bj scf=xqc pop=npa geom=c
 heck
 ----------------------------------------------------------------------

 ------------------------------------
 CID_123984808_JID_646_Energie_kation
 ------------------------------------
 Structure from the checkpoint file:  "JID_646.chk"
 Charge =  1 Multiplicity = 2

 SCF Done:  E(UB3LYP) =  -421.386035740     A.U. after   30 cycles
 Normal termination of Gaussian 16 at Tue Dec  8 12:40:05 2020.
 Gaussian 16:  ES64L-G16RevA.03 25-Dec-2016

 -----------------------------------
 CID_123984808_JID_646_Energie_anion
 -----------------------------------
 Structure from the checkpoint file:  "JID_646.chk"
 Charge = -1 Multiplicity = 2

                         Standard orientation:
 ---------------------------------------------------------------------
 Center     Atomic      Atomic             Coordinates (Angstroms)
 Number     Number       Type             X           Y           Z
 ---------------------------------------------------------------------
      1          6           0        1.240706    1.403166    0.395109
      2          6           0        2.311569    0.686076   -0.446293
      3          7           0        2.378091   -0.765784   -0.206469
      4          6           0        1.144128   -1.375607    0.312178
      5          6           0       -0.090403   -0.682638   -0.268714
      6          6           0       -0.102746    0.785250    0.117152
      7          6           0       -1.284139    1.423488    0.130425
      8          6           0       -2.509382    0.673462   -0.174396
      9          7           0       -2.615365   -0.603831   -0.186544
     10          6           0       -1.398943   -1.345879    0.167310
     11          1           0        1.486747    1.282500    1.461461
     12          1           0        1.230761    2.480636    0.192940
     13          1           0        3.300295    1.115530   -0.256340
     14          1           0        2.093025    0.866516   -1.507925
     15          1           0        3.142854   -0.974524    0.427238
     16          1           0        1.136228   -2.439603    0.043554
     17          1           0        1.070062   -1.326124    1.414010
     18          1           0       -0.016391   -0.737107   -1.368079
     19          1           0       -1.358456    2.488315    0.339617
     20          1           0       -3.414034    1.246643   -0.394778
     21          1           0       -1.400463   -1.468856    1.263960
     22          1           0       -1.474456   -2.350526   -0.261201
 ---------------------------------------------------------------------

 SCF Done:  E(UB3LYP) =  -421.683356875     A.U. after   30 cycles

 The electronic state is 2-A.
 Alpha  occ. eigenvalues --  -14.17163 -14.13717 -10.06858 -10.06732 -10.05429
 Alpha  occ. eigenvalues --  -10.04886 -10.04249 -10.04021 -10.02623 -10.01577
 Alpha  occ. eigenvalues --   -0.78608  -0.76898  -0.66814  -0.63867  -0.59556
 Alpha  occ. eigenvalues --   -0.53619  -0.49972  -0.47156  -0.42082  -0.38118
 Alpha  occ. eigenvalues --   -0.37425  -0.34503  -0.33056  -0.31321  -0.29739
 Alpha  occ. eigenvalues --   -0.27883  -0.27482  -0.26229  -0.24931  -0.23790
 Alpha  occ. eigenvalues --   -0.23009  -0.20576  -0.19286  -0.18038  -0.10042
 Alpha  occ. eigenvalues --   -0.09803  -0.09380   0.05234
 Alpha virt. eigenvalues --    0.07716   0.09508   0.09655   0.10450   0.11152
 Alpha virt. eigenvalues --    0.11931   0.12467   0.12526   0.13695   0.14302
 Alpha virt. eigenvalues --    0.15264   0.15555   0.17601   0.18041   0.18712

  Beta  occ. eigenvalues --  -14.17145 -14.13389 -10.06844 -10.06698 -10.05427
  Beta  occ. eigenvalues --  -10.04781 -10.04272 -10.04043 -10.02241 -10.01583
  Beta  occ. eigenvalues --   -0.78480  -0.76477  -0.66347  -0.63777  -0.59347
  Beta  occ. eigenvalues --   -0.53542  -0.49792  -0.46829  -0.41829  -0.37977
  Beta  occ. eigenvalues --   -0.37208  -0.34285  -0.32900  -0.31103  -0.29592
  Beta  occ. eigenvalues --   -0.27662  -0.27368  -0.26127  -0.24704  -0.23652
  Beta  occ. eigenvalues --   -0.22746  -0.20383  -0.19005  -0.17095  -0.09885
  Beta  occ. eigenvalues --   -0.09445  -0.08165
  Beta virt. eigenvalues --    0.08493   0.09552   0.09790   0.10062   0.11163
  Beta virt. eigenvalues --    0.11439   0.12219   0.12530   0.12842   0.13765
  Beta virt. eigenvalues --    0.14529   0.15256   0.15735   0.17857   0.18179

 Mulliken charges and spin densities:
               1          2
     1  C   -0.345175  -0.003357
     2  C    0.436908  -0.909872
     3  N   -0.253356   0.161492
     4  C   -0.249362  -0.501724
     5  C    0.077532   0.199650
     6  C    0.662582   0.130949
     7  C   -0.050661  -0.189703
     8  C   -0.434168   0.185077
     9  N   -0.080661   0.139474
    10  C   -0.562439  -0.202075
    11  H   -0.273242   0.442509
    12  H    0.092137   0.034873
    13  H   -0.827142   1.010645
    14  H    0.247486  -0.121356
    15  H   -0.077773   0.308727
    16  H    0.187832  -0.030159
    17  H   -0.142310   0.274309
    18  H    0.167160   0.020449
    19  H    0.101225   0.002684
    20  H    0.118022  -0.010822
    21  H    0.065800   0.053844
    22  H    0.139606   0.004385
 Sum of Mulliken charges =  -1.00000   1.00000

 Dipole moment (field-independent basis, Debye):
    X=             -1.8002    Y=             -0.4968    Z=             -1.7830  Tot=              2.5820
 Quadrupole moment (field-independent basis, Debye-Ang):
   XX=           -120.7689   YY=            -76.9359   ZZ=            -80.5562
   XY=             -6.3289   XZ=             -6.2202   YZ=             -3.7159

 Summary of Natural Population Analysis:

                                       Natural Population
                Natural  -----------------------------------------------
    Atom  No    Charge         Core      Valence    Rydberg      Total
 -----------------------------------------------------------------------
      C    1   -0.21657      0.99959     2.20785    0.00914     3.21657
      C    2   -0.08230      0.99963     2.07032    0.01235     3.08230
      N    3   -0.34630      0.99975     2.83349    0.01306     3.84630
      C    4   -0.08033      0.99960     2.06818    0.01254     3.08033
      C    5   -0.13965      0.99955     2.13084    0.00926     3.13965
      C    6    0.09470      0.99949     1.89501    0.01080     2.90530
      C    7   -0.16358      0.99944     2.15434    0.00980     3.16358
      C    8    0.05687      0.99963     1.92559    0.01792     2.94313
      N    9   -0.20320      0.99971     2.69166    0.01182     3.70320
      C   10   -0.09525      0.99960     2.08235    0.01330     3.09525
      H   11    0.10948      0.00000     0.38622    0.00430     0.39052
      H   12    0.10002      0.00000     0.39905    0.00093     0.39998
      H   13    0.09654      0.00000     0.40088    0.00258     0.40346
      H   14    0.08112      0.00000     0.41747    0.00141     0.41888
      H   15    0.17601      0.00000     0.32083    0.00316     0.32399
      H   16    0.08677      0.00000     0.41188    0.00135     0.41323
      H   17    0.08001      0.00000     0.41829    0.00170     0.41999
      H   18    0.10352      0.00000     0.39496    0.00152     0.39648
      H   19    0.09278      0.00000     0.40585    0.00138     0.40722
      H   20    0.07273      0.00000     0.42565    0.00162     0.42727
      H   21    0.08854      0.00000     0.40975    0.00171     0.41146
      H   22    0.08808      0.00000     0.41070    0.00122     0.41192
 =======================================================================
   * Total *    0.00000      9.99598    26.86117    0.14286    37.00000

 Normal termination of Gaussian 16 at Tue Dec  8 12:50:17 2020.
