 Gaussian 16, Revision A.03,

 -----------------------------------------------------------
 # opt freq B3LYP/6-31G(d) empiricaldispersion=gd3bj scf=xqc
 -----------------------------------------------------------

 -------------------------------
 CID_116814397_JID_6082_neutraal
 -------------------------------
 Symbolic Z-matrix:
 Charge =  0 Multiplicity = 1

 SCF Done:  E(RB3LYP) =  -1146.36378710     A.U. after   14 cycles
 SCF Done:  E(RB3LYP) =  -1146.37027309     A.U. after   12 cycles
 SCF Done:  E(RB3LYP) =  -1146.37043251     A.U. after   13 cycles
 SCF Done:  E(RB3LYP) =  -1146.37065813     A.U. after   13 cycles
 SCF Done:  E(RB3LYP) =  -1146.37118371     A.U. after   12 cycles
 SCF Done:  E(RB3LYP) =  -1146.37118188     A.U. after   12 cycles
 SCF Done:  E(RB3LYP) =  -1146.37134232     A.U. after   11 cycles
 SCF Done:  E(RB3LYP) =  -1146.37135697     A.U. after   10 cycles
 SCF Done:  E(RB3LYP) =  -1146.37137546     A.U. after   11 cycles
 SCF Done:  E(RB3LYP) =  -1146.37138548     A.U. after   11 cycles
 SCF Done:  E(RB3LYP) =  -1146.37139429     A.U. after   11 cycles
 SCF Done:  E(RB3LYP) =  -1146.37140267     A.U. after   11 cycles
 SCF Done:  E(RB3LYP) =  -1146.37140313     A.U. after    9 cycles
 SCF Done:  E(RB3LYP) =  -1146.37140330     A.U. after    9 cycles
 SCF Done:  E(RB3LYP) =  -1146.37140334     A.U. after    7 cycles
 Optimization completed.
    -- Stationary point found.
 Normal termination of Gaussian 16 at Thu Dec 10 21:13:54 2020.

 --------------------------------------------------------------------
 #N Geom=AllCheck Guess=TCheck SCRF=Check GenChk RB3LYP/6-31G(d) Freq
 --------------------------------------------------------------------

 Structure from the checkpoint file:  "JID_6082.chk"
 -------------------------------
 CID_116814397_JID_6082_neutraal
 -------------------------------
 Charge =  0 Multiplicity = 1

 SCF Done:  E(RB3LYP) =  -1146.37140334     A.U. after    1 cycles

  Exact polarizability: 153.596   1.840 127.185   5.654   3.433 123.516
 Approx polarizability: 187.105  -1.615 196.903  13.020   6.377 200.779

                      1                      2                      3
                      A                      A                      A
 Frequencies --     18.1260                43.7542                50.1366
 Red. masses --      7.9190                 4.8656                 3.5494
 Frc consts  --      0.0015                 0.0055                 0.0053
 IR Inten    --      2.0802                 1.8078                 2.0061

                      4                      5                      6
                      A                      A                      A
 Frequencies --     59.6785                84.5252               119.7264
 Red. masses --      3.4221                 3.8093                 4.3702
 Frc consts  --      0.0072                 0.0160                 0.0369
 IR Inten    --      1.6132                 0.0197                 2.0281

                      7                      8                      9
                      A                      A                      A
 Frequencies --    137.3366               178.8558               203.3139
 Red. masses --      3.8249                 3.0416                 3.8471
 Frc consts  --      0.0425                 0.0573                 0.0937
 IR Inten    --      1.4735                 2.1017                 2.3672

                     10                     11                     12
                      A                      A                      A
 Frequencies --    216.9676               230.9832               237.9827
 Red. masses --      3.6427                 2.9622                 1.2545
 Frc consts  --      0.1010                 0.0931                 0.0419
 IR Inten    --      0.5162                 1.4349                 0.2544

                     13                     14                     15
                      A                      A                      A
 Frequencies --    253.7386               285.8553               295.4031
 Red. masses --      1.3623                 3.1164                 2.7028
 Frc consts  --      0.0517                 0.1500                 0.1390
 IR Inten    --      0.2011                 0.2744                 5.1242

                     16                     17                     18
                      A                      A                      A
 Frequencies --    326.9148               339.2833               373.8077
 Red. masses --      3.5434                 3.0774                 2.2960
 Frc consts  --      0.2231                 0.2087                 0.1890
 IR Inten    --      3.7546                 2.2926                 2.9366

                     19                     20                     21
                      A                      A                      A
 Frequencies --    396.7070               424.8179               441.3210
 Red. masses --      2.9113                 2.2722                 3.7153
 Frc consts  --      0.2699                 0.2416                 0.4263
 IR Inten    --      2.3317                 0.7208                 1.0266

                     22                     23                     24
                      A                      A                      A
 Frequencies --    450.4161               484.7645               504.6127
 Red. masses --      3.0070                 4.6710                 5.0989
 Frc consts  --      0.3594                 0.6467                 0.7650
 IR Inten    --      7.2375                46.6710                28.7916

                     25                     26                     27
                      A                      A                      A
 Frequencies --    513.7925               586.7268               621.8211
 Red. masses --      3.6807                 2.5952                 2.9648
 Frc consts  --      0.5725                 0.5264                 0.6754
 IR Inten    --     15.0489                21.0516                39.7097

                     28                     29                     30
                      A                      A                      A
 Frequencies --    655.2790               709.7133               745.3337
 Red. masses --      1.6899                 3.1743                 3.1036
 Frc consts  --      0.4275                 0.9420                 1.0158
 IR Inten    --     63.2267                67.2932                 4.2043

                     31                     32                     33
                      A                      A                      A
 Frequencies --    806.9962               819.5718               840.4822
 Red. masses --      2.4222                 3.7419                 2.3301
 Frc consts  --      0.9294                 1.4809                 0.9698
 IR Inten    --     64.1374                10.6720                 2.6585

                     34                     35                     36
                      A                      A                      A
 Frequencies --    847.9202               864.9231               914.1723
 Red. masses --      1.9619                 2.8350                 2.0730
 Frc consts  --      0.8311                 1.2495                 1.0207
 IR Inten    --      2.9603                22.3311                50.2959

                     37                     38                     39
                      A                      A                      A
 Frequencies --    934.7905               945.4683               965.3642
 Red. masses --      1.5862                 1.1831                 1.9437
 Frc consts  --      0.8166                 0.6231                 1.0672
 IR Inten    --     40.4054                 6.2565                 6.3923

                     40                     41                     42
                      A                      A                      A
 Frequencies --    973.9862               981.9479               991.5586
 Red. masses --      2.2004                 1.4793                 2.0007
 Frc consts  --      1.2299                 0.8404                 1.1590
 IR Inten    --      1.8657                 0.4394                 5.4387

                     43                     44                     45
                      A                      A                      A
 Frequencies --   1052.7326              1061.3188              1074.6139
 Red. masses --      2.5891                 2.9697                 1.9643
 Frc consts  --      1.6906                 1.9708                 1.3365
 IR Inten    --     12.6890                10.5929                15.6839

                     46                     47                     48
                      A                      A                      A
 Frequencies --   1099.0371              1121.7419              1140.7377
 Red. masses --      1.9592                 3.5836                 2.6348
 Frc consts  --      1.3943                 2.6568                 2.0201
 IR Inten    --     20.2929                88.7050               137.3125

                     49                     50                     51
                      A                      A                      A
 Frequencies --   1150.3405              1170.2193              1188.9166
 Red. masses --      2.1109                 1.8662                 2.1383
 Frc consts  --      1.6457                 1.5057                 1.7809
 IR Inten    --     36.2003                21.9050               181.6474

                     52                     53                     54
                      A                      A                      A
 Frequencies --   1208.4987              1209.6847              1228.9132
 Red. masses --      1.9085                 1.9545                 1.4623
 Frc consts  --      1.6422                 1.6851                 1.3012
 IR Inten    --     22.2773                 7.7608                13.1767

                     55                     56                     57
                      A                      A                      A
 Frequencies --   1274.4331              1284.3150              1305.2903
 Red. masses --      1.4020                 1.4668                 3.3214
 Frc consts  --      1.3416                 1.4255                 3.3341
 IR Inten    --     11.8550                30.2486               106.8000

                     58                     59                     60
                      A                      A                      A
 Frequencies --   1322.7610              1327.0919              1346.9353
 Red. masses --      1.3456                 1.3501                 1.3246
 Frc consts  --      1.3871                 1.4009                 1.4159
 IR Inten    --      1.2044                18.3754                 2.6005

                     61                     62                     63
                      A                      A                      A
 Frequencies --   1353.4449              1379.4720              1391.5279
 Red. masses --      1.3695                 1.4368                 1.3687
 Frc consts  --      1.4781                 1.6110                 1.5615
 IR Inten    --     21.1858                10.1322                 3.2471

                     64                     65                     66
                      A                      A                      A
 Frequencies --   1398.2449              1410.7918              1412.7319
 Red. masses --      1.2614                 1.4811                 1.4074
 Frc consts  --      1.4530                 1.7368                 1.6549
 IR Inten    --      6.1744                11.9666                 1.2584

                     67                     68                     69
                      A                      A                      A
 Frequencies --   1428.4948              1432.0747              1452.1841
 Red. masses --      1.3808                 1.2732                 1.2317
 Frc consts  --      1.6601                 1.5385                 1.5304
 IR Inten    --     10.9581                 6.3575                 6.2563

                     70                     71                     72
                      A                      A                      A
 Frequencies --   1460.6762              1481.3285              1508.6432
 Red. masses --      1.6156                 1.0942                 1.0875
 Frc consts  --      2.0310                 1.4146                 1.4583
 IR Inten    --     16.5297                 5.0878                 5.3345

                     73                     74                     75
                      A                      A                      A
 Frequencies --   1513.8934              1516.5567              1522.5767
 Red. masses --      1.0791                 1.0863                 1.0556
 Frc consts  --      1.4571                 1.4720                 1.4418
 IR Inten    --      1.8309                 5.1533                 1.6157

                     76                     77                     78
                      A                      A                      A
 Frequencies --   1526.9102              1534.1317              1536.0057
 Red. masses --      1.0611                 1.0865                 1.0602
 Frc consts  --      1.4576                 1.5066                 1.4738
 IR Inten    --      4.5033                 3.8266                 1.6623

                     79                     80                     81
                      A                      A                      A
 Frequencies --   1546.6548              1839.3891              3015.0682
 Red. masses --      1.0451                 9.2691                 1.0829
 Frc consts  --      1.4730                18.4771                 5.8000
 IR Inten    --     12.0558               216.9708                21.0475

                     82                     83                     84
                      A                      A                      A
 Frequencies --   3040.6704              3041.8974              3047.8898
 Red. masses --      1.0371                 1.0685                 1.0391
 Frc consts  --      5.6493                 5.8252                 5.6872
 IR Inten    --     29.8441                 4.6121                25.2035

                     85                     86                     87
                      A                      A                      A
 Frequencies --   3055.3925              3057.2709              3063.8298
 Red. masses --      1.0602                 1.0591                 1.0614
 Frc consts  --      5.8311                 5.8325                 5.8703
 IR Inten    --     13.8380                23.9540                26.6264

                     88                     89                     90
                      A                      A                      A
 Frequencies --   3092.7216              3098.0475              3098.7922
 Red. masses --      1.0669                 1.0972                 1.1024
 Frc consts  --      6.0125                 6.2046                 6.2371
 IR Inten    --      8.1859                10.8068                12.5389

                     91                     92                     93
                      A                      A                      A
 Frequencies --   3106.2826              3110.5444              3111.3028
 Red. masses --      1.1021                 1.1024                 1.1022
 Frc consts  --      6.2652                 6.2842                 6.2860
 IR Inten    --     12.6001                26.0813                41.5816

                     94                     95                     96
                      A                      A                      A
 Frequencies --   3115.4505              3129.2862              3155.8637
 Red. masses --      1.1020                 1.1002                 1.1058
 Frc consts  --      6.3017                 6.3477                 6.4886
 IR Inten    --     60.3224                29.0260                 5.3327

                     97                     98                     99
                      A                      A                      A
 Frequencies --   3156.1510              3163.3823              3668.6395
 Red. masses --      1.0875                 1.0944                 1.0638
 Frc consts  --      6.3827                 6.4524                 8.4354
 IR Inten    --      1.4255                 0.7567                50.6029

 - Thermochemistry -
 -------------------
 Temperature   298.150 Kelvin.  Pressure   1.00000 Atm.
 Atom     1 has atomic number  6 and mass  12.00000

 Molecular mass:   249.10348 amu.
 Principal axes and moments of inertia in atomic units:
                           1         2         3
     Eigenvalues --  2547.881305401.008906067.53678
           X            0.99910   0.04230  -0.00196
           Y           -0.04230   0.99910  -0.00209
           Z            0.00187   0.00217   1.00000
 This molecule is an asymmetric top.
 Rotational symmetry number  1.
 Warning -- assumption of classical behavior for rotation
           may cause significant error
 Rotational temperatures (Kelvin)      0.03399     0.01604     0.01427
 Rotational constants (GHZ):           0.70833     0.33415     0.29744
 Zero-point vibrational energy     786070.2 (Joules/Mol)
                                  187.87529 (Kcal/Mol)
 Warning -- explicit consideration of  26 degrees of freedom as
           vibrations may cause significant error
 Vibrational temperatures:     26.08    62.95    72.14    85.86   121.61
          (Kelvin)            172.26   197.60   257.33   292.52   312.17
                              332.33   342.40   365.07   411.28   425.02
                              470.36   488.15   537.83   570.77   611.22
                              634.96   648.05   697.47   726.03   739.23
                              844.17   894.66   942.80  1021.12  1072.37
                             1161.09  1179.18  1209.27  1219.97  1244.43
                             1315.29  1344.95  1360.32  1388.94  1401.35
                             1412.80  1426.63  1514.65  1527.00  1546.13
                             1581.27  1613.94  1641.27  1655.08  1683.68
                             1710.59  1738.76  1740.47  1768.13  1833.62
                             1847.84  1878.02  1903.16  1909.39  1937.94
                             1947.31  1984.75  2002.10  2011.76  2029.81
                             2032.61  2055.29  2060.44  2089.37  2101.59
                             2131.30  2170.60  2178.15  2181.99  2190.65
                             2196.88  2207.27  2209.97  2225.29  2646.47
                             4338.01  4374.85  4376.61  4385.23  4396.03
                             4398.73  4408.17  4449.74  4457.40  4458.47
                             4469.25  4475.38  4476.47  4482.44  4502.34
                             4540.58  4541.00  4551.40  5278.35

 Zero-point correction=                           0.299398 (Hartree/Particle)
 Thermal correction to Energy=                    0.316446
 Thermal correction to Enthalpy=                  0.317390
 Thermal correction to Gibbs Free Energy=         0.253503
 Sum of electronic and zero-point Energies=          -1146.072005
 Sum of electronic and thermal Energies=             -1146.054958
 Sum of electronic and thermal Enthalpies=           -1146.054013
 Sum of electronic and thermal Free Energies=        -1146.117901

                     E (Thermal)             CV                S
                      KCal/Mol        Cal/Mol-Kelvin    Cal/Mol-Kelvin
 Total                  198.573             64.040            134.462
 Electronic               0.000              0.000              0.000
 Translational            0.889              2.981             42.439
 Rotational               0.889              2.981             32.790
 Vibrational            196.795             58.079             59.233
 Vibration     1          0.593              1.986              6.830
 Vibration     2          0.595              1.980              5.081
 Vibration     3          0.595              1.978              4.812
 Vibration     4          0.597              1.974              4.468
 Vibration     5          0.601              1.960              3.783
 Vibration     6          0.609              1.933              3.105
 Vibration     7          0.614              1.916              2.841
 Vibration     8          0.629              1.868              2.340
 Vibration     9          0.639              1.835              2.103
 Vibration    10          0.646              1.815              1.984
 Vibration    11          0.653              1.794              1.871
 Vibration    12          0.656              1.782              1.818
 Vibration    13          0.665              1.756              1.704
 Vibration    14          0.684              1.700              1.498
 Vibration    15          0.690              1.682              1.443
 Vibration    16          0.711              1.622              1.275
 Vibration    17          0.719              1.597              1.216
 Vibration    18          0.745              1.526              1.064
 Vibration    19          0.763              1.477              0.975
 Vibration    20          0.787              1.416              0.876
 Vibration    21          0.801              1.380              0.822
 Vibration    22          0.809              1.360              0.795
 Vibration    23          0.841              1.284              0.697
 Vibration    24          0.860              1.240              0.647
 Vibration    25          0.869              1.219              0.625
 Vibration    26          0.944              1.060              0.473

 Optimization completed.
    -- Stationary point found.
 Normal termination of Gaussian 16 at Thu Dec 10 21:26:26 2020.

 ----------------------------------------------------------------------
 # B3LYP/6-311++G(d,p) empiricaldispersion=gd3bj scf=xqc pop=npa geom=c
 heck
 ----------------------------------------------------------------------

 ---------------------------------------
 CID_116814397_JID_6082_Energie_neutraal
 ---------------------------------------
 Structure from the checkpoint file:  "JID_6082.chk"
 Charge =  0 Multiplicity = 1

 SCF Done:  E(RB3LYP) =  -1146.62184951     A.U. after   16 cycles
 Normal termination of Gaussian 16 at Thu Dec 10 21:32:34 2020.

 ----------------------------------------------------------------------
 # B3LYP/6-311++G(d,p) empiricaldispersion=gd3bj scf=xqc pop=npa geom=c
 heck
 ----------------------------------------------------------------------

 -------------------------------------
 CID_116814397_JID_6082_Energie_kation
 -------------------------------------
 Structure from the checkpoint file:  "JID_6082.chk"
 Charge =  1 Multiplicity = 2

 SCF Done:  E(UB3LYP) =  -1146.29353609     A.U. after   25 cycles
 Normal termination of Gaussian 16 at Thu Dec 10 21:47:14 2020.
 Gaussian 16:  ES64L-G16RevA.03 25-Dec-2016

 ----------------------------------------------------------------------
 # B3LYP/6-311++G(d,p) empiricaldispersion=gd3bj scf=xqc pop=npa geom=c
 heck
 ----------------------------------------------------------------------

 ------------------------------------
 CID_116814397_JID_6082_Energie_anion
 ------------------------------------
 Structure from the checkpoint file:  "JID_6082.chk"
 Charge = -1 Multiplicity = 2

                         Standard orientation:
 ---------------------------------------------------------------------
 Center     Atomic      Atomic             Coordinates (Angstroms)
 Number     Number       Type             X           Y           Z
 ---------------------------------------------------------------------
      1          6           0       -3.323698   -1.319157   -0.757163
      2          6           0       -3.052342   -0.482918    0.500640
      3          6           0       -3.757597   -1.087755    1.720968
      4          6           0       -1.548502   -0.343112    0.794847
      5          6           0       -0.728402    0.312113   -0.332540
      6          6           0       -1.233149    1.722047   -0.612191
      7          8           0       -1.091381    2.684825    0.111249
      8          8           0       -1.919620    1.782193   -1.774406
      9          7           0        0.722966    0.384497   -0.064006
     10          6           0        1.171773    0.926666    1.240535
     11          6           0        2.614246    1.425056    1.129113
     12          6           0        3.598924    0.317656    0.731296
     13          6           0        3.219079   -0.342884   -0.598165
     14         16           0        1.555061   -1.036225   -0.497599
     15          8           0        1.544611   -2.018890    0.599996
     16          8           0        1.081292   -1.430089   -1.828626
     17          1           0       -2.849726   -2.305467   -0.676982
     18          1           0       -2.946652   -0.834420   -1.662709
     19          1           0       -4.400052   -1.474854   -0.891398
     20          1           0       -3.467699    0.523059    0.338907
     21          1           0       -3.384339   -2.099743    1.922136
     22          1           0       -3.590027   -0.483804    2.620310
     23          1           0       -4.838647   -1.157113    1.556176
     24          1           0       -1.417051    0.242703    1.712008
     25          1           0       -1.116606   -1.334198    0.980038
     26          1           0       -0.832347   -0.263042   -1.251803
     27          1           0       -2.242001    2.700669   -1.856562
     28          1           0        1.081246    0.172014    2.033262
     29          1           0        0.507011    1.759163    1.469886
     30          1           0        2.914007    1.851993    2.093112
     31          1           0        2.644981    2.233601    0.388441
     32          1           0        3.629722   -0.454237    1.508403
     33          1           0        4.612398    0.724065    0.636481
     34          1           0        3.870150   -1.185895   -0.847471
     35          1           0        3.202701    0.363044   -1.432350
 ---------------------------------------------------------------------

 SCF Done:  E(UB3LYP) =  -1146.61187532     A.U. after   33 cycles
 SCF Done:  E(UB3LYP) =  -1146.61187532     a.u. after    1 cycles

 The electronic state is 2-A.
 Alpha  occ. eigenvalues --  -88.96963 -19.08440 -19.03181 -19.03073 -19.02724
 Alpha  occ. eigenvalues --  -14.25941 -10.22241 -10.13957 -10.12291 -10.11726
 Alpha  occ. eigenvalues --  -10.09520 -10.09352 -10.08797 -10.08690 -10.07782
 Alpha  occ. eigenvalues --  -10.07169  -8.03257  -5.99531  -5.99492  -5.99319
 Alpha  occ. eigenvalues --   -1.02958  -1.02587  -0.93715  -0.91855  -0.85742
 Alpha  occ. eigenvalues --   -0.74653  -0.72516  -0.67937  -0.66927  -0.60244
 Alpha  occ. eigenvalues --   -0.59367  -0.57687  -0.55430  -0.51439  -0.48355
 Alpha  occ. eigenvalues --   -0.46443  -0.44363  -0.42745  -0.40836  -0.40565
 Alpha  occ. eigenvalues --   -0.39274  -0.39027  -0.37456  -0.36832  -0.36420
 Alpha  occ. eigenvalues --   -0.35270  -0.34986  -0.34405  -0.32812  -0.31878
 Alpha  occ. eigenvalues --   -0.31368  -0.30458  -0.29298  -0.29168  -0.27657
 Alpha  occ. eigenvalues --   -0.27357  -0.26233  -0.25377  -0.25318  -0.24905
 Alpha  occ. eigenvalues --   -0.24545  -0.24024  -0.23329  -0.21863  -0.21416
 Alpha  occ. eigenvalues --   -0.19855  -0.16688   0.03952
 Alpha virt. eigenvalues --    0.05325   0.06340   0.07237   0.07503   0.08314
 Alpha virt. eigenvalues --    0.08473   0.08802   0.09511   0.10146   0.10747
 Alpha virt. eigenvalues --    0.11091   0.11498   0.11807   0.12562   0.12897

  Beta  occ. eigenvalues --  -88.96963 -19.08384 -19.03162 -19.03071 -19.02717
  Beta  occ. eigenvalues --  -14.25936 -10.22230 -10.13948 -10.12270 -10.11719
  Beta  occ. eigenvalues --  -10.09486 -10.09343 -10.08793 -10.08667 -10.07769
  Beta  occ. eigenvalues --  -10.07158  -8.03256  -5.99531  -5.99491  -5.99319
  Beta  occ. eigenvalues --   -1.02942  -1.02518  -0.93652  -0.91844  -0.85730
  Beta  occ. eigenvalues --   -0.74623  -0.72487  -0.67905  -0.66890  -0.60219
  Beta  occ. eigenvalues --   -0.59328  -0.57625  -0.55377  -0.51360  -0.48319
  Beta  occ. eigenvalues --   -0.46391  -0.44341  -0.42706  -0.40799  -0.40534
  Beta  occ. eigenvalues --   -0.39241  -0.39002  -0.37433  -0.36789  -0.36393
  Beta  occ. eigenvalues --   -0.35243  -0.34952  -0.34363  -0.32761  -0.31848
  Beta  occ. eigenvalues --   -0.31338  -0.30443  -0.29271  -0.29145  -0.27628
  Beta  occ. eigenvalues --   -0.27322  -0.26198  -0.25356  -0.25291  -0.24887
  Beta  occ. eigenvalues --   -0.24518  -0.23967  -0.23320  -0.21849  -0.21392
  Beta  occ. eigenvalues --   -0.19818  -0.16671
  Beta virt. eigenvalues --    0.06069   0.06647   0.07297   0.07510   0.07884
  Beta virt. eigenvalues --    0.08606   0.08819   0.09141   0.09896   0.10553
  Beta virt. eigenvalues --    0.10999   0.11242   0.11550   0.12010   0.12709

 Mulliken charges and spin densities:
               1          2
     1  C   -0.056514  -0.653786
     2  C   -0.781962   1.265032
     3  C   -0.330143  -0.364219
     4  C    0.206958  -0.511437
     5  C    0.037216  -0.862468
     6  C   -0.041719  -0.110350
     7  O   -0.264646   0.033841
     8  O   -0.130955   0.057632
     9  N    0.142480   0.150019
    10  C   -0.334282  -0.072435
    11  C    0.633439  -0.975749
    12  C    0.092490  -0.345692
    13  C   -0.221671  -0.469903
    14  S    0.815539  -0.377100
    15  O   -0.174586   0.000828
    16  O   -0.082736   0.020755
    17  H    0.128358   0.021470
    18  H    0.073338   0.081692
    19  H   -0.044625   0.188187
    20  H   -0.198978   0.413718
    21  H    0.108370   0.028436
    22  H    0.004667   0.126101
    23  H   -0.136662   0.291225
    24  H    0.167085  -0.004392
    25  H    0.158125   0.018719
    26  H    0.493759  -0.155091
    27  H   -0.528296   0.822659
    28  H    0.103944   0.096384
    29  H    0.214023   0.008522
    30  H   -0.258509   0.429295
    31  H    0.052686   0.124504
    32  H    0.222481  -0.047154
    33  H   -0.996853   1.210715
    34  H   -0.040370   0.293871
    35  H   -0.031449   0.266168
 Sum of Mulliken charges =  -1.00000   1.00000

 Dipole moment (field-independent basis, Debye):
    X=             -1.7637    Y=             -3.7610    Z=              2.1041  Tot=              4.6565
 Quadrupole moment (field-independent basis, Debye-Ang):
   XX=           -195.0316   YY=           -154.8754   ZZ=           -141.5531
   XY=              3.0971   XZ=             -7.6351   YZ=              2.5954

 Summary of Natural Population Analysis:

                                       Natural Population
                Natural  -----------------------------------------------
    Atom  No    Charge         Core      Valence    Rydberg      Total
 -----------------------------------------------------------------------
      C    1   -0.28858      0.99965     2.28242    0.00651     3.28858
      C    2   -0.11710      0.99961     2.10812    0.00937     3.11710
      C    3   -0.28040      0.99965     2.27606    0.00469     3.28040
      C    4   -0.19745      0.99959     2.18824    0.00961     3.19745
      C    5   -0.05598      0.99951     2.04126    0.01521     3.05598
      C    6    0.41238      0.99968     1.56150    0.02644     2.58762
      O    7   -0.30634      0.99987     3.30027    0.00620     4.30634
      O    8   -0.33773      0.99988     3.33103    0.00682     4.33773
      N    9   -0.36674      0.99972     2.85340    0.01362     3.86674
      C   10   -0.09954      0.99959     2.08894    0.01101     3.09954
      C   11   -0.19313      0.99962     2.18398    0.00954     3.19313
      C   12   -0.20081      0.99962     2.19123    0.00996     3.20081
      C   13   -0.28366      0.99958     2.27194    0.01214     3.28366
      S   14    1.09431      4.99923     1.80891    0.09756     6.90569
      O   15   -0.46817      0.99991     3.46314    0.00512     4.46817
      O   16   -0.46114      0.99991     3.45594    0.00529     4.46114
      H   17    0.09635      0.00000     0.40285    0.00080     0.40365
      H   18    0.10572      0.00000     0.39338    0.00090     0.39428
      H   19    0.09940      0.00000     0.39987    0.00072     0.40060
      H   20    0.09639      0.00000     0.40129    0.00231     0.40361
      H   21    0.09529      0.00000     0.40381    0.00090     0.40471
      H   22    0.09906      0.00000     0.40010    0.00084     0.40094
      H   23    0.09937      0.00000     0.39981    0.00082     0.40063
      H   24    0.10350      0.00000     0.39529    0.00121     0.39650
      H   25    0.10771      0.00000     0.39108    0.00120     0.39229
      H   26    0.12649      0.00000     0.37168    0.00183     0.37351
      H   27    0.24572      0.00000     0.23682    0.01746     0.25428
      H   28    0.09527      0.00000     0.40358    0.00116     0.40473
      H   29    0.11954      0.00000     0.37917    0.00130     0.38046
      H   30    0.10531      0.00000     0.39359    0.00110     0.39469
      H   31    0.10222      0.00000     0.39625    0.00153     0.39778
      H   32    0.10402      0.00000     0.39477    0.00121     0.39598
      H   33    0.11270      0.00000     0.38243    0.00487     0.38730
      H   34    0.11800      0.00000     0.38089    0.00111     0.38200
      H   35    0.11803      0.00000     0.38059    0.00138     0.38197
 =======================================================================
   * Total *   -0.00000     19.99462    46.71365    0.29173    67.00000

 Normal termination of Gaussian 16 at Thu Dec 10 22:07:17 2020.
