 Gaussian 16, Revision A.03,

 ----------------------------------------------------------------------
 # opt=(cartesian,calcfc) freq B3LYP/6-31G(d) empiricaldispersion=gd3bj
  scf=xqc
 ----------------------------------------------------------------------

 ------------------------------
 CID_63629255_JID_6021_neutraal
 ------------------------------
 Symbolic Z-matrix:
 Charge =  0 Multiplicity = 1

 SCF Done:  E(RB3LYP) =  -688.403235605     A.U. after   14 cycles
 SCF Done:  E(RB3LYP) =  -688.406139109     A.U. after   11 cycles
 SCF Done:  E(RB3LYP) =  -688.408439965     A.U. after   12 cycles
 SCF Done:  E(RB3LYP) =  -688.408013798     A.U. after   12 cycles
 SCF Done:  E(RB3LYP) =  -688.408468809     A.U. after   11 cycles
 SCF Done:  E(RB3LYP) =  -688.408613094     A.U. after   11 cycles
 SCF Done:  E(RB3LYP) =  -688.408592755     A.U. after   11 cycles
 SCF Done:  E(RB3LYP) =  -688.408579284     A.U. after   11 cycles
 SCF Done:  E(RB3LYP) =  -688.408635670     A.U. after   10 cycles
 SCF Done:  E(RB3LYP) =  -688.408673275     A.U. after   10 cycles
 SCF Done:  E(RB3LYP) =  -688.408763553     A.U. after    7 cycles
 SCF Done:  E(RB3LYP) =  -688.408763343     A.U. after    8 cycles
 SCF Done:  E(RB3LYP) =  -688.408763578     A.U. after    6 cycles
 SCF Done:  E(RB3LYP) =  -688.408763516     A.U. after    7 cycles
 SCF Done:  E(RB3LYP) =  -688.408763593     A.U. after    6 cycles
 Optimization completed.
    -- Stationary point found.
 Normal termination of Gaussian 16 at Mon Jan  4 10:27:30 2021.

 --------------------------------------------------------------------
 #N Geom=AllCheck Guess=TCheck SCRF=Check GenChk RB3LYP/6-31G(d) Freq
 --------------------------------------------------------------------

 Structure from the checkpoint file:  "JID_6021.chk"
 ------------------------------
 CID_63629255_JID_6021_neutraal
 ------------------------------
 Charge =  0 Multiplicity = 1

 SCF Done:  E(RB3LYP) =  -688.408763593     A.U. after    1 cycles

  Exact polarizability: 153.509  25.590 142.995  11.648  -2.001 140.298
 Approx polarizability: 202.827  47.449 220.760  19.232 -11.273 227.673

                      1                      2                      3
                      A                      A                      A
 Frequencies --     22.4340                30.0563                38.3150
 Red. masses --      3.7336                 4.2331                 3.6399
 Frc consts  --      0.0011                 0.0023                 0.0031
 IR Inten    --      0.1212                 0.3198                 0.4851

                      4                      5                      6
                      A                      A                      A
 Frequencies --     65.6154                96.2037               152.5898
 Red. masses --      1.0743                 3.7529                 3.8972
 Frc consts  --      0.0027                 0.0205                 0.0535
 IR Inten    --      0.7035                 1.2820                 6.1429

                      7                      8                      9
                      A                      A                      A
 Frequencies --    168.7868               183.1910               202.4189
 Red. masses --      3.7028                 3.0135                 3.8291
 Frc consts  --      0.0622                 0.0596                 0.0924
 IR Inten    --      0.9870                 0.7829                 3.7361

                     10                     11                     12
                      A                      A                      A
 Frequencies --    256.9020               272.8476               315.9088
 Red. masses --      2.3820                 3.9817                 2.0755
 Frc consts  --      0.0926                 0.1746                 0.1220
 IR Inten    --      3.4761                 1.2706                 1.1937

                     13                     14                     15
                      A                      A                      A
 Frequencies --    328.3123               366.4780               429.6776
 Red. masses --      2.2462                 2.5141                 2.0651
 Frc consts  --      0.1426                 0.1989                 0.2246
 IR Inten    --      0.5110                 3.1937                 0.8171

                     16                     17                     18
                      A                      A                      A
 Frequencies --    446.4797               455.4311               478.7149
 Red. masses --      2.7129                 3.6000                 2.4136
 Frc consts  --      0.3186                 0.4399                 0.3259
 IR Inten    --     16.9361                 4.3149                 4.3605

                     19                     20                     21
                      A                      A                      A
 Frequencies --    498.6708               522.4453               530.4516
 Red. masses --      1.8767                 1.5878                 2.4779
 Frc consts  --      0.2750                 0.2553                 0.4108
 IR Inten    --     47.8537                68.3171                 6.7163

                     22                     23                     24
                      A                      A                      A
 Frequencies --    554.9190               634.0705               644.1260
 Red. masses --      5.0125                 3.6092                 2.2443
 Frc consts  --      0.9094                 0.8549                 0.5486
 IR Inten    --     14.1642                 6.6765                16.0020

                     25                     26                     27
                      A                      A                      A
 Frequencies --    656.8937               761.7487               778.7759
 Red. masses --      2.7368                 5.0215                 2.0117
 Frc consts  --      0.6958                 1.7167                 0.7189
 IR Inten    --     17.2650                 6.7666                49.3899

                     28                     29                     30
                      A                      A                      A
 Frequencies --    799.7290               811.2989               814.8796
 Red. masses --      2.1398                 1.3553                 4.5630
 Frc consts  --      0.8063                 0.5256                 1.7852
 IR Inten    --      9.4283                28.7194                12.9416

                     31                     32                     33
                      A                      A                      A
 Frequencies --    848.8857               870.3540               888.0857
 Red. masses --      2.0879                 2.5874                 1.8287
 Frc consts  --      0.8865                 1.1548                 0.8498
 IR Inten    --      5.0443                 2.5350                 7.5172

                     34                     35                     36
                      A                      A                      A
 Frequencies --    908.0503               929.3187               959.8465
 Red. masses --      2.2961                 1.8232                 2.0582
 Frc consts  --      1.1155                 0.9277                 1.1172
 IR Inten    --      1.7703                 4.3811                 4.6636

                     37                     38                     39
                      A                      A                      A
 Frequencies --    965.3778               991.4981              1010.1556
 Red. masses --      1.8290                 1.4039                 4.3529
 Frc consts  --      1.0043                 0.8131                 2.6170
 IR Inten    --      8.1159                 0.1824                 0.7924

                     40                     41                     42
                      A                      A                      A
 Frequencies --   1025.2755              1031.9768              1057.5083
 Red. masses --      2.0751                 1.6558                 1.9732
 Frc consts  --      1.2852                 1.0390                 1.3002
 IR Inten    --      8.4183                 1.4607                 2.9652

                     43                     44                     45
                      A                      A                      A
 Frequencies --   1074.2349              1076.0504              1098.5366
 Red. masses --      1.6028                 1.7155                 2.0317
 Frc consts  --      1.0897                 1.1704                 1.4446
 IR Inten    --      7.5779                 1.7059                 4.4617

                     46                     47                     48
                      A                      A                      A
 Frequencies --   1109.9579              1123.5184              1144.7839
 Red. masses --      1.7628                 1.8000                 2.6327
 Frc consts  --      1.2796                 1.3387                 2.0328
 IR Inten    --      0.8646                 2.2430                 6.6961

                     49                     50                     51
                      A                      A                      A
 Frequencies --   1157.7602              1179.5653              1197.6491
 Red. masses --      2.3189                 2.0750                 1.3229
 Frc consts  --      1.8313                 1.7010                 1.1180
 IR Inten    --     19.5911                 2.5100                 3.4931

                     52                     53                     54
                      A                      A                      A
 Frequencies --   1208.5287              1246.0047              1279.9876
 Red. masses --      1.3074                 1.4932                 1.8579
 Frc consts  --      1.1251                 1.3659                 1.7934
 IR Inten    --     15.5136                 4.0355                 7.0118

                     55                     56                     57
                      A                      A                      A
 Frequencies --   1281.3413              1293.6343              1316.8618
 Red. masses --      3.3505                 1.1984                 1.3093
 Frc consts  --      3.2411                 1.1816                 1.3378
 IR Inten    --      8.4081                 1.7199                10.4881

                     58                     59                     60
                      A                      A                      A
 Frequencies --   1325.0977              1343.0147              1358.7125
 Red. masses --      1.2328                 1.6751                 1.5544
 Frc consts  --      1.2754                 1.7801                 1.6907
 IR Inten    --      3.2368                10.7345                13.8881

                     61                     62                     63
                      A                      A                      A
 Frequencies --   1372.3983              1378.9886              1387.8486
 Red. masses --      1.3242                 1.3503                 1.5200
 Frc consts  --      1.4694                 1.5128                 1.7250
 IR Inten    --      5.9598                 6.7350                 2.4170

                     64                     65                     66
                      A                      A                      A
 Frequencies --   1404.0381              1413.0258              1424.9325
 Red. masses --      1.4951                 1.3652                 1.5092
 Frc consts  --      1.7365                 1.6060                 1.8055
 IR Inten    --      2.2497                92.7039                41.4175

                     67                     68                     69
                      A                      A                      A
 Frequencies --   1433.7073              1446.5087              1455.5478
 Red. masses --      1.2590                 1.4562                 1.6017
 Frc consts  --      1.5247                 1.7952                 1.9993
 IR Inten    --      4.5709                 8.4163                37.7191

                     70                     71                     72
                      A                      A                      A
 Frequencies --   1492.8372              1500.0490              1505.0032
 Red. masses --      1.6484                 1.2738                 1.0458
 Frc consts  --      2.1644                 1.6888                 1.3956
 IR Inten    --      6.8102                 2.2105                 5.6089

                     73                     74                     75
                      A                      A                      A
 Frequencies --   1509.1306              1510.3841              1517.8989
 Red. masses --      1.1049                 1.1441                 1.3414
 Frc consts  --      1.4825                 1.5378                 1.8210
 IR Inten    --      2.6134                21.2746                 7.4519

                     76                     77                     78
                      A                      A                      A
 Frequencies --   1524.4892              1526.9592              1531.1665
 Red. masses --      1.2034                 1.1190                 1.1440
 Frc consts  --      1.6478                 1.5372                 1.5802
 IR Inten    --     18.0574                 0.4680                19.5218

                     79                     80                     81
                      A                      A                      A
 Frequencies --   1541.1967              1583.0647              1628.2300
 Red. masses --      1.1013                 3.3511                 4.4640
 Frc consts  --      1.5412                 4.9481                 6.9727
 IR Inten    --      9.5202               260.0281               194.1960

                     82                     83                     84
                      A                      A                      A
 Frequencies --   1645.6020              2906.6052              2914.1326
 Red. masses --      6.1266                 1.0744                 1.0725
 Frc consts  --      9.7751                 5.3477                 5.3664
 IR Inten    --    411.8238                35.7255               158.5903

                     85                     86                     87
                      A                      A                      A
 Frequencies --   3004.7642              3026.4608              3032.5212
 Red. masses --      1.0825                 1.0753                 1.0740
 Frc consts  --      5.7581                 5.8028                 5.8191
 IR Inten    --     31.7458                69.5734                23.6900

                     88                     89                     90
                      A                      A                      A
 Frequencies --   3058.2141              3058.5876              3061.0650
 Red. masses --      1.0633                 1.0366                 1.0603
 Frc consts  --      5.8594                 5.7136                 5.8535
 IR Inten    --     18.6983                13.2925                61.7366

                     91                     92                     93
                      A                      A                      A
 Frequencies --   3072.6540              3077.0921              3101.1633
 Red. masses --      1.0874                 1.0865                 1.1054
 Frc consts  --      6.0488                 6.0611                 6.2638
 IR Inten    --     70.0633                39.4187                27.1507

                     94                     95                     96
                      A                      A                      A
 Frequencies --   3103.4760              3119.2359              3133.4809
 Red. masses --      1.1016                 1.1005                 1.0883
 Frc consts  --      6.2510                 6.3086                 6.2960
 IR Inten    --     29.5457                10.5109                31.1984

                     97                     98                     99
                      A                      A                      A
 Frequencies --   3143.5692              3149.3038              3163.1150
 Red. masses --      1.1034                 1.0884                 1.0903
 Frc consts  --      6.4242                 6.3602                 6.4272
 IR Inten    --     19.2886                15.5896                35.5890

                    100                    101                    102
                      A                      A                      A
 Frequencies --   3225.3038              3502.4637              3639.8676
 Red. masses --      1.0937                 1.0747                 1.0767
 Frc consts  --      6.7033                 7.7674                 8.4044
 IR Inten    --     10.7182                 1.9329                38.3041

 - Thermochemistry -
 -------------------
 Temperature   298.150 Kelvin.  Pressure   1.00000 Atm.
 Atom     1 has atomic number  6 and mass  12.00000

 Molecular mass:   220.16880 amu.
 Principal axes and moments of inertia in atomic units:
                           1         2         3
     Eigenvalues --  2226.110945018.133915466.46124
           X            0.99982   0.01611  -0.00991
           Y           -0.01604   0.99984   0.00754
           Z            0.01003  -0.00738   0.99992
 This molecule is an asymmetric top.
 Rotational symmetry number  1.
 Warning -- assumption of classical behavior for rotation
           may cause significant error
 Rotational temperatures (Kelvin)      0.03891     0.01726     0.01584
 Rotational constants (GHZ):           0.81071     0.35964     0.33015
 Zero-point vibrational energy     842446.3 (Joules/Mol)
                                  201.34951 (Kcal/Mol)
 Warning -- explicit consideration of  22 degrees of freedom as
           vibrations may cause significant error
 Vibrational temperatures:     32.28    43.24    55.13    94.41   138.42
          (Kelvin)            219.54   242.85   263.57   291.24   369.62
                              392.57   454.52   472.37   527.28   618.21
                              642.38   655.26   688.76   717.48   751.68
                              763.20   798.40   912.29   926.75   945.12
                             1095.99  1120.48  1150.63  1167.28  1172.43
                             1221.36  1252.25  1277.76  1306.48  1337.08
                             1381.01  1388.96  1426.54  1453.39  1475.14
                             1484.78  1521.52  1545.58  1548.20  1580.55
                             1596.98  1616.49  1647.09  1665.76  1697.13
                             1723.15  1738.80  1792.72  1841.62  1843.56
                             1861.25  1894.67  1906.52  1932.30  1954.88
                             1974.58  1984.06  1996.80  2020.10  2033.03
                             2050.16  2062.79  2081.20  2094.21  2147.86
                             2158.24  2165.36  2171.30  2173.11  2183.92
                             2193.40  2196.95  2203.01  2217.44  2277.68
                             2342.66  2367.65  4181.96  4192.79  4323.19
                             4354.40  4363.12  4400.09  4400.63  4404.19
                             4420.86  4427.25  4461.88  4465.21  4487.88
                             4508.38  4522.89  4531.15  4551.02  4640.49
                             5039.26  5236.96

 Zero-point correction=                           0.320871 (Hartree/Particle)
 Thermal correction to Energy=                    0.335982
 Thermal correction to Enthalpy=                  0.336926
 Thermal correction to Gibbs Free Energy=         0.276794
 Sum of electronic and zero-point Energies=           -688.087893
 Sum of electronic and thermal Energies=              -688.072781
 Sum of electronic and thermal Enthalpies=            -688.071837
 Sum of electronic and thermal Free Energies=         -688.131970

                     E (Thermal)             CV                S
                      KCal/Mol        Cal/Mol-Kelvin    Cal/Mol-Kelvin
 Total                  210.832             58.556            126.560
 Electronic               0.000              0.000              0.000
 Translational            0.889              2.981             42.071
 Rotational               0.889              2.981             32.479
 Vibrational            209.055             52.594             52.011
 Vibration     1          0.593              1.985              6.406
 Vibration     2          0.594              1.984              5.826
 Vibration     3          0.594              1.982              5.344
 Vibration     4          0.597              1.971              4.281
 Vibration     5          0.603              1.952              3.530
 Vibration     6          0.619              1.900              2.640
 Vibration     7          0.625              1.881              2.449
 Vibration     8          0.631              1.863              2.296
 Vibration     9          0.639              1.836              2.111
 Vibration    10          0.666              1.751              1.683
 Vibration    11          0.676              1.723              1.578
 Vibration    12          0.703              1.643              1.331
 Vibration    13          0.712              1.619              1.268
 Vibration    14          0.739              1.541              1.094
 Vibration    15          0.791              1.406              0.860
 Vibration    16          0.806              1.369              0.806
 Vibration    17          0.814              1.349              0.780
 Vibration    18          0.835              1.297              0.714
 Vibration    19          0.854              1.253              0.661
 Vibration    20          0.877              1.200              0.604
 Vibration    21          0.885              1.183              0.586
 Vibration    22          0.910              1.129              0.534

 Normal termination of Gaussian 16 at Mon Jan  4 10:40:24 2021.

 ----------------------------------------------------------------------
 # B3LYP/6-311++G(d,p) empiricaldispersion=gd3bj scf=xqc pop=npa geom=c
 heck
 ----------------------------------------------------------------------

 --------------------------------------
 CID_63629255_JID_6021_Energie_neutraal
 --------------------------------------
 Structure from the checkpoint file:  "JID_6021.chk"
 Charge =  0 Multiplicity = 1

 SCF Done:  E(RB3LYP) =  -688.598091038     A.U. after   14 cycles
 Normal termination of Gaussian 16 at Mon Jan  4 10:45:32 2021.

 ----------------------------------------------------------------------
 # B3LYP/6-311++G(d,p) empiricaldispersion=gd3bj scf=xqc pop=npa geom=c
 heck
 ----------------------------------------------------------------------

 ------------------------------------
 CID_63629255_JID_6021_Energie_kation
 ------------------------------------
 Structure from the checkpoint file:  "JID_6021.chk"
 Charge =  1 Multiplicity = 2

 SCF Done:  E(UB3LYP) =  -688.319477009     A.U. after   22 cycles
 Normal termination of Gaussian 16 at Mon Jan  4 10:56:22 2021.
 Gaussian 16:  ES64L-G16RevA.03 25-Dec-2016

 ----------------------------------------------------------------------
 # B3LYP/6-311++G(d,p) empiricaldispersion=gd3bj scf=xqc pop=npa geom=c
 heck
 ----------------------------------------------------------------------

 -----------------------------------
 CID_63629255_JID_6021_Energie_anion
 -----------------------------------
 Structure from the checkpoint file:  "JID_6021.chk"
 Charge = -1 Multiplicity = 2

                         Standard orientation:
 ---------------------------------------------------------------------
 Center     Atomic      Atomic             Coordinates (Angstroms)
 Number     Number       Type             X           Y           Z
 ---------------------------------------------------------------------
      1          6           0       -2.779574   -1.673923    1.887662
      2          6           0       -2.576947   -0.787153    0.689454
      3          7           0       -1.719653    0.230917    0.845052
      4          6           0       -1.520150    1.023328   -0.223931
      5          7           0       -2.100515    0.894597   -1.441180
      6          6           0       -2.949846   -0.121961   -1.560517
      7          6           0       -3.233967   -1.010757   -0.523103
      8          7           0       -0.651873    2.063040   -0.091740
      9          6           0        0.296524    2.191370    1.007702
     10          6           0        1.326806    1.060916    1.145279
     11          6           0        2.328904    0.887586   -0.010869
     12          6           0        1.730768    0.325175   -1.320666
     13          6           0        1.289095   -1.136547   -1.163636
     14          6           0        2.444448   -1.987786   -0.630201
     15          7           0        2.946566   -1.408367    0.616722
     16          6           0        3.469111   -0.055800    0.414904
     17          1           0       -1.826621   -2.127018    2.182919
     18          1           0       -3.129495   -1.081203    2.739799
     19          1           0       -3.502804   -2.469008    1.686687
     20          1           0       -3.422857   -0.236634   -2.535359
     21          1           0       -3.924462   -1.835825   -0.654098
     22          1           0       -0.468041    2.552272   -0.955044
     23          1           0        0.801531    3.153870    0.867709
     24          1           0       -0.272081    2.254246    1.941581
     25          1           0        1.898233    1.276271    2.059511
     26          1           0        0.801764    0.123836    1.337414
     27          1           0        2.777289    1.869145   -0.229080
     28          1           0        0.897939    0.932546   -1.680871
     29          1           0        2.511390    0.373120   -2.094141
     30          1           0        0.441845   -1.204444   -0.472595
     31          1           0        0.950891   -1.532669   -2.128650
     32          1           0        2.108052   -3.011256   -0.428154
     33          1           0        3.230511   -2.046616   -1.411163
     34          1           0        3.676378   -2.002574    1.002608
     35          1           0        4.262427   -0.022527   -0.359490
     36          1           0        3.915403    0.286478    1.355971
 ---------------------------------------------------------------------

 SCF Done:  E(UB3LYP) =  -688.585488408     A.U. after   33 cycles
 SCF Done:  E(UB3LYP) =  -688.585488408     a.u. after    1 cycles

 The electronic state is 2-A.
 Alpha  occ. eigenvalues --  -14.21579 -14.18472 -14.18039 -14.17571 -10.14966
 Alpha  occ. eigenvalues --  -10.09797 -10.09549 -10.08910 -10.07878 -10.07810
 Alpha  occ. eigenvalues --  -10.06374 -10.06182 -10.05408 -10.05191 -10.04989
 Alpha  occ. eigenvalues --  -10.04714  -0.88160  -0.80439  -0.79982  -0.76732
 Alpha  occ. eigenvalues --   -0.69145  -0.66911  -0.65219  -0.62305  -0.60454
 Alpha  occ. eigenvalues --   -0.54523  -0.52285  -0.51396  -0.50724  -0.48606
 Alpha  occ. eigenvalues --   -0.42572  -0.41783  -0.40470  -0.39894  -0.36862
 Alpha  occ. eigenvalues --   -0.35989  -0.34403  -0.34320  -0.33262  -0.32643
 Alpha  occ. eigenvalues --   -0.31419  -0.30481  -0.30096  -0.29308  -0.29201
 Alpha  occ. eigenvalues --   -0.28693  -0.27424  -0.27249  -0.25996  -0.24348
 Alpha  occ. eigenvalues --   -0.23093  -0.21572  -0.20171  -0.20080  -0.19128
 Alpha  occ. eigenvalues --   -0.18921  -0.18260  -0.13078  -0.11718  -0.10840
 Alpha  occ. eigenvalues --    0.04744
 Alpha virt. eigenvalues --    0.06299   0.07115   0.07354   0.08109   0.08841
 Alpha virt. eigenvalues --    0.09019   0.09848   0.10129   0.10504   0.10696
 Alpha virt. eigenvalues --    0.11325   0.11824   0.12003   0.12582   0.12845

  Beta  occ. eigenvalues --  -14.21582 -14.18451 -14.17905 -14.17419 -10.14987
  Beta  occ. eigenvalues --  -10.09600 -10.09542 -10.08715 -10.07859 -10.07787
  Beta  occ. eigenvalues --  -10.06388 -10.06175 -10.05472 -10.05185 -10.04984
  Beta  occ. eigenvalues --  -10.04703  -0.87998  -0.80345  -0.79934  -0.76386
  Beta  occ. eigenvalues --   -0.69104  -0.66751  -0.65174  -0.62229  -0.60376
  Beta  occ. eigenvalues --   -0.54480  -0.52229  -0.51185  -0.50610  -0.48542
  Beta  occ. eigenvalues --   -0.42516  -0.41658  -0.40397  -0.39801  -0.36781
  Beta  occ. eigenvalues --   -0.35915  -0.34353  -0.34235  -0.33216  -0.32338
  Beta  occ. eigenvalues --   -0.31373  -0.30395  -0.30040  -0.29276  -0.28950
  Beta  occ. eigenvalues --   -0.28624  -0.27326  -0.27182  -0.25940  -0.24303
  Beta  occ. eigenvalues --   -0.23000  -0.21485  -0.20117  -0.20034  -0.18800
  Beta  occ. eigenvalues --   -0.18512  -0.17539  -0.12902  -0.11667  -0.10571
  Beta virt. eigenvalues --    0.06842   0.07320   0.07959   0.08301   0.08588
  Beta virt. eigenvalues --    0.09179   0.09340   0.10019   0.10339   0.10792
  Beta virt. eigenvalues --    0.10846   0.11605   0.11957   0.12111   0.12870

 Mulliken charges and spin densities:
               1          2
     1  C   -0.109215  -0.400688
     2  C    0.125517   0.260734
     3  N   -0.116241   0.103818
     4  C   -0.441116  -0.104767
     5  N   -0.074898   0.073945
     6  C   -0.127192   0.065458
     7  C   -0.296053   0.029616
     8  N   -0.081497   0.024127
     9  C   -0.539826  -0.079923
    10  C    0.138288  -0.208953
    11  C   -0.283720   0.691796
    12  C    0.361076  -0.792177
    13  C   -0.948851   0.730072
    14  C    0.816219  -1.253764
    15  N   -0.407999   0.265015
    16  C    0.940884  -1.525277
    17  H    0.030366   0.134401
    18  H    0.160859  -0.009996
    19  H    0.070335   0.057144
    20  H    0.077780   0.061434
    21  H    0.025749   0.112482
    22  H    0.220944   0.082273
    23  H   -0.127283   0.261166
    24  H    0.211471  -0.013346
    25  H    0.061809   0.073583
    26  H    0.269885  -0.060527
    27  H   -0.088439   0.283010
    28  H    0.096389  -0.016685
    29  H   -0.019286   0.188931
    30  H    0.279385  -0.200386
    31  H   -0.025739   0.176052
    32  H   -0.283361   0.443320
    33  H   -0.179844   0.292054
    34  H   -0.069652   0.331261
    35  H   -0.144040   0.241551
    36  H   -0.522703   0.683247
 Sum of Mulliken charges =  -1.00000   1.00000

 Dipole moment (field-independent basis, Debye):
    X=             -4.9117    Y=              1.3934    Z=             -0.0345  Tot=              5.1056
 Quadrupole moment (field-independent basis, Debye-Ang):
   XX=           -164.7605   YY=           -133.1642   ZZ=           -128.8742
   XY=              8.1665   XZ=             -6.0300   YZ=              0.9864

 Summary of Natural Population Analysis:

                                       Natural Population
                Natural  -----------------------------------------------
    Atom  No    Charge         Core      Valence    Rydberg      Total
 -----------------------------------------------------------------------
      C    1   -0.29985      0.99963     2.29509    0.00513     3.29985
      C    2    0.15904      0.99956     1.82832    0.01308     2.84096
      N    3   -0.26917      0.99964     2.76025    0.00928     3.76917
      C    4    0.29874      0.99960     1.68278    0.01888     2.70126
      N    5   -0.26339      0.99968     2.75341    0.01029     3.76339
      C    6    0.08292      0.99961     1.90278    0.01469     2.91708
      C    7   -0.19108      0.99950     2.18244    0.00914     3.19108
      N    8   -0.31153      0.99966     2.80184    0.01003     3.81153
      C    9   -0.08412      0.99962     2.07294    0.01157     3.08412
      C   10   -0.20053      0.99960     2.19170    0.00923     3.20053
      C   11   -0.11482      0.99959     2.10337    0.01185     3.11482
      C   12   -0.19095      0.99961     2.18265    0.00870     3.19095
      C   13   -0.19705      0.99962     2.18906    0.00838     3.19705
      C   14   -0.08499      0.99962     2.07382    0.01155     3.08499
      N   15   -0.34194      0.99974     2.82991    0.01229     3.84194
      C   16   -0.08239      0.99960     2.07007    0.01272     3.08239
      H   17    0.11099      0.00000     0.38780    0.00121     0.38901
      H   18    0.10550      0.00000     0.39355    0.00094     0.39450
      H   19    0.09546      0.00000     0.40387    0.00067     0.40454
      H   20    0.08261      0.00000     0.41640    0.00098     0.41739
      H   21    0.09985      0.00000     0.39922    0.00093     0.40015
      H   22    0.19248      0.00000     0.30504    0.00248     0.30752
      H   23    0.09122      0.00000     0.40787    0.00090     0.40878
      H   24    0.09860      0.00000     0.40028    0.00112     0.40140
      H   25    0.09663      0.00000     0.40225    0.00112     0.40337
      H   26    0.11507      0.00000     0.38281    0.00212     0.38493
      H   27    0.09350      0.00000     0.40470    0.00180     0.40650
      H   28    0.10214      0.00000     0.39635    0.00151     0.39786
      H   29    0.09238      0.00000     0.40620    0.00142     0.40762
      H   30    0.10188      0.00000     0.39588    0.00224     0.39812
      H   31    0.09775      0.00000     0.40125    0.00100     0.40225
      H   32    0.09405      0.00000     0.40484    0.00111     0.40595
      H   33    0.07344      0.00000     0.42480    0.00176     0.42656
      H   34    0.17534      0.00000     0.32103    0.00363     0.32466
      H   35    0.07736      0.00000     0.42073    0.00191     0.42264
      H   36    0.09486      0.00000     0.40355    0.00159     0.40514
 =======================================================================
   * Total *    0.00000     15.99388    43.79888    0.20724    60.00000

 Normal termination of Gaussian 16 at Mon Jan  4 11:12:49 2021.
