 Gaussian 16, Revision A.03,

 -----------------------------------------------------------
 # opt freq B3LYP/6-31G(d) empiricaldispersion=gd3bj scf=xqc
 -----------------------------------------------------------

 -------------------------------
 CID_104317365_JID_1388_neutraal
 -------------------------------
 Symbolic Z-matrix:
 Charge =  0 Multiplicity = 1

 SCF Done:  E(RB3LYP) =  -520.252297126     A.U. after   12 cycles
 SCF Done:  E(RB3LYP) =  -520.264950364     A.U. after   11 cycles
 SCF Done:  E(RB3LYP) =  -520.266508874     A.U. after   11 cycles
 SCF Done:  E(RB3LYP) =  -520.266913975     A.U. after   11 cycles
 SCF Done:  E(RB3LYP) =  -520.267563503     A.U. after   11 cycles
 SCF Done:  E(RB3LYP) =  -520.267796741     A.U. after   10 cycles
 SCF Done:  E(RB3LYP) =  -520.267848310     A.U. after   10 cycles
 SCF Done:  E(RB3LYP) =  -520.267866083     A.U. after    9 cycles
 SCF Done:  E(RB3LYP) =  -520.267870021     A.U. after    8 cycles
 SCF Done:  E(RB3LYP) =  -520.267870277     A.U. after    7 cycles
 SCF Done:  E(RB3LYP) =  -520.267870380     A.U. after    6 cycles
 SCF Done:  E(RB3LYP) =  -520.267870434     A.U. after    6 cycles
 Optimization completed.
    -- Stationary point found.
 Normal termination of Gaussian 16 at Tue Dec  8 19:52:35 2020.

 --------------------------------------------------------------------
 #N Geom=AllCheck Guess=TCheck SCRF=Check GenChk RB3LYP/6-31G(d) Freq
 --------------------------------------------------------------------

 Structure from the checkpoint file:  "JID_1388.chk"
 -------------------------------
 CID_104317365_JID_1388_neutraal
 -------------------------------
 Charge =  0 Multiplicity = 1

 SCF Done:  E(RB3LYP) =  -520.267870434     A.U. after    1 cycles

  Exact polarizability: 113.003  -0.534  89.230  -2.680  -2.628  87.485
 Approx polarizability: 134.687   0.835 124.807  -3.403  -4.073 133.183

                      1                      2                      3
                      A                      A                      A
 Frequencies --     23.0830                44.6202                70.6051
 Red. masses --      3.4075                 3.0186                 4.1594
 Frc consts  --      0.0011                 0.0035                 0.0122
 IR Inten    --      0.6548                 0.1890                 1.4534

                      4                      5                      6
                      A                      A                      A
 Frequencies --    102.6449               166.4001               205.5209
 Red. masses --      3.3640                 4.0868                 3.6305
 Frc consts  --      0.0209                 0.0667                 0.0903
 IR Inten    --      2.4479                 2.4269                 1.4957

                      7                      8                      9
                      A                      A                      A
 Frequencies --    238.2751               262.7994               299.3203
 Red. masses --      1.5071                 1.0898                 1.4660
 Frc consts  --      0.0504                 0.0443                 0.0774
 IR Inten    --      0.3590                75.9035                 6.0701

                     10                     11                     12
                      A                      A                      A
 Frequencies --    321.6662               330.7185               345.4055
 Red. masses --      1.2258                 2.8538                 2.9523
 Frc consts  --      0.0747                 0.1839                 0.2075
 IR Inten    --     86.8692                12.4875                27.2945

                     13                     14                     15
                      A                      A                      A
 Frequencies --    379.7141               412.6728               435.3495
 Red. masses --      2.0205                 2.4634                 2.3131
 Frc consts  --      0.1716                 0.2472                 0.2583
 IR Inten    --      6.6747                 1.9289                 1.7186

                     16                     17                     18
                      A                      A                      A
 Frequencies --    439.9013               530.6777               606.1925
 Red. masses --      2.2734                 2.1331                 2.2900
 Frc consts  --      0.2592                 0.3539                 0.4958
 IR Inten    --     12.4881                10.3484                 7.1598

                     19                     20                     21
                      A                      A                      A
 Frequencies --    686.9227               757.1609               793.2340
 Red. masses --      3.0812                 1.6456                 1.7483
 Frc consts  --      0.8566                 0.5558                 0.6481
 IR Inten    --     18.8814                56.9307                 2.7817

                     22                     23                     24
                      A                      A                      A
 Frequencies --    810.0343               840.4878               872.1649
 Red. masses --      1.7967                 2.6148                 1.9518
 Frc consts  --      0.6946                 1.0883                 0.8748
 IR Inten    --     24.0062                17.1350                 3.3967

                     25                     26                     27
                      A                      A                      A
 Frequencies --    918.6360               922.5482               934.4954
 Red. masses --      2.9473                 2.1865                 1.6287
 Frc consts  --      1.4654                 1.0964                 0.8380
 IR Inten    --      9.8258                25.1552                14.5200

                     28                     29                     30
                      A                      A                      A
 Frequencies --    965.6759               995.8939              1003.1504
 Red. masses --      3.6065                 2.0355                 1.9367
 Frc consts  --      1.9815                 1.1894                 1.1483
 IR Inten    --      8.1614                 7.7032                17.6384

                     31                     32                     33
                      A                      A                      A
 Frequencies --   1019.8890              1037.5665              1075.4114
 Red. masses --      1.6942                 1.6082                 1.2857
 Frc consts  --      1.0383                 1.0201                 0.8761
 IR Inten    --      2.3575                 3.0079                 7.2152

                     34                     35                     36
                      A                      A                      A
 Frequencies --   1102.8998              1138.3746              1154.6517
 Red. masses --      1.9582                 2.1463                 1.9112
 Frc consts  --      1.4034                 1.6388                 1.5013
 IR Inten    --     15.1220                39.5485                98.0157

                     37                     38                     39
                      A                      A                      A
 Frequencies --   1158.7995              1193.0592              1213.2291
 Red. masses --      1.9709                 1.8846                 1.5409
 Frc consts  --      1.5593                 1.5805                 1.3363
 IR Inten    --     83.9485                12.2926                 7.5412

                     40                     41                     42
                      A                      A                      A
 Frequencies --   1227.9202              1255.3878              1259.4456
 Red. masses --      1.6683                 1.2106                 1.3366
 Frc consts  --      1.4820                 1.1241                 1.2492
 IR Inten    --      5.7124                12.2545                24.6570

                     43                     44                     45
                      A                      A                      A
 Frequencies --   1270.7821              1280.4567              1301.6998
 Red. masses --      1.3287                 1.5604                 1.5009
 Frc consts  --      1.2642                 1.5073                 1.4984
 IR Inten    --      0.6679                36.9981                16.5268

                     46                     47                     48
                      A                      A                      A
 Frequencies --   1318.8511              1331.2990              1397.2463
 Red. masses --      1.2305                 1.4873                 1.3067
 Frc consts  --      1.2610                 1.5531                 1.5031
 IR Inten    --     17.6652                 4.3620                15.9814

                     49                     50                     51
                      A                      A                      A
 Frequencies --   1403.3493              1414.2380              1432.9731
 Red. masses --      1.3095                 1.4560                 1.3963
 Frc consts  --      1.5195                 1.7157                 1.6893
 IR Inten    --      5.1511                 3.8971                47.7677

                     52                     53                     54
                      A                      A                      A
 Frequencies --   1436.9221              1449.0585              1451.2865
 Red. masses --      1.2730                 1.2574                 1.4353
 Frc consts  --      1.5487                 1.5555                 1.7812
 IR Inten    --      1.8402                67.9168                24.5882

                     55                     56                     57
                      A                      A                      A
 Frequencies --   1489.8824              1496.9153              1518.2836
 Red. masses --      1.0944                 1.0909                 1.1455
 Frc consts  --      1.4313                 1.4402                 1.5558
 IR Inten    --      3.4578                 5.0468                 3.1419

                     58                     59                     60
                      A                      A                      A
 Frequencies --   1524.2925              1528.2052              1557.4182
 Red. masses --      1.0642                 1.0624                 1.1609
 Frc consts  --      1.4569                 1.4619                 1.6591
 IR Inten    --      3.7065                 1.1517                 5.2066

                     61                     62                     63
                      A                      A                      A
 Frequencies --   1568.6635              2955.0358              2987.1286
 Red. masses --      1.1243                 1.0732                 1.0842
 Frc consts  --      1.6299                 5.5216                 5.6997
 IR Inten    --     38.2272                57.3571                68.1171

                     64                     65                     66
                      A                      A                      A
 Frequencies --   3036.9124              3043.1336              3045.2784
 Red. masses --      1.0860                 1.0723                 1.0469
 Frc consts  --      5.9015                 5.8508                 5.7204
 IR Inten    --     36.6467                11.1189                38.9502

                     67                     68                     69
                      A                      A                      A
 Frequencies --   3060.4167              3067.7124              3075.6589
 Red. masses --      1.0658                 1.0582                 1.0599
 Frc consts  --      5.8815                 5.8673                 5.9074
 IR Inten    --     34.9078                54.7097                18.2852

                     70                     71                     72
                      A                      A                      A
 Frequencies --   3100.4847              3107.5425              3110.5529
 Red. masses --      1.1024                 1.0989                 1.0926
 Frc consts  --      6.2436                 6.2525                 6.2287
 IR Inten    --     20.1419                35.3627                38.6033

                     73                     74                     75
                      A                      A                      A
 Frequencies --   3121.7449              3128.1457              3134.2753
 Red. masses --      1.1066                 1.1046                 1.1020
 Frc consts  --      6.3541                 6.3686                 6.3784
 IR Inten    --     22.2191                61.1433                27.9595

                     76                     77                     78
                      A                      A                      A
 Frequencies --   3520.6829              3733.6796              3741.5417
 Red. masses --      1.0748                 1.0658                 1.0662
 Frc consts  --      7.8494                 8.7541                 8.7937
 IR Inten    --     56.4945                 5.4978                 9.4484

 - Thermochemistry -
 -------------------
 Temperature   298.150 Kelvin.  Pressure   1.00000 Atm.
 Atom     1 has atomic number  6 and mass  12.00000

 Molecular mass:   159.12593 amu.
 Principal axes and moments of inertia in atomic units:
                           1         2         3
     Eigenvalues --   735.520323939.788054066.84363
           X            0.99993  -0.00841  -0.00873
           Y            0.00825   0.99981  -0.01753
           Z            0.00887   0.01746   0.99981
 This molecule is an asymmetric top.
 Rotational symmetry number  1.
 Warning -- assumption of classical behavior for rotation
           may cause significant error
 Rotational temperatures (Kelvin)      0.11776     0.02198     0.02130
 Rotational constants (GHZ):           2.45369     0.45808     0.44377
 Zero-point vibrational energy     662099.3 (Joules/Mol)
                                  158.24553 (Kcal/Mol)
 Warning -- explicit consideration of  18 degrees of freedom as
           vibrations may cause significant error
 Vibrational temperatures:     33.21    64.20   101.58   147.68   239.41
          (Kelvin)            295.70   342.82   378.11   430.66   462.81
                              475.83   496.96   546.32   593.74   626.37
                              632.92   763.53   872.18   988.33  1089.39
                             1141.29  1165.46  1209.27  1254.85  1321.71
                             1327.34  1344.53  1389.39  1432.87  1443.31
                             1467.39  1492.83  1547.28  1586.83  1637.87
                             1661.29  1667.25  1716.55  1745.57  1766.70
                             1806.22  1812.06  1828.37  1842.29  1872.86
                             1897.53  1915.44  2010.33  2019.11  2034.77
                             2061.73  2067.41  2084.87  2088.08  2143.61
                             2153.73  2184.47  2193.12  2198.75  2240.78
                             2256.96  4251.64  4297.81  4369.44  4378.39
                             4381.48  4403.26  4413.75  4425.19  4460.91
                             4471.06  4475.39  4491.49  4500.70  4509.52
                             5065.48  5371.93  5383.24

 Zero-point correction=                           0.252180 (Hartree/Particle)
 Thermal correction to Energy=                    0.264656
 Thermal correction to Enthalpy=                  0.265601
 Thermal correction to Gibbs Free Energy=         0.212549
 Sum of electronic and zero-point Energies=           -520.015690
 Sum of electronic and thermal Energies=              -520.003214
 Sum of electronic and thermal Enthalpies=            -520.002270
 Sum of electronic and thermal Free Energies=         -520.055321

                     E (Thermal)             CV                S
                      KCal/Mol        Cal/Mol-Kelvin    Cal/Mol-Kelvin
 Total                  166.074             46.917            111.656
 Electronic               0.000              0.000              0.000
 Translational            0.889              2.981             41.103
 Rotational               0.889              2.981             30.845
 Vibrational            164.297             40.956             39.709
 Vibration     1          0.593              1.985              6.350
 Vibration     2          0.595              1.980              5.043
 Vibration     3          0.598              1.968              4.136
 Vibration     4          0.605              1.947              3.403
 Vibration     5          0.624              1.884              2.476
 Vibration     6          0.640              1.832              2.083
 Vibration     7          0.656              1.782              1.816
 Vibration     8          0.670              1.741              1.643
 Vibration     9          0.692              1.675              1.421
 Vibration    10          0.707              1.632              1.302
 Vibration    11          0.713              1.614              1.257
 Vibration    12          0.724              1.585              1.187
 Vibration    13          0.750              1.513              1.040
 Vibration    14          0.776              1.443              0.917
 Vibration    15          0.796              1.393              0.841
 Vibration    16          0.800              1.383              0.827
 Vibration    17          0.886              1.182              0.586
 Vibration    18          0.965              1.019              0.439

 Optimization completed.
    -- Stationary point found.
 Normal termination of Gaussian 16 at Tue Dec  8 19:58:37 2020.

 ----------------------------------------------------------------------
 # B3LYP/6-311++G(d,p) empiricaldispersion=gd3bj scf=xqc pop=npa geom=c
 heck
 ----------------------------------------------------------------------

 ---------------------------------------
 CID_104317365_JID_1388_Energie_neutraal
 ---------------------------------------
 Structure from the checkpoint file:  "JID_1388.chk"
 Charge =  0 Multiplicity = 1

 SCF Done:  E(RB3LYP) =  -520.441099771     A.U. after   13 cycles
 Normal termination of Gaussian 16 at Tue Dec  8 20:01:19 2020.

 ----------------------------------------------------------------------
 # B3LYP/6-311++G(d,p) empiricaldispersion=gd3bj scf=xqc pop=npa geom=c
 heck
 ----------------------------------------------------------------------

 -------------------------------------
 CID_104317365_JID_1388_Energie_kation
 -------------------------------------
 Structure from the checkpoint file:  "JID_1388.chk"
 Charge =  1 Multiplicity = 2

 SCF Done:  E(UB3LYP) =  -520.147573012     A.U. after   19 cycles
 Normal termination of Gaussian 16 at Tue Dec  8 20:07:10 2020.
 Gaussian 16:  ES64L-G16RevA.03 25-Dec-2016

 ----------------------------------------------------------------------
 # B3LYP/6-311++G(d,p) empiricaldispersion=gd3bj scf=xqc pop=npa geom=c
 heck
 ----------------------------------------------------------------------

 ------------------------------------
 CID_104317365_JID_1388_Energie_anion
 ------------------------------------
 Structure from the checkpoint file:  "JID_1388.chk"
 Charge = -1 Multiplicity = 2

                         Standard orientation:
 ---------------------------------------------------------------------
 Center     Atomic      Atomic             Coordinates (Angstroms)
 Number     Number       Type             X           Y           Z
 ---------------------------------------------------------------------
      1          6           0        2.886899   -1.296144   -0.899193
      2          6           0        3.087665   -0.086154    0.012460
      3          6           0        2.285802    1.152687   -0.405878
      4          6           0        0.781080    0.947245   -0.605393
      5          7           0        0.111398    0.691093    0.664135
      6          6           0       -1.248003    0.209394    0.607422
      7          6           0       -1.709053   -1.015511   -0.261973
      8          6           0       -3.027504   -0.249947   -0.556822
      9          6           0       -2.321808    1.063091   -0.121607
     10          8           0       -4.133955   -0.631501    0.247621
     11          8           0        2.716743   -0.403526    1.364780
     12          1           0        1.852954   -1.651885   -0.853150
     13          1           0        3.543191   -2.121801   -0.595634
     14          1           0        3.124574   -1.050825   -1.940359
     15          1           0        4.153652    0.193135   -0.005453
     16          1           0        2.441937    1.929021    0.351973
     17          1           0        2.716145    1.521574   -1.345283
     18          1           0        0.368110    1.862863   -1.048057
     19          1           0        0.622639    0.151426   -1.355745
     20          1           0        0.691297    0.075745    1.229110
     21          1           0       -1.558469    0.042170    1.646784
     22          1           0       -1.809861   -1.990157    0.227662
     23          1           0       -1.102185   -1.133844   -1.165636
     24          1           0       -3.398937   -0.289129   -1.583567
     25          1           0       -1.900923    1.591312   -0.982992
     26          1           0       -2.911256    1.770781    0.470397
     27          1           0       -3.857466   -0.582299    1.176233
     28          1           0        3.172037   -1.223474    1.611469
 ---------------------------------------------------------------------

 SCF Done:  E(UB3LYP) =  -520.429790867     A.U. after   25 cycles

 The electronic state is 2-A.
 Alpha  occ. eigenvalues --  -19.03343 -19.01341 -14.18487 -10.12811 -10.11406
 Alpha  occ. eigenvalues --  -10.10156 -10.08560 -10.06986 -10.06472 -10.06140
 Alpha  occ. eigenvalues --  -10.05059  -0.93557  -0.91460  -0.80459  -0.72409
 Alpha  occ. eigenvalues --   -0.67301  -0.61085  -0.57011  -0.55650  -0.53139
 Alpha  occ. eigenvalues --   -0.47306  -0.45240  -0.42105  -0.40381  -0.38982
 Alpha  occ. eigenvalues --   -0.37660  -0.35477  -0.33284  -0.32872  -0.31988
 Alpha  occ. eigenvalues --   -0.31516  -0.29451  -0.28946  -0.27543  -0.27018
 Alpha  occ. eigenvalues --   -0.26019  -0.24776  -0.24050  -0.22995  -0.21815
 Alpha  occ. eigenvalues --   -0.20384  -0.17506  -0.16903  -0.11485   0.04453
 Alpha virt. eigenvalues --    0.06325   0.07106   0.08172   0.08859   0.09467
 Alpha virt. eigenvalues --    0.09779   0.10615   0.10986   0.11633   0.11845
 Alpha virt. eigenvalues --    0.12148   0.13133   0.14112   0.15013   0.15372

  Beta  occ. eigenvalues --  -19.03323 -19.01293 -14.18481 -10.12807 -10.11387
  Beta  occ. eigenvalues --  -10.10145 -10.08543 -10.06978 -10.06458 -10.06125
  Beta  occ. eigenvalues --  -10.05003  -0.93516  -0.91357  -0.80441  -0.72389
  Beta  occ. eigenvalues --   -0.67240  -0.61024  -0.56983  -0.55591  -0.53084
  Beta  occ. eigenvalues --   -0.47241  -0.45192  -0.42045  -0.40323  -0.38934
  Beta  occ. eigenvalues --   -0.37617  -0.35439  -0.33218  -0.32838  -0.31954
  Beta  occ. eigenvalues --   -0.31493  -0.29412  -0.28926  -0.27495  -0.26985
  Beta  occ. eigenvalues --   -0.25967  -0.24743  -0.24021  -0.22960  -0.21770
  Beta  occ. eigenvalues --   -0.20351  -0.17487  -0.16839  -0.11472
  Beta virt. eigenvalues --    0.06679   0.07300   0.07868   0.08537   0.09669
  Beta virt. eigenvalues --    0.09875   0.10199   0.10910   0.11296   0.11983
  Beta virt. eigenvalues --    0.12325   0.12486   0.13534   0.14239   0.15245

 Mulliken charges and spin densities:
               1          2
     1  C    1.737101  -2.394754
     2  C   -0.812974   0.875046
     3  C    1.017462  -1.540397
     4  C   -0.193881  -0.040289
     5  N    0.000832  -0.024750
     6  C   -0.800241   0.619333
     7  C    0.368033  -0.560254
     8  C   -0.276060  -0.151001
     9  C    0.206945  -0.468119
    10  O   -0.194926  -0.015118
    11  O   -0.234651  -0.032037
    12  H   -0.086244   0.248347
    13  H   -0.878094   1.034278
    14  H   -0.205765   0.340845
    15  H   -0.533452   0.723724
    16  H    0.156914   0.031200
    17  H   -0.378171   0.527390
    18  H    0.043151   0.106678
    19  H    0.061578   0.012581
    20  H    0.433862  -0.148417
    21  H   -0.452802   0.634991
    22  H   -0.049253   0.222045
    23  H   -0.038208   0.133190
    24  H    0.119201   0.071343
    25  H   -0.078304   0.172862
    26  H    0.091154   0.086312
    27  H    0.121190   0.124088
    28  H   -0.144397   0.410882
 Sum of Mulliken charges =  -1.00000   1.00000

 Dipole moment (field-independent basis, Debye):
    X=             -6.2556    Y=              3.2293    Z=             -0.8526  Tot=              7.0913
 Quadrupole moment (field-independent basis, Debye-Ang):
   XX=           -157.2857   YY=           -105.6750   ZZ=           -100.9217
   XY=              9.1013   XZ=              3.0808   YZ=              1.3614

 Summary of Natural Population Analysis:

                                       Natural Population
                Natural  -----------------------------------------------
    Atom  No    Charge         Core      Valence    Rydberg      Total
 -----------------------------------------------------------------------
      C    1   -0.30074      0.99965     2.29457    0.00652     3.30074
      C    2    0.06228      0.99958     1.92335    0.01479     2.93772
      C    3   -0.19862      0.99960     2.18841    0.01061     3.19862
      C    4   -0.09029      0.99962     2.07966    0.01101     3.09029
      N    5   -0.34744      0.99971     2.83666    0.01107     3.84744
      C    6   -0.00600      0.99961     1.99164    0.01476     3.00600
      C    7   -0.21478      0.99961     2.20666    0.00850     3.21478
      C    8    0.06228      0.99958     1.92316    0.01497     2.93772
      C    9   -0.20700      0.99961     2.19983    0.00755     3.20700
      O   10   -0.36962      0.99990     3.36322    0.00651     4.36962
      O   11   -0.38318      0.99989     3.37608    0.00721     4.38318
      H   12    0.09862      0.00000     0.39972    0.00166     0.40138
      H   13    0.10417      0.00000     0.39232    0.00352     0.39583
      H   14    0.10308      0.00000     0.39511    0.00182     0.39692
      H   15    0.07970      0.00000     0.41797    0.00233     0.42030
      H   16    0.10303      0.00000     0.39553    0.00144     0.39697
      H   17    0.10273      0.00000     0.39614    0.00113     0.39727
      H   18    0.08849      0.00000     0.40994    0.00158     0.41151
      H   19    0.07974      0.00000     0.41833    0.00193     0.42026
      H   20    0.19364      0.00000     0.30254    0.00381     0.30636
      H   21    0.09138      0.00000     0.40724    0.00138     0.40862
      H   22    0.10073      0.00000     0.39794    0.00133     0.39927
      H   23    0.10170      0.00000     0.39688    0.00142     0.39830
      H   24    0.08297      0.00000     0.41602    0.00101     0.41703
      H   25    0.10161      0.00000     0.39704    0.00135     0.39839
      H   26    0.09863      0.00000     0.40017    0.00119     0.40137
      H   27    0.22603      0.00000     0.27086    0.00312     0.27397
      H   28    0.23686      0.00000     0.25627    0.00687     0.26314
 =======================================================================
   * Total *   -0.00000     10.99636    32.85327    0.15037    44.00000

 Normal termination of Gaussian 16 at Tue Dec  8 20:14:34 2020.
