 Gaussian 16, Revision A.03,

 -----------------------------------------------------------
 # opt freq B3LYP/6-31G(d) empiricaldispersion=gd3bj scf=xqc
 -----------------------------------------------------------

 -------------------------------
 CID_143241070_JID_5074_neutraal
 -------------------------------
 Symbolic Z-matrix:
 Charge =  0 Multiplicity = 1

 SCF Done:  E(RB3LYP) =  -675.195696953     A.U. after   15 cycles
 SCF Done:  E(RB3LYP) =  -675.198581220     A.U. after   12 cycles
 SCF Done:  E(RB3LYP) =  -675.198839344     A.U. after   12 cycles
 SCF Done:  E(RB3LYP) =  -675.199003456     A.U. after   12 cycles
 SCF Done:  E(RB3LYP) =  -675.199163857     A.U. after   10 cycles
 SCF Done:  E(RB3LYP) =  -675.199299052     A.U. after   12 cycles
 SCF Done:  E(RB3LYP) =  -675.199451752     A.U. after   12 cycles
 SCF Done:  E(RB3LYP) =  -675.199548346     A.U. after   11 cycles
 SCF Done:  E(RB3LYP) =  -675.199947273     A.U. after   12 cycles
 SCF Done:  E(RB3LYP) =  -675.200006653     A.U. after   10 cycles
 SCF Done:  E(RB3LYP) =  -675.200894639     A.U. after    8 cycles
 SCF Done:  E(RB3LYP) =  -675.200894803     A.U. after    7 cycles
 SCF Done:  E(RB3LYP) =  -675.200894930     A.U. after    7 cycles
 SCF Done:  E(RB3LYP) =  -675.200894984     A.U. after    7 cycles
 SCF Done:  E(RB3LYP) =  -675.200895008     A.U. after    6 cycles
 Optimization completed.
    -- Stationary point found.
 Normal termination of Gaussian 16 at Mon Dec 14 19:12:53 2020.

 --------------------------------------------------------------------
 #N Geom=AllCheck Guess=TCheck SCRF=Check GenChk RB3LYP/6-31G(d) Freq
 --------------------------------------------------------------------

 Structure from the checkpoint file:  "JID_5074.chk"
 -------------------------------
 CID_143241070_JID_5074_neutraal
 -------------------------------
 Charge =  0 Multiplicity = 1

 SCF Done:  E(RB3LYP) =  -675.200895008     A.U. after    1 cycles

  Exact polarizability: 177.383   6.592 111.449  -3.281   8.983 128.251
 Approx polarizability: 234.190   9.436 149.388  -4.846  21.788 206.347

 ******    1 imaginary frequencies (negative Signs) ******

                      1                      2                      3
                      A                      A                      A
 Frequencies --    -12.5140                23.7665                28.4910
 Red. masses --      1.7973                 2.8662                 3.6086
 Frc consts  --      0.0002                 0.0010                 0.0017
 IR Inten    --      0.0150                 0.0015                 0.0150

                      4                      5                      6
                      A                      A                      A
 Frequencies --     45.7372                58.7853                69.5745
 Red. masses --      4.2773                 1.5843                 3.7377
 Frc consts  --      0.0053                 0.0032                 0.0107
 IR Inten    --      0.6213                 0.0142                 0.7186

                      7                      8                      9
                      A                      A                      A
 Frequencies --     80.1684                89.8767                95.7894
 Red. masses --      1.8249                 2.6184                 3.9539
 Frc consts  --      0.0069                 0.0125                 0.0214
 IR Inten    --      0.0089                 0.4387                 0.6032

                     10                     11                     12
                      A                      A                      A
 Frequencies --    105.8912               130.7399               153.3915
 Red. masses --      3.0695                 1.2611                 2.5913
 Frc consts  --      0.0203                 0.0127                 0.0359
 IR Inten    --      8.0311                 0.1278                 0.0057

                     13                     14                     15
                      A                      A                      A
 Frequencies --    208.9898               228.2293               241.7895
 Red. masses --      3.0460                 1.5905                 1.8086
 Frc consts  --      0.0784                 0.0488                 0.0623
 IR Inten    --      2.8610                 0.7753                 0.1870

                     16                     17                     18
                      A                      A                      A
 Frequencies --    279.7927               282.4702               297.5787
 Red. masses --      1.2277                 2.5121                 1.0472
 Frc consts  --      0.0566                 0.1181                 0.0546
 IR Inten    --      0.0994                 1.1392                 0.0228

                     19                     20                     21
                      A                      A                      A
 Frequencies --    320.8223               321.8021               346.7671
 Red. masses --      1.0337                 3.5754                 2.6569
 Frc consts  --      0.0627                 0.2181                 0.1882
 IR Inten    --      0.3269                10.6678                 4.7757

                     22                     23                     24
                      A                      A                      A
 Frequencies --    347.9454               420.9114               435.4446
 Red. masses --      2.7047                 3.8384                 3.3648
 Frc consts  --      0.1929                 0.4007                 0.3759
 IR Inten    --      2.0560                 0.1035                12.5969

                     25                     26                     27
                      A                      A                      A
 Frequencies --    456.4435               517.1859               523.6741
 Red. masses --      3.6515                 1.3538                 3.6317
 Frc consts  --      0.4482                 0.2134                 0.5868
 IR Inten    --      3.6584                62.5798                 2.3645

                     28                     29                     30
                      A                      A                      A
 Frequencies --    614.6888               628.3809               706.8688
 Red. masses --      3.4518                 2.9478                 3.4125
 Frc consts  --      0.7684                 0.6858                 1.0046
 IR Inten    --      0.8121                 3.1407                 4.8088

                     31                     32                     33
                      A                      A                      A
 Frequencies --    747.1621               795.6068               804.6948
 Red. masses --      2.2919                 1.9497                 5.1222
 Frc consts  --      0.7538                 0.7272                 1.9542
 IR Inten    --     38.9078                 7.4185                 9.3509

                     34                     35                     36
                      A                      A                      A
 Frequencies --    831.3050               835.0904               837.5630
 Red. masses --      1.0586                 1.0611                 2.7176
 Frc consts  --      0.4310                 0.4360                 1.1232
 IR Inten    --      3.7738                 4.2719                 0.6308

                     37                     38                     39
                      A                      A                      A
 Frequencies --    848.8159               938.3350               952.5771
 Red. masses --      1.5448                 1.7843                 1.8796
 Frc consts  --      0.6558                 0.9256                 1.0049
 IR Inten    --     21.0999                 0.3132                 2.4018

                     40                     41                     42
                      A                      A                      A
 Frequencies --    965.5329               976.3193               981.5860
 Red. masses --      4.7866                 1.1993                 3.2043
 Frc consts  --      2.6292                 0.6735                 1.8190
 IR Inten    --     11.5460                 0.3256                17.9364

                     43                     44                     45
                      A                      A                      A
 Frequencies --   1012.8347              1044.3216              1058.8252
 Red. masses --      3.2468                 4.4401                 1.4203
 Frc consts  --      1.9624                 2.8531                 0.9382
 IR Inten    --      0.1119                30.9789                 2.5649

                     46                     47                     48
                      A                      A                      A
 Frequencies --   1062.2881              1121.5259              1145.2141
 Red. masses --      1.3932                 1.7465                 1.3874
 Frc consts  --      0.9263                 1.2943                 1.0721
 IR Inten    --      0.3881                 9.7800                74.6497

                     49                     50                     51
                      A                      A                      A
 Frequencies --   1186.3585              1202.2014              1226.8027
 Red. masses --      1.2745                 2.5215                 1.8983
 Frc consts  --      1.0568                 2.1471                 1.6833
 IR Inten    --      0.7701                78.1330               107.6423

                     52                     53                     54
                      A                      A                      A
 Frequencies --   1230.4952              1234.4541              1235.7466
 Red. masses --      2.0428                 1.4835                 1.4732
 Frc consts  --      1.8223                 1.3320                 1.3255
 IR Inten    --    150.2071                 8.7545                 2.8270

                     55                     56                     57
                      A                      A                      A
 Frequencies --   1243.2524              1260.8452              1307.9579
 Red. masses --      2.6543                 2.3085                 2.9390
 Frc consts  --      2.4173                 2.1623                 2.9624
 IR Inten    --      6.0322                46.3544               158.6238

                     58                     59                     60
                      A                      A                      A
 Frequencies --   1389.0221              1420.9316              1426.7988
 Red. masses --      4.3717                 2.2273                 1.2131
 Frc consts  --      4.9696                 2.6496                 1.4551
 IR Inten    --     92.4890                11.9846                 4.3687

                     61                     62                     63
                      A                      A                      A
 Frequencies --   1430.9415              1434.6605              1454.4441
 Red. masses --      1.9456                 1.2081                 1.4454
 Frc consts  --      2.3472                 1.4650                 1.8015
 IR Inten    --      6.3256                 0.5468                10.7496

                     64                     65                     66
                      A                      A                      A
 Frequencies --   1455.6368              1465.2545              1491.8392
 Red. masses --      1.3361                 1.8439                 1.2458
 Frc consts  --      1.6680                 2.3324                 1.6336
 IR Inten    --      8.0109                15.6602                 6.2859

                     67                     68                     69
                      A                      A                      A
 Frequencies --   1510.5399              1511.5899              1512.8078
 Red. masses --      1.0477                 1.0486                 1.0467
 Frc consts  --      1.4085                 1.4117                 1.4114
 IR Inten    --      0.0937                 4.7825                 1.4349

                     70                     71                     72
                      A                      A                      A
 Frequencies --   1518.1414              1526.8905              1531.1693
 Red. masses --      1.0496                 1.0566                 1.0290
 Frc consts  --      1.4253                 1.4514                 1.4213
 IR Inten    --      0.9291                14.8049                 4.4098

                     73                     74                     75
                      A                      A                      A
 Frequencies --   1531.9645              1533.8018              1535.6606
 Red. masses --      1.0387                 1.0480                 1.0550
 Frc consts  --      1.4363                 1.4526                 1.4658
 IR Inten    --      3.0443                 6.2881                 1.9678

                     76                     77                     78
                      A                      A                      A
 Frequencies --   1537.3687              1538.6544              1542.9159
 Red. masses --      1.0611                 1.0623                 1.2695
 Frc consts  --      1.4776                 1.4817                 1.7806
 IR Inten    --     11.3014                 6.7134                 7.0215

                     79                     80                     81
                      A                      A                      A
 Frequencies --   1564.9147              1634.4036              1796.4594
 Red. masses --      2.8934                 4.1986                11.7635
 Frc consts  --      4.1749                 6.6081                22.3677
 IR Inten    --    106.7816                37.3127               299.7950

                     82                     83                     84
                      A                      A                      A
 Frequencies --   3042.1373              3044.5898              3046.5479
 Red. masses --      1.0355                 1.0357                 1.0354
 Frc consts  --      5.6463                 5.6563                 5.6619
 IR Inten    --     19.6849                27.2041                41.4207

                     85                     86                     87
                      A                      A                      A
 Frequencies --   3054.7211              3055.0374              3069.9626
 Red. masses --      1.0372                 1.0356                 1.0296
 Frc consts  --      5.7023                 5.6950                 5.7174
 IR Inten    --     26.8904                 7.9163                44.2928

                     88                     89                     90
                      A                      A                      A
 Frequencies --   3096.1571              3102.8091              3103.1841
 Red. masses --      1.1013                 1.1014                 1.1019
 Frc consts  --      6.2203                 6.2477                 6.2517
 IR Inten    --      4.1099                21.2262                 0.9250

                     91                     92                     93
                      A                      A                      A
 Frequencies --   3109.0489              3121.6168              3121.9219
 Red. masses --      1.1013                 1.1026                 1.1027
 Frc consts  --      6.2720                 6.3306                 6.3324
 IR Inten    --     68.6016                64.9872                17.3260

                     94                     95                     96
                      A                      A                      A
 Frequencies --   3124.7796              3127.8563              3133.0287
 Red. masses --      1.1030                 1.1023                 1.1013
 Frc consts  --      6.3456                 6.3541                 6.3691
 IR Inten    --     20.8165                48.0880                39.4602

                     97                     98                     99
                      A                      A                      A
 Frequencies --   3137.4989              3141.3182              3173.9411
 Red. masses --      1.1014                 1.1071                 1.1067
 Frc consts  --      6.3881                 6.4365                 6.5688
 IR Inten    --     30.4250                25.4015                20.9950

                    100                    101                    102
                      A                      A                      A
 Frequencies --   3290.3536              3297.0217              3664.4799
 Red. masses --      1.0955                 1.0977                 1.0799
 Frc consts  --      6.9882                 7.0306                 8.5437
 IR Inten    --      1.1593                 0.9505                48.9151

 - Thermochemistry -
 -------------------
 Temperature   298.150 Kelvin.  Pressure   1.00000 Atm.
 Atom     1 has atomic number  6 and mass  12.00000

 Molecular mass:   211.15723 amu.
 Principal axes and moments of inertia in atomic units:
                           1         2         3
     Eigenvalues --  2610.031765328.791566396.83799
           X            0.99998  -0.00011  -0.00645
           Y            0.00011   1.00000   0.00039
           Z            0.00645  -0.00040   0.99998
 This molecule is an asymmetric top.
 Rotational symmetry number  1.
 Warning -- assumption of classical behavior for rotation
           may cause significant error
 Rotational temperatures (Kelvin)      0.03319     0.01625     0.01354
 Rotational constants (GHZ):           0.69146     0.33868     0.28213
    1 imaginary frequencies ignored.
 Zero-point vibrational energy     828441.1 (Joules/Mol)
                                  198.00217 (Kcal/Mol)
 Warning -- explicit consideration of  27 degrees of freedom as
           vibrations may cause significant error
 Vibrational temperatures:     34.19    40.99    65.81    84.58   100.10
          (Kelvin)            115.34   129.31   137.82   152.35   188.11
                              220.70   300.69   328.37   347.88   402.56
                              406.41   428.15   461.59   463.00   498.92
                              500.62   605.60   626.51   656.72   744.12
                              753.45   884.40   904.10  1017.03  1075.00
                             1144.70  1157.78  1196.06  1201.51  1205.07
                             1221.26  1350.05  1370.55  1389.19  1404.71
                             1412.28  1457.24  1502.55  1523.41  1528.40
                             1613.63  1647.71  1706.91  1729.70  1765.10
                             1770.41  1776.10  1777.96  1788.76  1814.08
                             1881.86  1998.49  2044.40  2052.85  2058.81
                             2064.16  2092.62  2094.34  2108.17  2146.42
                             2173.33  2174.84  2176.59  2184.27  2196.85
                             2203.01  2204.16  2206.80  2209.47  2211.93
                             2213.78  2219.91  2251.56  2351.54  2584.70
                             4376.96  4380.49  4383.30  4395.06  4395.52
                             4416.99  4454.68  4464.25  4464.79  4473.23
                             4491.31  4491.75  4495.86  4500.29  4507.73
                             4514.16  4519.66  4566.59  4734.08  4743.68
                             5272.37

 Zero-point correction=                           0.315537 (Hartree/Particle)
 Thermal correction to Energy=                    0.334100
 Thermal correction to Enthalpy=                  0.335044
 Thermal correction to Gibbs Free Energy=         0.266786
 Sum of electronic and zero-point Energies=           -674.885358
 Sum of electronic and thermal Energies=              -674.866795
 Sum of electronic and thermal Enthalpies=            -674.865851
 Sum of electronic and thermal Free Energies=         -674.934109

                     E (Thermal)             CV                S
                      KCal/Mol        Cal/Mol-Kelvin    Cal/Mol-Kelvin
 Total                  209.651             65.539            143.662
 Electronic               0.000              0.000              0.000
 Translational            0.889              2.981             41.946
 Rotational               0.889              2.981             32.853
 Vibrational            207.873             59.577             68.863
 Vibration     1          0.593              1.985              6.292
 Vibration     2          0.593              1.984              5.932
 Vibration     3          0.595              1.979              4.994
 Vibration     4          0.596              1.974              4.498
 Vibration     5          0.598              1.969              4.165
 Vibration     6          0.600              1.963              3.887
 Vibration     7          0.602              1.956              3.663
 Vibration     8          0.603              1.952              3.538
 Vibration     9          0.605              1.945              3.343
 Vibration    10          0.612              1.923              2.935
 Vibration    11          0.619              1.899              2.630
 Vibration    12          0.642              1.827              2.052
 Vibration    13          0.651              1.798              1.893
 Vibration    14          0.658              1.776              1.790
 Vibration    15          0.680              1.711              1.535
 Vibration    16          0.682              1.706              1.519
 Vibration    17          0.691              1.678              1.430
 Vibration    18          0.706              1.634              1.306
 Vibration    19          0.707              1.632              1.301
 Vibration    20          0.725              1.582              1.181
 Vibration    21          0.726              1.579              1.175
 Vibration    22          0.783              1.425              0.889
 Vibration    23          0.796              1.393              0.841
 Vibration    24          0.815              1.347              0.777
 Vibration    25          0.872              1.212              0.617
 Vibration    26          0.879              1.198              0.602
 Vibration    27          0.974              1.001              0.425

                           ! Non-Optimized Parameters !
 Normal termination of Gaussian 16 at Mon Dec 14 19:24:01 2020.

 ----------------------------------------------------------------------
 # B3LYP/6-311++G(d,p) empiricaldispersion=gd3bj scf=xqc pop=npa geom=c
 heck
 ----------------------------------------------------------------------

 ---------------------------------------
 CID_143241070_JID_5074_Energie_neutraal
 ---------------------------------------
 Structure from the checkpoint file:  "JID_5074.chk"
 Charge =  0 Multiplicity = 1

 SCF Done:  E(RB3LYP) =  -675.397321928     A.U. after   14 cycles
 Normal termination of Gaussian 16 at Mon Dec 14 19:29:18 2020.

 ----------------------------------------------------------------------
 # B3LYP/6-311++G(d,p) empiricaldispersion=gd3bj scf=xqc pop=npa geom=c
 heck
 ----------------------------------------------------------------------

 -------------------------------------
 CID_143241070_JID_5074_Energie_kation
 -------------------------------------
 Structure from the checkpoint file:  "JID_5074.chk"
 Charge =  1 Multiplicity = 2

 SCF Done:  E(UB3LYP) =  -675.105444573     A.U. after   20 cycles
 Normal termination of Gaussian 16 at Mon Dec 14 19:39:52 2020.
 Gaussian 16:  ES64L-G16RevA.03 25-Dec-2016

 ----------------------------------------------------------------------
 # B3LYP/6-311++G(d,p) empiricaldispersion=gd3bj scf=xqc pop=npa geom=c
 heck
 ----------------------------------------------------------------------

 ------------------------------------
 CID_143241070_JID_5074_Energie_anion
 ------------------------------------
 Structure from the checkpoint file:  "JID_5074.chk"
 Charge = -1 Multiplicity = 2

                         Standard orientation:
 ---------------------------------------------------------------------
 Center     Atomic      Atomic             Coordinates (Angstroms)
 Number     Number       Type             X           Y           Z
 ---------------------------------------------------------------------
      1          6           0       -0.380062    2.983028    0.067633
      2          6           0       -1.381322    3.866223   -0.678616
      3          6           0       -3.277027    0.271318   -0.155790
      4          6           0       -2.413896   -1.006054   -0.250177
      5          6           0       -3.037731   -2.113630    0.627008
      6          6           0       -2.380077   -1.480526   -1.711370
      7          6           0       -1.007301   -0.712139    0.215473
      8          6           0        0.211991   -0.793071   -0.420301
      9          6           0        1.221585   -0.380415    0.508261
     10          6           0        0.584047   -0.059098    1.693471
     11          7           0       -0.751510   -0.265397    1.506373
     12          6           0        2.666722   -0.276117    0.316614
     13          8           0        3.465191    0.090136    1.160623
     14          8           0        3.035018   -0.639922   -0.940424
     15          6           0        4.440297   -0.558697   -1.202179
     16          1           0       -0.287334    1.996053   -0.395681
     17          1           0       -0.684090    2.827539    1.108943
     18          1           0        0.617626    3.435820    0.082078
     19          1           0       -1.080278    4.016116   -1.721985
     20          1           0       -2.382101    3.417920   -0.686156
     21          1           0       -1.468908    4.855906   -0.215291
     22          1           0       -4.300967    0.066789   -0.489458
     23          1           0       -2.861088    1.067594   -0.780611
     24          1           0       -3.333689    0.649347    0.872013
     25          1           0       -4.054965   -2.342345    0.288688
     26          1           0       -2.441776   -3.030726    0.577236
     27          1           0       -3.100218   -1.811278    1.679291
     28          1           0       -1.950152   -0.713764   -2.364317
     29          1           0       -1.784147   -2.393164   -1.816534
     30          1           0       -3.395932   -1.694687   -2.060464
     31          1           0        0.386187   -1.108530   -1.437293
     32          1           0        0.994300    0.296315    2.626079
     33          1           0       -1.460399   -0.096627    2.203404
     34          1           0        4.799577    0.466071   -1.072396
     35          1           0        4.998486   -1.213273   -0.526905
     36          1           0        4.565407   -0.879937   -2.237009
 ---------------------------------------------------------------------

 SCF Done:  E(UB3LYP) =  -675.388539383     A.U. after   33 cycles
 SCF Done:  E(UB3LYP) =  -675.388539383     a.u. after    1 cycles

 The electronic state is 2-A.
 Alpha  occ. eigenvalues --  -19.07447 -19.00919 -14.26306 -10.20351 -10.14053
 Alpha  occ. eigenvalues --  -10.10699 -10.10327 -10.09819 -10.07348 -10.06396
 Alpha  occ. eigenvalues --  -10.06384 -10.06253 -10.06060 -10.05901 -10.05396
 Alpha  occ. eigenvalues --   -1.01142  -0.92095  -0.88749  -0.72870  -0.69985
 Alpha  occ. eigenvalues --   -0.65368  -0.64468  -0.62502  -0.59188  -0.58871
 Alpha  occ. eigenvalues --   -0.53509  -0.51731  -0.50260  -0.47682  -0.46432
 Alpha  occ. eigenvalues --   -0.41302  -0.39492  -0.39275  -0.37802  -0.35736
 Alpha  occ. eigenvalues --   -0.35086  -0.34381  -0.33704  -0.33608  -0.33100
 Alpha  occ. eigenvalues --   -0.32464  -0.31645  -0.30463  -0.29953  -0.28383
 Alpha  occ. eigenvalues --   -0.28346  -0.27197  -0.27058  -0.26846  -0.24809
 Alpha  occ. eigenvalues --   -0.24538  -0.24427  -0.23779  -0.23468  -0.21630
 Alpha  occ. eigenvalues --   -0.18552  -0.15927  -0.12296   0.04115
 Alpha virt. eigenvalues --    0.05951   0.06991   0.07036   0.07141   0.08384
 Alpha virt. eigenvalues --    0.09014   0.09312   0.09631   0.09827   0.10446
 Alpha virt. eigenvalues --    0.10566   0.11117   0.11749   0.12015   0.12334

  Beta  occ. eigenvalues --  -19.07444 -19.00917 -14.26249 -10.20349 -10.14044
  Beta  occ. eigenvalues --  -10.10690 -10.10328 -10.09817 -10.07349 -10.06377
  Beta  occ. eigenvalues --  -10.06370 -10.06236 -10.06016 -10.05857 -10.05380
  Beta  occ. eigenvalues --   -1.01138  -0.92091  -0.88691  -0.72850  -0.69940
  Beta  occ. eigenvalues --   -0.65342  -0.64438  -0.62475  -0.59128  -0.58792
  Beta  occ. eigenvalues --   -0.53459  -0.51676  -0.50203  -0.47618  -0.46412
  Beta  occ. eigenvalues --   -0.41250  -0.39484  -0.39238  -0.37788  -0.35699
  Beta  occ. eigenvalues --   -0.35037  -0.34346  -0.33681  -0.33587  -0.33072
  Beta  occ. eigenvalues --   -0.32438  -0.31612  -0.30444  -0.29929  -0.28352
  Beta  occ. eigenvalues --   -0.28311  -0.27186  -0.27016  -0.26802  -0.24777
  Beta  occ. eigenvalues --   -0.24515  -0.24409  -0.23743  -0.23423  -0.21625
  Beta  occ. eigenvalues --   -0.18549  -0.15900  -0.12290
  Beta virt. eigenvalues --    0.05902   0.06701   0.07012   0.07459   0.08203
  Beta virt. eigenvalues --    0.08771   0.09336   0.09593   0.09690   0.10022
  Beta virt. eigenvalues --    0.10748   0.10859   0.11377   0.12033   0.12211

 Mulliken charges and spin densities:
               1          2
     1  C   -0.675897   0.365832
     2  C    0.251130  -0.789246
     3  C    0.792753  -1.397997
     4  C   -2.093424   2.384978
     5  C    0.584664  -1.180442
     6  C   -0.354129  -0.235779
     7  C    1.265540  -1.281949
     8  C   -0.072790  -0.460809
     9  C    2.382449  -1.944747
    10  C   -0.458307   0.232588
    11  N   -0.230346   0.172772
    12  C   -0.655368   0.625711
    13  O   -0.289447   0.001631
    14  O   -0.095369   0.005754
    15  C   -0.018846  -0.207150
    16  H    0.427791  -0.232881
    17  H    0.040894   0.091144
    18  H    0.019347   0.111476
    19  H   -0.008916   0.132559
    20  H   -0.092485   0.231956
    21  H   -0.095811   0.215794
    22  H   -0.316989   0.477195
    23  H    0.441961  -0.299310
    24  H   -0.501692   0.653097
    25  H   -0.335901   0.489576
    26  H    0.116843   0.035243
    27  H   -0.475506   0.624480
    28  H   -0.158462   0.287170
    29  H   -0.016696   0.152635
    30  H   -0.141357   0.308774
    31  H    0.140911   0.053973
    32  H   -0.393726   0.584831
    33  H   -0.150552   0.484196
    34  H    0.095413   0.073735
    35  H    0.105273   0.063821
    36  H   -0.032955   0.169386
 Sum of Mulliken charges =  -1.00000   1.00000

 Dipole moment (field-independent basis, Debye):
    X=              6.1557    Y=             -0.7115    Z=             -4.2894  Tot=              7.5365
 Quadrupole moment (field-independent basis, Debye-Ang):
   XX=           -164.8730   YY=           -135.5966   ZZ=           -138.4668
   XY=             -3.8706   XZ=              1.9049   YZ=             -0.9742

 Summary of Natural Population Analysis:

                                       Natural Population
                Natural  -----------------------------------------------
    Atom  No    Charge         Core      Valence    Rydberg      Total
 -----------------------------------------------------------------------
      C    1   -0.28759      0.99968     2.28353    0.00438     3.28759
      C    2   -0.28510      0.99969     2.28186    0.00356     3.28510
      C    3   -0.27870      0.99963     2.27151    0.00756     3.27870
      C    4   -0.06423      0.99955     2.05229    0.01239     3.06423
      C    5   -0.27827      0.99963     2.27158    0.00706     3.27827
      C    6   -0.28088      0.99964     2.27422    0.00702     3.28088
      C    7    0.08092      0.99950     1.90271    0.01688     2.91908
      C    8   -0.12750      0.99946     2.12100    0.00704     3.12750
      C    9   -0.12347      0.99946     2.11374    0.01027     3.12347
      C   10    0.01961      0.99953     1.96782    0.01304     2.98039
      N   11   -0.25935      0.99965     2.74821    0.01150     3.75935
      C   12    0.39836      0.99960     1.57872    0.02332     2.60164
      O   13   -0.31696      0.99988     3.31207    0.00502     4.31696
      O   14   -0.27866      0.99987     3.27085    0.00794     4.27866
      C   15   -0.10444      0.99960     2.09650    0.00833     3.10444
      H   16    0.10253      0.00000     0.39563    0.00183     0.39747
      H   17    0.09773      0.00000     0.40081    0.00147     0.40227
      H   18    0.09225      0.00000     0.40668    0.00107     0.40775
      H   19    0.09177      0.00000     0.40714    0.00109     0.40823
      H   20    0.09677      0.00000     0.40207    0.00116     0.40323
      H   21    0.09200      0.00000     0.40694    0.00106     0.40800
      H   22    0.09994      0.00000     0.39881    0.00125     0.40006
      H   23    0.10094      0.00000     0.39759    0.00146     0.39906
      H   24    0.10300      0.00000     0.39460    0.00241     0.39700
      H   25    0.10015      0.00000     0.39867    0.00118     0.39985
      H   26    0.10031      0.00000     0.39871    0.00098     0.39969
      H   27    0.10312      0.00000     0.39494    0.00194     0.39688
      H   28    0.10166      0.00000     0.39736    0.00099     0.39834
      H   29    0.10093      0.00000     0.39815    0.00092     0.39907
      H   30    0.10148      0.00000     0.39767    0.00085     0.39852
      H   31    0.11253      0.00000     0.38607    0.00140     0.38747
      H   32    0.10887      0.00000     0.39007    0.00106     0.39113
      H   33    0.21297      0.00000     0.27577    0.01126     0.28703
      H   34    0.08978      0.00000     0.40873    0.00149     0.41022
      H   35    0.08905      0.00000     0.40950    0.00145     0.41095
      H   36    0.08851      0.00000     0.41041    0.00108     0.41149
 =======================================================================
   * Total *    0.00000     14.99436    42.82293    0.18271    58.00000

 Normal termination of Gaussian 16 at Mon Dec 14 19:57:01 2020.
