 Gaussian 16, Revision A.03,

 -----------------------------------------------------------
 # opt freq B3LYP/6-31G(d) empiricaldispersion=gd3bj scf=xqc
 -----------------------------------------------------------

 ------------------------------
 CID_58436715_JID_4908_neutraal
 ------------------------------
 Symbolic Z-matrix:
 Charge =  0 Multiplicity = 1

 SCF Done:  E(RB3LYP) =  -599.961539180     A.U. after   14 cycles
 SCF Done:  E(RB3LYP) =  -599.965094909     A.U. after   12 cycles
 SCF Done:  E(RB3LYP) =  -599.964631061     A.U. after   12 cycles
 SCF Done:  E(RB3LYP) =  -599.965531385     A.U. after   12 cycles
 SCF Done:  E(RB3LYP) =  -599.965727066     A.U. after   12 cycles
 SCF Done:  E(RB3LYP) =  -599.965952784     A.U. after   13 cycles
 SCF Done:  E(RB3LYP) =  -599.966233246     A.U. after   13 cycles
 SCF Done:  E(RB3LYP) =  -599.965616795     A.U. after   15 cycles
 SCF Done:  E(RB3LYP) =  -599.967391415     A.U. after   13 cycles
 SCF Done:  E(RB3LYP) =  -599.955867112     A.U. after   14 cycles
 SCF Done:  E(RB3LYP) =  -599.971442766     A.U. after   12 cycles
 SCF Done:  E(RB3LYP) =  -599.971449353     A.U. after   10 cycles
 SCF Done:  E(RB3LYP) =  -599.971450148     A.U. after    9 cycles
 SCF Done:  E(RB3LYP) =  -599.971450227     A.U. after    8 cycles
 SCF Done:  E(RB3LYP) =  -599.971450264     A.U. after    7 cycles
 Optimization completed.
    -- Stationary point found.
 Normal termination of Gaussian 16 at Thu Dec 10 11:07:40 2020.

 --------------------------------------------------------------------
 #N Geom=AllCheck Guess=TCheck SCRF=Check GenChk RB3LYP/6-31G(d) Freq
 --------------------------------------------------------------------

 Structure from the checkpoint file:  "JID_4908.chk"
 ------------------------------
 CID_58436715_JID_4908_neutraal
 ------------------------------
 Charge =  0 Multiplicity = 1

 SCF Done:  E(RB3LYP) =  -599.971450264     A.U. after    1 cycles

  Exact polarizability: 144.930   0.185 119.691   1.433  -0.627 114.703
 Approx polarizability: 176.518   3.318 191.412  -0.188  -6.301 175.633

                      1                      2                      3
                      A                      A                      A
 Frequencies --     48.7604                67.0543                97.6768
 Red. masses --      3.7825                 4.9251                 3.7724
 Frc consts  --      0.0053                 0.0130                 0.0212
 IR Inten    --      2.1827                 1.8486                 0.3636

                      4                      5                      6
                      A                      A                      A
 Frequencies --    143.7885               157.9827               166.0651
 Red. masses --      3.6109                 1.0424                 3.3050
 Frc consts  --      0.0440                 0.0153                 0.0537
 IR Inten    --      0.4577                 0.1131                 2.8857

                      7                      8                      9
                      A                      A                      A
 Frequencies --    234.1575               280.4099               290.8788
 Red. masses --      2.4002                 2.1156                 2.9495
 Frc consts  --      0.0775                 0.0980                 0.1470
 IR Inten    --      2.8884                 0.1136                 1.6989

                     10                     11                     12
                      A                      A                      A
 Frequencies --    322.9172               360.9431               371.0870
 Red. masses --      2.5653                 1.9760                 2.1071
 Frc consts  --      0.1576                 0.1517                 0.1710
 IR Inten    --      0.2997                 7.0477                 0.4530

                     13                     14                     15
                      A                      A                      A
 Frequencies --    403.2666               420.9425               427.1041
 Red. masses --      2.3313                 2.1503                 1.7772
 Frc consts  --      0.2234                 0.2245                 0.1910
 IR Inten    --      2.2009                 0.4573                 3.4719

                     16                     17                     18
                      A                      A                      A
 Frequencies --    443.6274               490.1076               497.4507
 Red. masses --      3.1304                 3.3518                 3.3565
 Frc consts  --      0.3630                 0.4744                 0.4894
 IR Inten    --      0.7067                 0.8105                 2.8257

                     19                     20                     21
                      A                      A                      A
 Frequencies --    552.2160               560.6598               598.7768
 Red. masses --      2.4836                 3.0990                 1.6482
 Frc consts  --      0.4462                 0.5739                 0.3482
 IR Inten    --      1.6968                 2.6115                 1.2868

                     22                     23                     24
                      A                      A                      A
 Frequencies --    668.7160               690.6372               770.9718
 Red. masses --      2.9764                 2.9180                 2.4791
 Frc consts  --      0.7842                 0.8200                 0.8682
 IR Inten    --     10.0865                 4.9714                 1.7296

                     25                     26                     27
                      A                      A                      A
 Frequencies --    798.5945               813.4535               814.8421
 Red. masses --      1.5115                 1.7604                 1.8935
 Frc consts  --      0.5680                 0.6863                 0.7407
 IR Inten    --      2.2763                57.2396                76.2253

                     28                     29                     30
                      A                      A                      A
 Frequencies --    849.9965               884.0557               915.7582
 Red. masses --      2.3270                 2.0788                 2.4057
 Frc consts  --      0.9905                 0.9572                 1.1886
 IR Inten    --      8.8845                10.3616                 4.7063

                     31                     32                     33
                      A                      A                      A
 Frequencies --    918.8121               943.4270               970.0767
 Red. masses --      2.2976                 1.9990                 1.6753
 Frc consts  --      1.1428                 1.0483                 0.9289
 IR Inten    --      5.0723                 1.1787                13.2417

                     34                     35                     36
                      A                      A                      A
 Frequencies --    991.8710              1004.0754              1011.6405
 Red. masses --      1.6382                 1.7328                 2.0102
 Frc consts  --      0.9496                 1.0293                 1.2121
 IR Inten    --     17.4222                 2.6698                 2.8723

                     37                     38                     39
                      A                      A                      A
 Frequencies --   1018.3332              1028.0182              1033.0268
 Red. masses --      1.6794                 1.9949                 2.0517
 Frc consts  --      1.0261                 1.2422                 1.2900
 IR Inten    --      5.7236                 2.8059                15.1426

                     40                     41                     42
                      A                      A                      A
 Frequencies --   1050.2744              1070.6927              1112.9118
 Red. masses --      1.7749                 2.0426                 1.6072
 Frc consts  --      1.1535                 1.3796                 1.1728
 IR Inten    --      0.3651                 0.9460                 1.2674

                     43                     44                     45
                      A                      A                      A
 Frequencies --   1130.8685              1140.3780              1166.9660
 Red. masses --      2.5581                 2.2089                 1.9228
 Frc consts  --      1.9275                 1.6925                 1.5428
 IR Inten    --      6.6472                 3.5105                27.6624

                     46                     47                     48
                      A                      A                      A
 Frequencies --   1176.0179              1189.6524              1199.4747
 Red. masses --      1.6385                 1.4612                 1.7657
 Frc consts  --      1.3351                 1.2184                 1.4967
 IR Inten    --      8.4250                 5.0775                36.4426

                     49                     50                     51
                      A                      A                      A
 Frequencies --   1217.9278              1246.6676              1254.8439
 Red. masses --      1.3046                 1.7828                 1.4102
 Frc consts  --      1.1402                 1.6325                 1.3083
 IR Inten    --     12.9318                12.3009                12.6503

                     52                     53                     54
                      A                      A                      A
 Frequencies --   1290.3093              1300.0791              1333.6887
 Red. masses --      1.3898                 1.4132                 1.4814
 Frc consts  --      1.3633                 1.4074                 1.5525
 IR Inten    --      1.3833                 2.3748                 3.6535

                     55                     56                     57
                      A                      A                      A
 Frequencies --   1351.0383              1355.8996              1369.3563
 Red. masses --      1.4373                 1.3817                 1.4935
 Frc consts  --      1.5458                 1.4966                 1.6501
 IR Inten    --      5.1114                 1.8650                 7.9737

                     58                     59                     60
                      A                      A                      A
 Frequencies --   1377.3858              1380.7117              1383.9584
 Red. masses --      1.4052                 1.4862                 1.3947
 Frc consts  --      1.5707                 1.6693                 1.5739
 IR Inten    --      1.9336                 4.4929                 0.6949

                     61                     62                     63
                      A                      A                      A
 Frequencies --   1390.3379              1408.1694              1412.3665
 Red. masses --      1.3853                 1.3810                 1.4007
 Frc consts  --      1.5777                 1.6134                 1.6463
 IR Inten    --      0.4634                18.6532                17.4310

                     64                     65                     66
                      A                      A                      A
 Frequencies --   1414.3427              1421.8937              1424.5008
 Red. masses --      1.4196                 1.4983                 1.3584
 Frc consts  --      1.6732                 1.7848                 1.6241
 IR Inten    --      1.2232                 9.4242                 4.7384

                     67                     68                     69
                      A                      A                      A
 Frequencies --   1494.6519              1496.1459              1505.9747
 Red. masses --      1.0562                 1.0986                 1.0660
 Frc consts  --      1.3902                 1.4489                 1.4245
 IR Inten    --     12.4338                 1.9630                13.7031

                     70                     71                     72
                      A                      A                      A
 Frequencies --   1506.6868              1511.4015              1515.2372
 Red. masses --      1.0815                 1.0833                 1.1450
 Frc consts  --      1.4465                 1.4581                 1.5489
 IR Inten    --      2.1445                 1.7718                10.5042

                     73                     74                     75
                      A                      A                      A
 Frequencies --   1518.5783              1523.3019              1525.9566
 Red. masses --      1.0867                 1.0912                 1.1030
 Frc consts  --      1.4765                 1.4918                 1.5132
 IR Inten    --      8.9477                 2.1821                 1.1134

                     76                     77                     78
                      A                      A                      A
 Frequencies --   1534.5471              1540.6078              1804.4505
 Red. masses --      1.0877                 1.0951                10.7695
 Frc consts  --      1.5092                 1.5313                20.6602
 IR Inten    --      3.8380                 2.8453               116.0874

                     79                     80                     81
                      A                      A                      A
 Frequencies --   2999.6534              3006.9824              3012.6695
 Red. masses --      1.0814                 1.0642                 1.0651
 Frc consts  --      5.7327                 5.6693                 5.6958
 IR Inten    --     28.9944                11.6621                20.8494

                     82                     83                     84
                      A                      A                      A
 Frequencies --   3018.0667              3042.3769              3043.3179
 Red. masses --      1.0677                 1.0627                 1.0703
 Frc consts  --      5.7303                 5.7954                 5.8403
 IR Inten    --     47.7450                29.8325                23.5084

                     85                     86                     87
                      A                      A                      A
 Frequencies --   3050.9138              3051.6148              3054.1092
 Red. masses --      1.0648                 1.0601                 1.0636
 Frc consts  --      5.8396                 5.8163                 5.8452
 IR Inten    --      4.2426                 6.8190                 6.6316

                     88                     89                     90
                      A                      A                      A
 Frequencies --   3058.6061              3066.8223              3068.9000
 Red. masses --      1.0835                 1.0731                 1.0737
 Frc consts  --      5.9721                 5.9465                 5.9580
 IR Inten    --     23.8545                27.9335               101.2779

                     91                     92                     93
                      A                      A                      A
 Frequencies --   3077.4550              3086.7521              3089.4225
 Red. masses --      1.0871                 1.1040                 1.1039
 Frc consts  --      6.0660                 6.1975                 6.2077
 IR Inten    --     57.0239                55.3099                49.6908

                     94                     95                     96
                      A                      A                      A
 Frequencies --   3093.8681              3103.9634              3109.5938
 Red. masses --      1.1020                 1.0982                 1.1003
 Frc consts  --      6.2146                 6.2339                 6.2685
 IR Inten    --     41.1844                43.3901                26.4512

                     97                     98                     99
                      A                      A                      A
 Frequencies --   3114.4918              3164.3989              3457.0647
 Red. masses --      1.0979                 1.1027                 1.0734
 Frc consts  --      6.2745                 6.5058                 7.5580
 IR Inten    --     11.7725                11.2893                 3.7912

 - Thermochemistry -
 -------------------
 Temperature   298.150 Kelvin.  Pressure   1.00000 Atm.
 Atom     1 has atomic number  6 and mass  12.00000

 Molecular mass:   195.16231 amu.
 Principal axes and moments of inertia in atomic units:
                           1         2         3
     Eigenvalues --  1170.761074616.666764715.98901
           X            0.99990  -0.01157   0.00762
           Y            0.01083   0.99578   0.09111
           Z           -0.00864  -0.09102   0.99581
 This molecule is an asymmetric top.
 Rotational symmetry number  1.
 Warning -- assumption of classical behavior for rotation
           may cause significant error
 Rotational temperatures (Kelvin)      0.07398     0.01876     0.01837
 Rotational constants (GHZ):           1.54151     0.39092     0.38269
 Zero-point vibrational energy     842658.4 (Joules/Mol)
                                  201.40018 (Kcal/Mol)
 Warning -- explicit consideration of  21 degrees of freedom as
           vibrations may cause significant error
 Vibrational temperatures:     70.16    96.48   140.54   206.88   227.30
          (Kelvin)            238.93   336.90   403.45   418.51   464.61
                              519.32   533.91   580.21   605.64   614.51
                              638.28   705.16   715.72   794.52   806.66
                              861.51   962.13   993.67  1109.26  1149.00
                             1170.38  1172.38  1222.96  1271.96  1317.57
                             1321.97  1357.38  1395.72  1427.08  1444.64
                             1455.52  1465.15  1479.09  1486.30  1511.11
                             1540.49  1601.23  1627.07  1640.75  1679.00
                             1692.03  1711.64  1725.78  1752.33  1793.68
                             1805.44  1856.47  1870.52  1918.88  1943.84
                             1950.84  1970.20  1981.75  1986.54  1991.21
                             2000.39  2026.04  2032.08  2034.92  2045.79
                             2049.54  2150.47  2152.62  2166.76  2167.79
                             2174.57  2180.09  2184.90  2191.69  2195.51
                             2207.87  2216.59  2596.20  4315.83  4326.38
                             4334.56  4342.32  4377.30  4378.66  4389.58
                             4390.59  4394.18  4400.65  4412.47  4415.46
                             4427.77  4441.15  4444.99  4451.39  4465.91
                             4474.01  4481.06  4552.86  4973.95

 Zero-point correction=                           0.320952 (Hartree/Particle)
 Thermal correction to Energy=                    0.334160
 Thermal correction to Enthalpy=                  0.335104
 Thermal correction to Gibbs Free Energy=         0.281743
 Sum of electronic and zero-point Energies=           -599.650499
 Sum of electronic and thermal Energies=              -599.637291
 Sum of electronic and thermal Enthalpies=            -599.636346
 Sum of electronic and thermal Free Energies=         -599.689708

                     E (Thermal)             CV                S
                      KCal/Mol        Cal/Mol-Kelvin    Cal/Mol-Kelvin
 Total                  209.688             53.723            112.308
 Electronic               0.000              0.000              0.000
 Translational            0.889              2.981             41.711
 Rotational               0.889              2.981             31.611
 Vibrational            207.911             47.761             38.986
 Vibration     1          0.595              1.978              4.867
 Vibration     2          0.598              1.970              4.238
 Vibration     3          0.603              1.951              3.500
 Vibration     4          0.616              1.909              2.753
 Vibration     5          0.621              1.894              2.574
 Vibration     6          0.624              1.884              2.480
 Vibration     7          0.654              1.789              1.847
 Vibration     8          0.680              1.710              1.531
 Vibration     9          0.687              1.691              1.469
 Vibration    10          0.708              1.630              1.295
 Vibration    11          0.735              1.553              1.118
 Vibration    12          0.743              1.532              1.075
 Vibration    13          0.769              1.463              0.951
 Vibration    14          0.783              1.425              0.889
 Vibration    15          0.789              1.411              0.868
 Vibration    16          0.803              1.375              0.815
 Vibration    17          0.846              1.272              0.683
 Vibration    18          0.853              1.256              0.665
 Vibration    19          0.908              1.135              0.540
 Vibration    20          0.916              1.116              0.523
 Vibration    21          0.957              1.034              0.452

 Optimization completed.
    -- Stationary point found.
 Normal termination of Gaussian 16 at Thu Dec 10 11:20:01 2020.

 ----------------------------------------------------------------------
 # B3LYP/6-311++G(d,p) empiricaldispersion=gd3bj scf=xqc pop=npa geom=c
 heck
 ----------------------------------------------------------------------

 --------------------------------------
 CID_58436715_JID_4908_Energie_neutraal
 --------------------------------------
 Structure from the checkpoint file:  "JID_4908.chk"
 Charge =  0 Multiplicity = 1

 SCF Done:  E(RB3LYP) =  -600.139633920     A.U. after   14 cycles
 Normal termination of Gaussian 16 at Thu Dec 10 11:25:16 2020.

 ----------------------------------------------------------------------
 # B3LYP/6-311++G(d,p) empiricaldispersion=gd3bj scf=xqc pop=npa geom=c
 heck
 ----------------------------------------------------------------------

 ------------------------------------
 CID_58436715_JID_4908_Energie_kation
 ------------------------------------
 Structure from the checkpoint file:  "JID_4908.chk"
 Charge =  1 Multiplicity = 2

 SCF Done:  E(UB3LYP) =  -599.845037834     A.U. after   23 cycles
 Normal termination of Gaussian 16 at Thu Dec 10 11:37:50 2020.
 Gaussian 16:  ES64L-G16RevA.03 25-Dec-2016

 ----------------------------------------------------------------------
 # B3LYP/6-311++G(d,p) empiricaldispersion=gd3bj scf=xqc pop=npa geom=c
 heck
 ----------------------------------------------------------------------

 -----------------------------------
 CID_58436715_JID_4908_Energie_anion
 -----------------------------------
 Structure from the checkpoint file:  "JID_4908.chk"
 Charge = -1 Multiplicity = 2

                         Standard orientation:
 ---------------------------------------------------------------------
 Center     Atomic      Atomic             Coordinates (Angstroms)
 Number     Number       Type             X           Y           Z
 ---------------------------------------------------------------------
      1          6           0       -4.000103   -0.081653   -0.846676
      2          6           0       -2.933964   -0.414736    0.185540
      3          8           0       -2.861000   -1.533510    0.660643
      4          6           0       -1.987843    0.714200    0.605073
      5          6           0       -0.904690    0.228840    1.578419
      6          6           0        0.164493   -0.629393    0.885829
      7          6           0        0.817098    0.047417   -0.343776
      8          6           0       -0.308423    0.517793   -1.291048
      9          6           0       -1.345313    1.418130   -0.609752
     10          6           0        1.712061    1.243467    0.064343
     11          6           0        3.000322    0.808055    0.782509
     12          7           0        3.797214   -0.177596    0.047722
     13          6           0        2.985403   -1.335540   -0.339789
     14          6           0        1.702816   -0.967581   -1.101008
     15          1           0       -4.788773   -0.835525   -0.806216
     16          1           0       -3.557274   -0.097272   -1.850540
     17          1           0       -4.421993    0.917619   -0.694082
     18          1           0       -2.634107    1.447385    1.114252
     19          1           0       -0.441505    1.106218    2.046949
     20          1           0       -1.368150   -0.354928    2.379325
     21          1           0       -0.305369   -1.563458    0.558374
     22          1           0        0.925646   -0.910067    1.621476
     23          1           0       -0.813429   -0.371767   -1.697269
     24          1           0        0.132418    1.041644   -2.149452
     25          1           0       -2.109426    1.728244   -1.331085
     26          1           0       -0.866130    2.340149   -0.260393
     27          1           0        1.990041    1.795693   -0.846232
     28          1           0        1.163636    1.950758    0.697807
     29          1           0        2.755718    0.371352    1.759670
     30          1           0        3.631244    1.681738    0.982865
     31          1           0        4.154285    0.263996   -0.800403
     32          1           0        2.735645   -1.885622    0.576545
     33          1           0        3.606447   -2.005425   -0.945431
     34          1           0        1.119990   -1.872330   -1.322454
     35          1           0        1.987437   -0.531153   -2.070883
 ---------------------------------------------------------------------

 SCF Done:  E(UB3LYP) =  -600.129243024     A.U. after   33 cycles
 SCF Done:  E(UB3LYP) =  -600.129243024     a.u. after    1 cycles

 The electronic state is 2-A.
 Alpha  occ. eigenvalues --  -18.99966 -14.19854 -10.14490 -10.09406 -10.09039
 Alpha  occ. eigenvalues --  -10.07759 -10.07107 -10.06683 -10.06446 -10.06248
 Alpha  occ. eigenvalues --  -10.06099 -10.05911 -10.05817 -10.05693  -0.93380
 Alpha  occ. eigenvalues --   -0.81387  -0.74121  -0.68662  -0.65238  -0.64391
 Alpha  occ. eigenvalues --   -0.63115  -0.58938  -0.53170  -0.52261  -0.50796
 Alpha  occ. eigenvalues --   -0.48728  -0.44136  -0.40610  -0.39244  -0.37602
 Alpha  occ. eigenvalues --   -0.35724  -0.35372  -0.35045  -0.34362  -0.33667
 Alpha  occ. eigenvalues --   -0.33206  -0.32496  -0.30515  -0.29827  -0.28972
 Alpha  occ. eigenvalues --   -0.28120  -0.27418  -0.26765  -0.25949  -0.25587
 Alpha  occ. eigenvalues --   -0.24772  -0.24251  -0.23525  -0.22745  -0.20815
 Alpha  occ. eigenvalues --   -0.19591  -0.19306  -0.14020  -0.12656   0.04352
 Alpha virt. eigenvalues --    0.06225   0.07298   0.07857   0.08036   0.08817
 Alpha virt. eigenvalues --    0.09467   0.09639   0.10062   0.10720   0.11036
 Alpha virt. eigenvalues --    0.11629   0.12213   0.12340   0.12931   0.13674

  Beta  occ. eigenvalues --  -18.99880 -14.19840 -10.14391 -10.09400 -10.09027
  Beta  occ. eigenvalues --  -10.07760 -10.07105 -10.06660 -10.06438 -10.06213
  Beta  occ. eigenvalues --  -10.06085 -10.05887 -10.05804 -10.05689  -0.93207
  Beta  occ. eigenvalues --   -0.81360  -0.74089  -0.68599  -0.65210  -0.64349
  Beta  occ. eigenvalues --   -0.63038  -0.58897  -0.53123  -0.52211  -0.50742
  Beta  occ. eigenvalues --   -0.48635  -0.44073  -0.40533  -0.39140  -0.37472
  Beta  occ. eigenvalues --   -0.35690  -0.35321  -0.35007  -0.34331  -0.33573
  Beta  occ. eigenvalues --   -0.33165  -0.32399  -0.30454  -0.29792  -0.28936
  Beta  occ. eigenvalues --   -0.28072  -0.27386  -0.26690  -0.25908  -0.25414
  Beta  occ. eigenvalues --   -0.24741  -0.24108  -0.23490  -0.22634  -0.20784
  Beta  occ. eigenvalues --   -0.19554  -0.19267  -0.13940  -0.12631
  Beta virt. eigenvalues --    0.06591   0.07390   0.07685   0.08193   0.08519
  Beta virt. eigenvalues --    0.09242   0.10038   0.10265   0.10296   0.10921
  Beta virt. eigenvalues --    0.11454   0.11974   0.12485   0.12654   0.13286

 Mulliken charges and spin densities:
               1          2
     1  C    0.610313  -1.233656
     2  C   -0.615781   0.502115
     3  O   -0.273153   0.033882
     4  C    0.071321   0.548107
     5  C    0.393279  -1.083393
     6  C   -0.207929  -0.209425
     7  C    0.101985   0.655373
     8  C    0.126115  -0.416606
     9  C    0.741401  -1.334775
    10  C   -0.360780   0.024634
    11  C    0.439701  -1.188360
    12  N   -0.144097   0.128008
    13  C   -0.191118  -0.475544
    14  C   -0.371330   0.132613
    15  H    0.063335   0.092182
    16  H    0.105905   0.052151
    17  H   -0.473431   0.649009
    18  H   -0.515383   0.777698
    19  H   -0.116591   0.276974
    20  H    0.171850   0.022692
    21  H    0.112857   0.101623
    22  H    0.252995  -0.170242
    23  H   -0.036277   0.200544
    24  H    0.042806   0.124031
    25  H   -0.244909   0.445283
    26  H   -0.572490   0.749123
    27  H   -0.293350   0.477095
    28  H    0.204309  -0.088196
    29  H    0.064302   0.097254
    30  H   -0.217633   0.408868
    31  H    0.050590   0.164992
    32  H    0.081749   0.073612
    33  H   -0.009701   0.194928
    34  H    0.189595  -0.075599
    35  H   -0.180455   0.343005
 Sum of Mulliken charges =  -1.00000   1.00000

 Dipole moment (field-independent basis, Debye):
    X=              2.4461    Y=             -4.6905    Z=             -0.1413  Tot=              5.2918
 Quadrupole moment (field-independent basis, Debye-Ang):
   XX=           -168.0189   YY=           -134.2434   ZZ=           -117.4107
   XY=              4.8441   XZ=              4.3802   YZ=              3.0297

 Summary of Natural Population Analysis:

                                       Natural Population
                Natural  -----------------------------------------------
    Atom  No    Charge         Core      Valence    Rydberg      Total
 -----------------------------------------------------------------------
      C    1   -0.33659      0.99962     2.33117    0.00580     3.33659
      C    2    0.30995      0.99965     1.66862    0.02178     2.69005
      O    3   -0.28982      0.99987     3.28375    0.00619     4.28982
      C    4   -0.15553      0.99954     2.14360    0.01240     3.15553
      C    5   -0.18993      0.99962     2.17957    0.01074     3.18993
      C    6   -0.19305      0.99958     2.18507    0.00839     3.19305
      C    7   -0.03778      0.99954     2.02563    0.01261     3.03778
      C    8   -0.18701      0.99958     2.17725    0.01017     3.18701
      C    9   -0.18879      0.99961     2.17859    0.01059     3.18879
      C   10   -0.20284      0.99958     2.19222    0.01104     3.20284
      C   11   -0.08799      0.99962     2.07648    0.01189     3.08799
      N   12   -0.33736      0.99976     2.82548    0.01212     3.83736
      C   13   -0.08860      0.99962     2.07719    0.01179     3.08860
      C   14   -0.19617      0.99959     2.18673    0.00985     3.19617
      H   15    0.10754      0.00000     0.39148    0.00098     0.39246
      H   16    0.10946      0.00000     0.38963    0.00091     0.39054
      H   17    0.11100      0.00000     0.38679    0.00220     0.38900
      H   18    0.11798      0.00000     0.37802    0.00399     0.38202
      H   19    0.09702      0.00000     0.40180    0.00118     0.40298
      H   20    0.10627      0.00000     0.39280    0.00093     0.39373
      H   21    0.10535      0.00000     0.39342    0.00123     0.39465
      H   22    0.09675      0.00000     0.40218    0.00107     0.40325
      H   23    0.09441      0.00000     0.40425    0.00134     0.40559
      H   24    0.10116      0.00000     0.39763    0.00121     0.39884
      H   25    0.10276      0.00000     0.39577    0.00147     0.39724
      H   26    0.10329      0.00000     0.39429    0.00242     0.39671
      H   27    0.09747      0.00000     0.40068    0.00185     0.40253
      H   28    0.10408      0.00000     0.39439    0.00153     0.39592
      H   29    0.08735      0.00000     0.41144    0.00121     0.41265
      H   30    0.09543      0.00000     0.40366    0.00091     0.40457
      H   31    0.16818      0.00000     0.32940    0.00242     0.33182
      H   32    0.08833      0.00000     0.41056    0.00111     0.41167
      H   33    0.09295      0.00000     0.40623    0.00082     0.40705
      H   34    0.09898      0.00000     0.40009    0.00093     0.40102
      H   35    0.09576      0.00000     0.40285    0.00139     0.40424
 =======================================================================
   * Total *    0.00000     13.99481    39.81873    0.18647    54.00000

 Normal termination of Gaussian 16 at Thu Dec 10 11:56:14 2020.
