 Gaussian 16, Revision A.03,

 -----------------------------------------------------------
 # opt freq B3LYP/6-31G(d) empiricaldispersion=gd3bj scf=xqc
 -----------------------------------------------------------

 ------------------------------
 CID_82775196_JID_1154_neutraal
 ------------------------------
 Symbolic Z-matrix:
 Charge =  0 Multiplicity = 1

 SCF Done:  E(RB3LYP) =  -520.312182326     A.U. after   13 cycles
 SCF Done:  E(RB3LYP) =  -520.317075634     A.U. after   11 cycles
 SCF Done:  E(RB3LYP) =  -520.317610494     A.U. after   11 cycles
 SCF Done:  E(RB3LYP) =  -520.317839577     A.U. after   10 cycles
 SCF Done:  E(RB3LYP) =  -520.317870215     A.U. after   10 cycles
 SCF Done:  E(RB3LYP) =  -520.317879200     A.U. after    9 cycles
 SCF Done:  E(RB3LYP) =  -520.317882541     A.U. after    8 cycles
 SCF Done:  E(RB3LYP) =  -520.317883859     A.U. after    8 cycles
 SCF Done:  E(RB3LYP) =  -520.317884221     A.U. after    7 cycles
 SCF Done:  E(RB3LYP) =  -520.317884382     A.U. after    7 cycles
 Optimization completed.
    -- Stationary point found.
 Normal termination of Gaussian 16 at Tue Dec  8 19:15:01 2020.

 --------------------------------------------------------------------
 #N Geom=AllCheck Guess=TCheck SCRF=Check GenChk RB3LYP/6-31G(d) Freq
 --------------------------------------------------------------------

 Structure from the checkpoint file:  "JID_1154.chk"
 ------------------------------
 CID_82775196_JID_1154_neutraal
 ------------------------------
 Charge =  0 Multiplicity = 1

 SCF Done:  E(RB3LYP) =  -520.317884382     A.U. after    1 cycles

  Exact polarizability: 108.623   2.359  93.574   2.818  -1.809  84.067
 Approx polarizability: 135.725   2.256 128.761   2.333   1.294 124.554

                      1                      2                      3
                      A                      A                      A
 Frequencies --     49.9915                71.0080               128.1300
 Red. masses --      3.9564                 2.9946                 2.8213
 Frc consts  --      0.0058                 0.0089                 0.0273
 IR Inten    --      0.4417                 0.1004                 4.4891

                      4                      5                      6
                      A                      A                      A
 Frequencies --    175.8588               200.9937               217.9098
 Red. masses --      2.7964                 2.8587                 1.1275
 Frc consts  --      0.0510                 0.0680                 0.0315
 IR Inten    --      1.4800                 3.1462                 0.6722

                      7                      8                      9
                      A                      A                      A
 Frequencies --    232.8554               265.5092               267.1343
 Red. masses --      2.2933                 1.1386                 1.0448
 Frc consts  --      0.0733                 0.0473                 0.0439
 IR Inten    --      2.6274                 2.9832                 0.1040

                     10                     11                     12
                      A                      A                      A
 Frequencies --    298.3207               309.9080               326.3974
 Red. masses --      2.0264                 1.7729                 1.8756
 Frc consts  --      0.1063                 0.1003                 0.1177
 IR Inten    --     20.9253                26.5458                16.9320

                     13                     14                     15
                      A                      A                      A
 Frequencies --    342.9767               391.5510               399.1183
 Red. masses --      2.5062                 2.2736                 2.8729
 Frc consts  --      0.1737                 0.2054                 0.2696
 IR Inten    --      3.2443                 1.6157                 3.6175

                     16                     17                     18
                      A                      A                      A
 Frequencies --    454.3946               488.1433               547.9286
 Red. masses --      3.1404                 2.9267                 2.6877
 Frc consts  --      0.3820                 0.4109                 0.4754
 IR Inten    --      3.4042                 8.2483                 0.1787

                     19                     20                     21
                      A                      A                      A
 Frequencies --    732.7022               763.8337               787.7356
 Red. masses --      8.1510                 4.2115                 3.1662
 Frc consts  --      2.5782                 1.4477                 1.1576
 IR Inten    --      4.8258                 5.0853                 2.4939

                     22                     23                     24
                      A                      A                      A
 Frequencies --    835.7923               887.9111               915.1050
 Red. masses --      2.4374                 1.3128                 2.3122
 Frc consts  --      1.0032                 0.6098                 1.1408
 IR Inten    --      6.5271               152.0090                23.6997

                     25                     26                     27
                      A                      A                      A
 Frequencies --    953.7287               956.3885               962.5461
 Red. masses --      1.8881                 1.6282                 1.7742
 Frc consts  --      1.0119                 0.8774                 0.9685
 IR Inten    --     10.6413                 0.8381                14.2193

                     28                     29                     30
                      A                      A                      A
 Frequencies --    978.7629              1003.5280              1011.1671
 Red. masses --      1.1997                 2.8029                 2.2616
 Frc consts  --      0.6772                 1.6631                 1.3624
 IR Inten    --      0.1205                69.2780                20.8491

                     31                     32                     33
                      A                      A                      A
 Frequencies --   1039.1691              1069.5399              1073.3904
 Red. masses --      2.6783                 1.5777                 1.6274
 Frc consts  --      1.7041                 1.0633                 1.1047
 IR Inten    --      6.9213                 6.0959                16.2525

                     34                     35                     36
                      A                      A                      A
 Frequencies --   1083.4219              1093.4528              1147.2039
 Red. masses --      2.8016                 2.4552                 4.3369
 Frc consts  --      1.9376                 1.7295                 3.3629
 IR Inten    --     40.7013                 5.9292               216.7072

                     37                     38                     39
                      A                      A                      A
 Frequencies --   1173.7150              1201.9152              1247.1370
 Red. masses --      2.0216                 1.3439                 1.5503
 Frc consts  --      1.6408                 1.1438                 1.4207
 IR Inten    --     11.0155                17.0418                33.7536

                     40                     41                     42
                      A                      A                      A
 Frequencies --   1257.8924              1271.5228              1313.9452
 Red. masses --      2.1221                 1.9987                 1.5146
 Frc consts  --      1.9783                 1.9039                 1.5406
 IR Inten    --      3.2557                 1.8652                 3.8503

                     43                     44                     45
                      A                      A                      A
 Frequencies --   1316.8240              1338.5155              1363.2210
 Red. masses --      2.1790                 1.3454                 1.2642
 Frc consts  --      2.2262                 1.4202                 1.3842
 IR Inten    --      0.1908                 2.0235                 2.6125

                     46                     47                     48
                      A                      A                      A
 Frequencies --   1387.0494              1410.8387              1417.1577
 Red. masses --      1.2075                 1.3013                 1.2735
 Frc consts  --      1.3687                 1.5261                 1.5069
 IR Inten    --     21.3189                 5.4999                 6.3577

                     49                     50                     51
                      A                      A                      A
 Frequencies --   1427.0887              1431.0004              1460.4104
 Red. masses --      1.2500                 1.3761                 1.4084
 Frc consts  --      1.4999                 1.6603                 1.7698
 IR Inten    --      3.1421                 8.9049                21.5326

                     52                     53                     54
                      A                      A                      A
 Frequencies --   1465.1779              1508.8196              1521.1343
 Red. masses --      1.3956                 1.0482                 1.0462
 Frc consts  --      1.7652                 1.4060                 1.4263
 IR Inten    --     13.6470                 0.0422                 0.3253

                     55                     56                     57
                      A                      A                      A
 Frequencies --   1522.1142              1531.3421              1534.7440
 Red. masses --      1.0481                 1.0542                 1.0640
 Frc consts  --      1.4307                 1.4565                 1.4766
 IR Inten    --      1.1783                 5.5783                 7.4752

                     58                     59                     60
                      A                      A                      A
 Frequencies --   1538.3154              1539.8251              1556.4919
 Red. masses --      1.0890                 1.0908                 1.0737
 Frc consts  --      1.5184                 1.5239                 1.5326
 IR Inten    --      0.6670                 2.4162                21.5580

                     61                     62                     63
                      A                      A                      A
 Frequencies --   1689.0286              2950.8819              2975.6512
 Red. masses --      1.0871                 1.0832                 1.0700
 Frc consts  --      1.8272                 5.5573                 5.5820
 IR Inten    --     30.5563                90.5629                53.9545

                     64                     65                     66
                      A                      A                      A
 Frequencies --   3019.9239              3044.5226              3048.8523
 Red. masses --      1.0706                 1.0366                 1.0364
 Frc consts  --      5.7526                 5.6611                 5.6762
 IR Inten    --     64.4079                17.7422                47.2744

                     67                     68                     69
                      A                      A                      A
 Frequencies --   3054.7600              3058.9149              3084.6012
 Red. masses --      1.0893                 1.0366                 1.0882
 Frc consts  --      5.9892                 5.7148                 6.1003
 IR Inten    --     28.4069                14.8356                71.5887

                     70                     71                     72
                      A                      A                      A
 Frequencies --   3106.4868              3111.3782              3122.3162
 Red. masses --      1.1015                 1.1008                 1.1009
 Frc consts  --      6.2630                 6.2787                 6.3234
 IR Inten    --      0.8805                57.4793                25.4125

                     73                     74                     75
                      A                      A                      A
 Frequencies --   3128.2357              3133.0079              3134.9004
 Red. masses --      1.0961                 1.1019                 1.1013
 Frc consts  --      6.3199                 6.3725                 6.3770
 IR Inten    --     25.9789                 9.8277                34.8168

                     76                     77                     78
                      A                      A                      A
 Frequencies --   3138.9591              3475.0108              3561.5152
 Red. masses --      1.1019                 1.0493                 1.0925
 Frc consts  --      6.3965                 7.4658                 8.1650
 IR Inten    --     30.0050                 2.8593                 0.3093

 - Thermochemistry -
 -------------------
 Temperature   298.150 Kelvin.  Pressure   1.00000 Atm.
 Atom     1 has atomic number  6 and mass  12.00000

 Molecular mass:   159.12593 amu.
 Principal axes and moments of inertia in atomic units:
                           1         2         3
     Eigenvalues --  1041.799932222.919902638.35775
           X            0.99988   0.01287   0.00834
           Y           -0.01266   0.99962  -0.02444
           Z           -0.00865   0.02433   0.99967
 This molecule is an asymmetric top.
 Rotational symmetry number  1.
 Warning -- assumption of classical behavior for rotation
           may cause significant error
 Rotational temperatures (Kelvin)      0.08314     0.03896     0.03283
 Rotational constants (GHZ):           1.73233     0.81188     0.68404
 Zero-point vibrational energy     664158.6 (Joules/Mol)
                                  158.73772 (Kcal/Mol)
 Warning -- explicit consideration of  18 degrees of freedom as
           vibrations may cause significant error
 Vibrational temperatures:     71.93   102.16   184.35   253.02   289.19
          (Kelvin)            313.52   335.03   382.01   384.35   429.22
                              445.89   469.61   493.47   563.35   574.24
                              653.77   702.33   788.35  1054.20  1098.99
                             1133.38  1202.52  1277.51  1316.63  1372.20
                             1376.03  1384.89  1408.22  1443.85  1454.84
                             1495.13  1538.83  1544.37  1558.80  1573.23
                             1650.57  1688.71  1729.29  1794.35  1809.83
                             1829.44  1890.47  1894.62  1925.83  1961.37
                             1995.65  2029.88  2038.97  2053.26  2058.89
                             2101.20  2108.06  2170.85  2188.57  2189.98
                             2203.26  2208.15  2213.29  2215.46  2239.44
                             2430.14  4245.66  4281.30  4345.00  4380.39
                             4386.62  4395.12  4401.10  4438.05  4469.54
                             4476.58  4492.32  4500.83  4507.70  4510.42
                             4516.26  4999.77  5124.23

 Zero-point correction=                           0.252965 (Hartree/Particle)
 Thermal correction to Energy=                    0.265184
 Thermal correction to Enthalpy=                  0.266128
 Thermal correction to Gibbs Free Energy=         0.215428
 Sum of electronic and zero-point Energies=           -520.064920
 Sum of electronic and thermal Energies=              -520.052701
 Sum of electronic and thermal Enthalpies=            -520.051756
 Sum of electronic and thermal Free Energies=         -520.102457

                     E (Thermal)             CV                S
                      KCal/Mol        Cal/Mol-Kelvin    Cal/Mol-Kelvin
 Total                  166.405             46.539            106.708
 Electronic               0.000              0.000              0.000
 Translational            0.889              2.981             41.103
 Rotational               0.889              2.981             30.192
 Vibrational            164.628             40.578             35.413
 Vibration     1          0.595              1.978              4.818
 Vibration     2          0.598              1.968              4.125
 Vibration     3          0.611              1.925              2.974
 Vibration     4          0.628              1.872              2.372
 Vibration     5          0.638              1.838              2.124
 Vibration     6          0.646              1.814              1.976
 Vibration     7          0.654              1.791              1.857
 Vibration     8          0.671              1.736              1.625
 Vibration     9          0.672              1.733              1.615
 Vibration    10          0.691              1.677              1.426
 Vibration    11          0.699              1.655              1.363
 Vibration    12          0.710              1.623              1.278
 Vibration    13          0.722              1.590              1.198
 Vibration    14          0.759              1.488              0.994
 Vibration    15          0.765              1.472              0.966
 Vibration    16          0.813              1.351              0.783
 Vibration    17          0.844              1.276              0.688
 Vibration    18          0.903              1.144              0.548

 Optimization completed.
    -- Stationary point found.
 Normal termination of Gaussian 16 at Tue Dec  8 19:21:56 2020.

 ----------------------------------------------------------------------
 # B3LYP/6-311++G(d,p) empiricaldispersion=gd3bj scf=xqc pop=npa geom=c
 heck
 ----------------------------------------------------------------------

 --------------------------------------
 CID_82775196_JID_1154_Energie_neutraal
 --------------------------------------
 Structure from the checkpoint file:  "JID_1154.chk"
 Charge =  0 Multiplicity = 1

 SCF Done:  E(RB3LYP) =  -520.475483469     A.U. after   13 cycles
 Normal termination of Gaussian 16 at Tue Dec  8 19:24:48 2020.

 ----------------------------------------------------------------------
 # B3LYP/6-311++G(d,p) empiricaldispersion=gd3bj scf=xqc pop=npa geom=c
 heck
 ----------------------------------------------------------------------

 ------------------------------------
 CID_82775196_JID_1154_Energie_kation
 ------------------------------------
 Structure from the checkpoint file:  "JID_1154.chk"
 Charge =  1 Multiplicity = 2

 SCF Done:  E(UB3LYP) =  -520.150810067     A.U. after   20 cycles
 Normal termination of Gaussian 16 at Tue Dec  8 19:30:57 2020.
 Gaussian 16:  ES64L-G16RevA.03 25-Dec-2016

 ----------------------------------------------------------------------
 # B3LYP/6-311++G(d,p) empiricaldispersion=gd3bj scf=xqc pop=npa geom=c
 heck
 ----------------------------------------------------------------------

 -----------------------------------
 CID_82775196_JID_1154_Energie_anion
 -----------------------------------
 Structure from the checkpoint file:  "JID_1154.chk"
 Charge = -1 Multiplicity = 2

                         Standard orientation:
 ---------------------------------------------------------------------
 Center     Atomic      Atomic             Coordinates (Angstroms)
 Number     Number       Type             X           Y           Z
 ---------------------------------------------------------------------
      1          6           0       -2.116007   -1.301666   -1.025727
      2          6           0       -1.678980   -0.302275    0.057533
      3          6           0       -2.865005    0.591157    0.456856
      4          6           0       -1.146007   -1.053358    1.285938
      5          6           0       -0.585471    0.594283   -0.536373
      6          8           0       -0.126445    1.533777    0.412527
      7          6           0        1.191446    1.868850   -0.003968
      8          6           0        1.741984    0.533155   -0.521914
      9          8           0        0.554950   -0.158855   -0.945954
     10          6           0        2.452041   -0.284532    0.550994
     11          7           0        2.759181   -1.611850    0.021961
     12          1           0       -2.917694   -1.944937   -0.645968
     13          1           0       -1.279937   -1.936127   -1.334626
     14          1           0       -2.495146   -0.783335   -1.914981
     15          1           0       -3.686129   -0.021037    0.846356
     16          1           0       -2.573505    1.310287    1.227961
     17          1           0       -3.246098    1.152495   -0.405113
     18          1           0       -0.300192   -1.693548    1.016954
     19          1           0       -0.815193   -0.352378    2.057733
     20          1           0       -1.932051   -1.687877    1.710448
     21          1           0       -0.977960    1.126923   -1.422232
     22          1           0        1.732602    2.265004    0.858868
     23          1           0        1.167779    2.628714   -0.799218
     24          1           0        2.396700    0.650500   -1.392115
     25          1           0        3.392973    0.219723    0.809086
     26          1           0        1.817844   -0.283105    1.454621
     27          1           0        3.122091   -2.208561    0.762407
     28          1           0        1.887604   -2.032858   -0.296527
 ---------------------------------------------------------------------

 SCF Done:  E(UB3LYP) =  -520.458408951     A.U. after   28 cycles

 The electronic state is 2-A.
 Alpha  occ. eigenvalues --  -19.03557 -19.02776 -14.18871 -10.16527 -10.12345
 Alpha  occ. eigenvalues --  -10.12274 -10.08793 -10.08385 -10.05648 -10.05643
 Alpha  occ. eigenvalues --  -10.05000  -0.99550  -0.90006  -0.78079  -0.72756
 Alpha  occ. eigenvalues --   -0.66391  -0.58838  -0.58414  -0.57283  -0.54079
 Alpha  occ. eigenvalues --   -0.49798  -0.45080  -0.41940  -0.39754  -0.38396
 Alpha  occ. eigenvalues --   -0.37335  -0.36633  -0.34306  -0.33282  -0.32312
 Alpha  occ. eigenvalues --   -0.31407  -0.29013  -0.28687  -0.28192  -0.27660
 Alpha  occ. eigenvalues --   -0.26378  -0.24679  -0.24335  -0.24160  -0.22662
 Alpha  occ. eigenvalues --   -0.22608  -0.18054  -0.16133  -0.14090   0.04663
 Alpha virt. eigenvalues --    0.06735   0.06968   0.08353   0.08987   0.09264
 Alpha virt. eigenvalues --    0.09606   0.10622   0.10851   0.12070   0.12309
 Alpha virt. eigenvalues --    0.12547   0.13107   0.13485   0.14743   0.15254

  Beta  occ. eigenvalues --  -19.03552 -19.02770 -14.18845 -10.16515 -10.12337
  Beta  occ. eigenvalues --  -10.12247 -10.08767 -10.08381 -10.05624 -10.05620
  Beta  occ. eigenvalues --  -10.04972  -0.99537  -0.89992  -0.78035  -0.72735
  Beta  occ. eigenvalues --   -0.66355  -0.58794  -0.58366  -0.57223  -0.54032
  Beta  occ. eigenvalues --   -0.49749  -0.45036  -0.41899  -0.39719  -0.38358
  Beta  occ. eigenvalues --   -0.37293  -0.36588  -0.34275  -0.33239  -0.32280
  Beta  occ. eigenvalues --   -0.31367  -0.28977  -0.28656  -0.28159  -0.27625
  Beta  occ. eigenvalues --   -0.26352  -0.24661  -0.24302  -0.24128  -0.22636
  Beta  occ. eigenvalues --   -0.22583  -0.18023  -0.16101  -0.14060
  Beta virt. eigenvalues --    0.06905   0.07863   0.07918   0.08902   0.09588
  Beta virt. eigenvalues --    0.09990   0.10076   0.10957   0.11268   0.12640
  Beta virt. eigenvalues --    0.12803   0.13022   0.13521   0.13834   0.14914

 Mulliken charges and spin densities:
               1          2
     1  C    0.180720  -0.667545
     2  C   -2.449433   3.146530
     3  C    0.428252  -0.956868
     4  C    0.955834  -1.586958
     5  C    1.145227  -1.981806
     6  O   -0.140497   0.080917
     7  C    1.832184  -2.269664
     8  C   -1.944081   2.435412
     9  O   -0.124296   0.002178
    10  C    1.929154  -2.518231
    11  N   -0.431398   0.082103
    12  H   -0.255415   0.406942
    13  H    0.074286   0.079018
    14  H   -0.168570   0.302704
    15  H   -0.229607   0.379994
    16  H    0.046930   0.109068
    17  H   -0.120187   0.258528
    18  H   -0.099302   0.230214
    19  H   -0.067055   0.238230
    20  H   -0.138762   0.312679
    21  H    0.079704   0.105444
    22  H   -0.229825   0.394678
    23  H   -0.407903   0.563006
    24  H   -0.303900   0.517551
    25  H   -0.510637   0.689273
    26  H   -0.142638   0.285918
    27  H   -0.078450   0.307727
    28  H    0.169664   0.052962
 Sum of Mulliken charges =  -1.00000   1.00000

 Dipole moment (field-independent basis, Debye):
    X=             -1.5243    Y=              0.2102    Z=             -1.0403  Tot=              1.8574
 Quadrupole moment (field-independent basis, Debye-Ang):
   XX=           -136.2038   YY=           -112.0056   ZZ=           -105.3747
   XY=             -2.9061   XZ=             -1.7699   YZ=              2.6408

 Summary of Natural Population Analysis:

                                       Natural Population
                Natural  -----------------------------------------------
    Atom  No    Charge         Core      Valence    Rydberg      Total
 -----------------------------------------------------------------------
      C    1   -0.28430      0.99963     2.27714    0.00753     3.28430
      C    2   -0.06507      0.99956     2.05244    0.01307     3.06507
      C    3   -0.28456      0.99963     2.27747    0.00746     3.28456
      C    4   -0.28735      0.99962     2.27932    0.00841     3.28735
      C    5    0.23363      0.99950     1.74754    0.01934     2.76637
      O    6   -0.29865      0.99988     3.29038    0.00838     4.29865
      C    7   -0.02121      0.99957     2.00909    0.01255     3.02121
      C    8    0.05013      0.99955     1.93570    0.01462     2.94987
      O    9   -0.31293      0.99988     3.30484    0.00821     4.31293
      C   10   -0.09739      0.99961     2.08655    0.01123     3.09739
      N   11   -0.42325      0.99977     2.91299    0.01048     3.92325
      H   12    0.10033      0.00000     0.39863    0.00104     0.39967
      H   13    0.10559      0.00000     0.39312    0.00130     0.39441
      H   14    0.09902      0.00000     0.39999    0.00099     0.40098
      H   15    0.10004      0.00000     0.39894    0.00102     0.39996
      H   16    0.10586      0.00000     0.39273    0.00141     0.39414
      H   17    0.09911      0.00000     0.39984    0.00105     0.40089
      H   18    0.10230      0.00000     0.39592    0.00178     0.39770
      H   19    0.10537      0.00000     0.39321    0.00142     0.39463
      H   20    0.09964      0.00000     0.39928    0.00107     0.40036
      H   21    0.07081      0.00000     0.42758    0.00160     0.42919
      H   22    0.09735      0.00000     0.40085    0.00180     0.40265
      H   23    0.08384      0.00000     0.41450    0.00166     0.41616
      H   24    0.09225      0.00000     0.40624    0.00151     0.40775
      H   25    0.09222      0.00000     0.40575    0.00202     0.40778
      H   26    0.08389      0.00000     0.41363    0.00248     0.41611
      H   27    0.17555      0.00000     0.32257    0.00188     0.32445
      H   28    0.17778      0.00000     0.31971    0.00251     0.32222
 =======================================================================
   * Total *    0.00000     10.99619    32.85595    0.14786    44.00000

 Normal termination of Gaussian 16 at Tue Dec  8 19:39:34 2020.
