 Gaussian 16, Revision A.03,

 -----------------------------------------------------------
 # opt freq B3LYP/6-31G(d) empiricaldispersion=gd3bj scf=xqc
 -----------------------------------------------------------

 ------------------------------
 CID_52133216_JID_1964_neutraal
 ------------------------------
 Symbolic Z-matrix:
 Charge =  0 Multiplicity = 1

 SCF Done:  E(RB3LYP) =  -835.792643298     A.U. after   14 cycles
 SCF Done:  E(RB3LYP) =  -835.796685436     A.U. after   13 cycles
 SCF Done:  E(RB3LYP) =  -835.799420927     A.U. after   14 cycles
 SCF Done:  E(RB3LYP) =  -835.801170692     A.U. after   15 cycles
 SCF Done:  E(RB3LYP) =  -835.801556028     A.U. after   12 cycles
 SCF Done:  E(RB3LYP) =  -835.800009148     A.U. after   13 cycles
 SCF Done:  E(RB3LYP) =  -835.802985534     A.U. after   12 cycles
 SCF Done:  E(RB3LYP) =  -835.803592886     A.U. after   13 cycles
 SCF Done:  E(RB3LYP) =  -835.803877941     A.U. after   12 cycles
 SCF Done:  E(RB3LYP) =  -835.803964263     A.U. after   12 cycles
 SCF Done:  E(RB3LYP) =  -835.806379680     A.U. after   14 cycles
 SCF Done:  E(RB3LYP) =  -835.806533535     A.U. after   12 cycles
 SCF Done:  E(RB3LYP) =  -835.806546397     A.U. after   11 cycles
 SCF Done:  E(RB3LYP) =  -835.806549696     A.U. after   10 cycles
 SCF Done:  E(RB3LYP) =  -835.806547753     A.U. after   10 cycles
 SCF Done:  E(RB3LYP) =  -835.806549859     A.U. after   10 cycles
 Optimization completed.
    -- Stationary point found.
 Normal termination of Gaussian 16 at Tue Dec  8 21:55:31 2020.

 --------------------------------------------------------------------
 #N Geom=AllCheck Guess=TCheck SCRF=Check GenChk RB3LYP/6-31G(d) Freq
 --------------------------------------------------------------------

 Structure from the checkpoint file:  "JID_1964.chk"
 ------------------------------
 CID_52133216_JID_1964_neutraal
 ------------------------------
 Charge =  0 Multiplicity = 1

 SCF Done:  E(RB3LYP) =  -835.806549859     A.U. after    1 cycles

  Exact polarizability: 111.554  -0.881  97.451 -10.247   7.384  99.832
 Approx polarizability: 164.431  -0.882 156.301 -23.402  25.464 164.585

                      1                      2                      3
                      A                      A                      A
 Frequencies --     40.2957                57.3924                65.2561
 Red. masses --      4.0772                 3.3272                 3.1918
 Frc consts  --      0.0039                 0.0065                 0.0080
 IR Inten    --      2.8816                 0.6702                 0.4834

                      4                      5                      6
                      A                      A                      A
 Frequencies --    100.6893               130.0842               156.1699
 Red. masses --      2.5071                 4.1622                 3.6230
 Frc consts  --      0.0150                 0.0415                 0.0521
 IR Inten    --      2.3049                 3.2050                 1.5808

                      7                      8                      9
                      A                      A                      A
 Frequencies --    199.7658               247.8919               267.3224
 Red. masses --      1.5884                 2.4043                 2.0510
 Frc consts  --      0.0373                 0.0870                 0.0864
 IR Inten    --      1.0575                 1.9507                 2.6476

                     10                     11                     12
                      A                      A                      A
 Frequencies --    319.4703               413.4881               422.0694
 Red. masses --      3.1810                 3.5112                 2.0894
 Frc consts  --      0.1913                 0.3537                 0.2193
 IR Inten    --      0.4420                 3.1895                 0.1010

                     13                     14                     15
                      A                      A                      A
 Frequencies --    427.2087               495.3419               579.4660
 Red. masses --      3.6380                 8.0465                 2.6797
 Frc consts  --      0.3912                 1.1632                 0.5302
 IR Inten    --      1.4983                 1.3819                 2.0328

                     16                     17                     18
                      A                      A                      A
 Frequencies --    670.5224               682.0307               701.8097
 Red. masses --      4.4426                 3.6147                 9.5444
 Frc consts  --      1.1768                 0.9907                 2.7697
 IR Inten    --      9.8725                 7.1641                 3.7545

                     19                     20                     21
                      A                      A                      A
 Frequencies --    738.8481               800.8024               813.0306
 Red. masses --      2.3895                 1.1737                 1.3729
 Frc consts  --      0.7685                 0.4435                 0.5347
 IR Inten    --     27.3388                 3.3812                 8.2530

                     22                     23                     24
                      A                      A                      A
 Frequencies --    897.3764               956.8591               959.8401
 Red. masses --      1.3964                 1.3827                 2.3337
 Frc consts  --      0.6626                 0.7459                 1.2668
 IR Inten    --      6.2695                41.8897                 2.8292

                     25                     26                     27
                      A                      A                      A
 Frequencies --    970.5341               979.1684              1026.4794
 Red. masses --      7.4426                 2.2782                 1.0950
 Frc consts  --      4.1304                 1.2869                 0.6798
 IR Inten    --      6.1342                 5.8901                20.3996

                     28                     29                     30
                      A                      A                      A
 Frequencies --   1054.8816              1108.2939              1115.1885
 Red. masses --      7.0827                 1.4892                 1.7775
 Frc consts  --      4.6436                 1.0777                 1.3025
 IR Inten    --      2.3421                 4.2713                 8.2791

                     31                     32                     33
                      A                      A                      A
 Frequencies --   1122.9299              1189.7025              1222.4715
 Red. masses --      1.7970                 3.6655                 1.6689
 Frc consts  --      1.3351                 3.0567                 1.4695
 IR Inten    --      6.3230                 9.9649                27.4400

                     34                     35                     36
                      A                      A                      A
 Frequencies --   1253.1845              1275.5180              1288.9135
 Red. masses --      1.3596                 1.2240                 1.6728
 Frc consts  --      1.2581                 1.1733                 1.6373
 IR Inten    --      0.1534                14.0822                 4.8899

                     37                     38                     39
                      A                      A                      A
 Frequencies --   1340.4509              1389.9908              1406.4086
 Red. masses --      1.2682                 5.6105                 2.6878
 Frc consts  --      1.3426                 6.3867                 3.1324
 IR Inten    --      0.3943                25.1473                12.4501

                     40                     41                     42
                      A                      A                      A
 Frequencies --   1408.7491              1443.6531              1463.1465
 Red. masses --      1.4440                 1.2769                 2.2077
 Frc consts  --      1.6885                 1.5679                 2.7846
 IR Inten    --      5.3991                10.0737                15.7471

                     43                     44                     45
                      A                      A                      A
 Frequencies --   1465.1837              1504.7233              1509.2367
 Red. masses --      1.6098                 1.1430                 1.3605
 Frc consts  --      2.0361                 1.5247                 1.8259
 IR Inten    --     22.0916                 9.4873                10.3803

                     46                     47                     48
                      A                      A                      A
 Frequencies --   1519.6402              1530.4199              1544.0627
 Red. masses --      1.0452                 1.1911                 1.8937
 Frc consts  --      1.4221                 1.6437                 2.6600
 IR Inten    --      4.9715                 2.8779                49.0390

                     49                     50                     51
                      A                      A                      A
 Frequencies --   1720.7816              3063.6432              3088.7113
 Red. masses --      4.2651                 1.0358                 1.0634
 Frc consts  --      7.4410                 5.7279                 5.9775
 IR Inten    --      1.8430                16.2047                23.1796

                     52                     53                     54
                      A                      A                      A
 Frequencies --   3091.6134              3127.9352              3142.4281
 Red. masses --      1.0617                 1.1035                 1.1011
 Frc consts  --      5.9790                 6.3610                 6.4060
 IR Inten    --     14.1964                10.2018                14.9010

                     55                     56                     57
                      A                      A                      A
 Frequencies --   3153.4455              3156.4706              3165.9083
 Red. masses --      1.0885                 1.1041                 1.0779
 Frc consts  --      6.3774                 6.4810                 6.3653
 IR Inten    --      4.9475                16.4703                 4.9302

                     58                     59                     60
                      A                      A                      A
 Frequencies --   3173.1956              3251.3065              3273.4729
 Red. masses --      1.0880                 1.1170                 1.0979
 Frc consts  --      6.4546                 6.9568                 6.9318
 IR Inten    --      8.4190                 9.6373                 0.9066

 - Thermochemistry -
 -------------------
 Temperature   298.150 Kelvin.  Pressure   1.00000 Atm.
 Atom     1 has atomic number  6 and mass  12.00000

 Molecular mass:   169.06737 amu.
 Principal axes and moments of inertia in atomic units:
                           1         2         3
     Eigenvalues --  1516.481892172.828732400.92525
           X            0.99769   0.06588   0.01653
           Y           -0.06495   0.99657  -0.05132
           Z           -0.01986   0.05013   0.99855
 This molecule is an asymmetric top.
 Rotational symmetry number  1.
 Warning -- assumption of classical behavior for rotation
           may cause significant error
 Rotational temperatures (Kelvin)      0.05712     0.03986     0.03608
 Rotational constants (GHZ):           1.19008     0.83060     0.75169
 Zero-point vibrational energy     470640.1 (Joules/Mol)
                                  112.48568 (Kcal/Mol)
 Warning -- explicit consideration of  15 degrees of freedom as
           vibrations may cause significant error
 Vibrational temperatures:     57.98    82.57    93.89   144.87   187.16
          (Kelvin)            224.69   287.42   356.66   384.62   459.65
                              594.92   607.26   614.66   712.69   833.72
                              964.73   981.29  1009.75  1063.04  1152.18
                             1169.77  1291.12  1376.71  1381.00  1396.38
                             1408.80  1476.87  1517.74  1594.59  1604.51
                             1615.65  1711.72  1758.86  1803.05  1835.19
                             1854.46  1928.61  1999.89  2023.51  2026.88
                             2077.09  2105.14  2108.07  2164.96  2171.46
                             2186.42  2201.93  2221.56  2475.82  4407.90
                             4443.97  4448.14  4500.40  4521.25  4537.10
                             4541.46  4555.04  4565.52  4677.90  4709.80

 Zero-point correction=                           0.179257 (Hartree/Particle)
 Thermal correction to Energy=                    0.190898
 Thermal correction to Enthalpy=                  0.191842
 Thermal correction to Gibbs Free Energy=         0.140375
 Sum of electronic and zero-point Energies=           -835.627293
 Sum of electronic and thermal Energies=              -835.615652
 Sum of electronic and thermal Enthalpies=            -835.614708
 Sum of electronic and thermal Free Energies=         -835.666175

                     E (Thermal)             CV                S
                      KCal/Mol        Cal/Mol-Kelvin    Cal/Mol-Kelvin
 Total                  119.790             41.468            108.321
 Electronic               0.000              0.000              0.000
 Translational            0.889              2.981             41.283
 Rotational               0.889              2.981             30.449
 Vibrational            118.013             35.506             36.589
 Vibration     1          0.594              1.981              5.244
 Vibration     2          0.596              1.975              4.545
 Vibration     3          0.597              1.971              4.292
 Vibration     4          0.604              1.949              3.441
 Vibration     5          0.612              1.923              2.945
 Vibration     6          0.620              1.896              2.596
 Vibration     7          0.638              1.840              2.135
 Vibration     8          0.662              1.766              1.746
 Vibration     9          0.672              1.733              1.613
 Vibration    10          0.705              1.636              1.313
 Vibration    11          0.777              1.441              0.914
 Vibration    12          0.784              1.422              0.885
 Vibration    13          0.789              1.411              0.868
 Vibration    14          0.851              1.260              0.670
 Vibration    15          0.936              1.076              0.486

                           ! Non-Optimized Parameters !
 Normal termination of Gaussian 16 at Tue Dec  8 22:00:13 2020.

 ----------------------------------------------------------------------
 # B3LYP/6-311++G(d,p) empiricaldispersion=gd3bj scf=xqc pop=npa geom=c
 heck
 ----------------------------------------------------------------------

 --------------------------------------
 CID_52133216_JID_1964_Energie_neutraal
 --------------------------------------
 Structure from the checkpoint file:  "JID_1964.chk"
 Charge =  0 Multiplicity = 1

 SCF Done:  E(RB3LYP) =  -835.952441457     A.U. after   15 cycles
 Normal termination of Gaussian 16 at Tue Dec  8 22:02:19 2020.

 ----------------------------------------------------------------------
 # B3LYP/6-311++G(d,p) empiricaldispersion=gd3bj scf=xqc pop=npa geom=c
 heck
 ----------------------------------------------------------------------

 ------------------------------------
 CID_52133216_JID_1964_Energie_kation
 ------------------------------------
 Structure from the checkpoint file:  "JID_1964.chk"
 Charge =  1 Multiplicity = 2

 SCF Done:  E(UB3LYP) =  -835.641536826     A.U. after   25 cycles
 Normal termination of Gaussian 16 at Tue Dec  8 22:07:30 2020.
 Gaussian 16:  ES64L-G16RevA.03 25-Dec-2016

 ----------------------------------------------------------------------
 # B3LYP/6-311++G(d,p) empiricaldispersion=gd3bj scf=xqc pop=npa geom=c
 heck
 ----------------------------------------------------------------------

 -----------------------------------
 CID_52133216_JID_1964_Energie_anion
 -----------------------------------
 Structure from the checkpoint file:  "JID_1964.chk"
 Charge = -1 Multiplicity = 2

                         Standard orientation:
 ---------------------------------------------------------------------
 Center     Atomic      Atomic             Coordinates (Angstroms)
 Number     Number       Type             X           Y           Z
 ---------------------------------------------------------------------
      1          6           0        1.359125    2.311473   -0.491452
      2          6           0        1.841528    1.323203    0.568541
      3          7           0        1.444992   -0.047769    0.252929
      4          6           0        2.101882   -0.933541   -0.556176
      5          7           0        1.390093   -2.020040   -0.745360
      6          7           0        0.217262   -1.865043   -0.031817
      7          6           0        0.261247   -0.683464    0.550254
      8         16           0       -1.008752    0.023669    1.544147
      9          6           0       -2.407521   -0.172594    0.326379
     10          6           0       -2.221999    0.692649   -0.876210
     11          6           0       -1.775382    0.232769   -2.047323
     12          1           0        1.784633    2.069756   -1.470801
     13          1           0        1.660673    3.329426   -0.222874
     14          1           0        0.269650    2.275030   -0.574192
     15          1           0        2.931850    1.336228    0.658679
     16          1           0        1.426272    1.571805    1.547446
     17          1           0        3.086977   -0.743161   -0.959340
     18          1           0       -2.447251   -1.232220    0.069679
     19          1           0       -3.299409    0.092888    0.902034
     20          1           0       -2.430073    1.753986   -0.745495
     21          1           0       -1.626563    0.892515   -2.897621
     22          1           0       -1.536436   -0.817959   -2.188194
 ---------------------------------------------------------------------

 SCF Done:  E(UB3LYP) =  -835.942814883     A.U. after   32 cycles

 The electronic state is 2-A.
 Alpha  occ. eigenvalues --  -88.74257 -14.26458 -14.21025 -14.20476 -10.13483
 Alpha  occ. eigenvalues --  -10.11504 -10.10542 -10.09541 -10.06983 -10.05714
 Alpha  occ. eigenvalues --  -10.05483  -7.82861  -5.79260  -5.78887  -5.78223
 Alpha  occ. eigenvalues --   -0.94819  -0.81348  -0.72643  -0.68920  -0.65861
 Alpha  occ. eigenvalues --   -0.63219  -0.56030  -0.54617  -0.51071  -0.46198
 Alpha  occ. eigenvalues --   -0.44866  -0.40863  -0.37724  -0.36596  -0.34979
 Alpha  occ. eigenvalues --   -0.33778  -0.32898  -0.30720  -0.29959  -0.28819
 Alpha  occ. eigenvalues --   -0.27526  -0.25779  -0.25478  -0.23722  -0.20090
 Alpha  occ. eigenvalues --   -0.17695  -0.16721  -0.16250  -0.14823  -0.11985
 Alpha  occ. eigenvalues --    0.04876
 Alpha virt. eigenvalues --    0.07098   0.07898   0.08816   0.09051   0.10408
 Alpha virt. eigenvalues --    0.10632   0.11275   0.11763   0.12254   0.12780
 Alpha virt. eigenvalues --    0.13339   0.13630   0.14365   0.14619   0.15944

  Beta  occ. eigenvalues --  -88.74226 -14.26404 -14.21047 -14.20411 -10.13445
  Beta  occ. eigenvalues --  -10.11461 -10.10489 -10.09431 -10.06947 -10.05681
  Beta  occ. eigenvalues --  -10.05350  -7.82825  -5.79199  -5.78861  -5.78198
  Beta  occ. eigenvalues --   -0.94749  -0.81249  -0.72474  -0.68756  -0.65777
  Beta  occ. eigenvalues --   -0.63018  -0.55807  -0.54516  -0.50993  -0.46014
  Beta  occ. eigenvalues --   -0.44732  -0.40728  -0.37619  -0.36429  -0.34880
  Beta  occ. eigenvalues --   -0.33694  -0.32783  -0.30575  -0.29732  -0.28707
  Beta  occ. eigenvalues --   -0.27427  -0.25684  -0.25401  -0.23534  -0.20039
  Beta  occ. eigenvalues --   -0.17489  -0.16506  -0.15671  -0.14731  -0.11816
  Beta virt. eigenvalues --    0.07565   0.08076   0.08612   0.09257   0.09587
  Beta virt. eigenvalues --    0.10812   0.11261   0.11516   0.12439   0.12541
  Beta virt. eigenvalues --    0.12904   0.13438   0.13777   0.14601   0.14953

 Mulliken charges and spin densities:
               1          2
     1  C    0.384330  -0.807707
     2  C    0.943128  -1.221333
     3  N    0.040860   0.115340
     4  C    0.366488  -0.325791
     5  N   -0.209680  -0.010256
     6  N   -0.038678   0.026956
     7  C   -0.376726   0.174736
     8  S    0.499056  -0.466316
     9  C   -0.676403   0.099379
    10  C    0.379498   0.073272
    11  C   -0.727189   0.046590
    12  H    0.113566   0.019721
    13  H   -0.661218   0.808624
    14  H    0.036273   0.124472
    15  H   -0.947115   1.139040
    16  H   -0.457526   0.601887
    17  H   -0.382023   0.563452
    18  H    0.211624  -0.002495
    19  H    0.172989   0.014502
    20  H    0.116481   0.021177
    21  H    0.081116   0.011923
    22  H    0.131151  -0.007171
 Sum of Mulliken charges =  -1.00000   1.00000

 Dipole moment (field-independent basis, Debye):
    X=             -6.9924    Y=             -1.5239    Z=             -1.4952  Tot=              7.3110
 Quadrupole moment (field-independent basis, Debye-Ang):
   XX=           -120.7131   YY=           -122.2749   ZZ=            -98.7637
   XY=            -13.3147   XZ=             -6.5228   YZ=             -6.9378

 Summary of Natural Population Analysis:

                                       Natural Population
                Natural  -----------------------------------------------
    Atom  No    Charge         Core      Valence    Rydberg      Total
 -----------------------------------------------------------------------
      C    1   -0.28866      0.99965     2.28313    0.00589     3.28866
      C    2   -0.08673      0.99962     2.07430    0.01281     3.08673
      N    3   -0.21317      0.99959     2.69859    0.01498     3.71317
      C    4    0.10228      0.99963     1.88049    0.01761     2.89772
      N    5   -0.16884      0.99973     2.65665    0.01246     3.66884
      N    6   -0.16964      0.99966     2.65567    0.01432     3.66964
      C    7    0.10870      0.99954     1.86876    0.02300     2.89130
      S    8    0.11653      4.99955     2.86411    0.01981     7.88347
      C    9   -0.24090      0.99956     2.22995    0.01138     3.24090
      C   10   -0.10295      0.99957     2.09376    0.00962     3.10295
      C   11   -0.16202      0.99957     2.15517    0.00728     3.16202
      H   12    0.09653      0.00000     0.40234    0.00112     0.40347
      H   13    0.10513      0.00000     0.39249    0.00238     0.39487
      H   14    0.10414      0.00000     0.39462    0.00124     0.39586
      H   15    0.10594      0.00000     0.38474    0.00932     0.39406
      H   16    0.10893      0.00000     0.38835    0.00271     0.39107
      H   17    0.09828      0.00000     0.40012    0.00160     0.40172
      H   18    0.11018      0.00000     0.38852    0.00130     0.38982
      H   19    0.10141      0.00000     0.39773    0.00086     0.39859
      H   20    0.09110      0.00000     0.40759    0.00131     0.40890
      H   21    0.08812      0.00000     0.41064    0.00124     0.41188
      H   22    0.09565      0.00000     0.40298    0.00138     0.40435
 =======================================================================
   * Total *   -0.00000     14.99566    29.83070    0.17364    45.00000

 Normal termination of Gaussian 16 at Tue Dec  8 22:13:50 2020.
