 Gaussian 16, Revision A.03,

 -----------------------------------------------------------
 # opt freq B3LYP/6-31G(d) empiricaldispersion=gd3bj scf=xqc
 -----------------------------------------------------------

 -------------------------------
 CID_117310839_JID_6264_neutraal
 -------------------------------
 Symbolic Z-matrix:
 Charge =  0 Multiplicity = 1

 SCF Done:  E(RB3LYP) =  -725.722342580     A.U. after   14 cycles
 SCF Done:  E(RB3LYP) =  -725.732277753     A.U. after   12 cycles
 SCF Done:  E(RB3LYP) =  -725.732940622     A.U. after   11 cycles
 SCF Done:  E(RB3LYP) =  -725.732989166     A.U. after   10 cycles
 SCF Done:  E(RB3LYP) =  -725.732997345     A.U. after    9 cycles
 SCF Done:  E(RB3LYP) =  -725.732999029     A.U. after    8 cycles
 SCF Done:  E(RB3LYP) =  -725.733001067     A.U. after    8 cycles
 SCF Done:  E(RB3LYP) =  -725.733003954     A.U. after    9 cycles
 SCF Done:  E(RB3LYP) =  -725.733006339     A.U. after    9 cycles
 SCF Done:  E(RB3LYP) =  -725.733008162     A.U. after    9 cycles
 SCF Done:  E(RB3LYP) =  -725.733008520     A.U. after    7 cycles
 Optimization completed.
    -- Stationary point found.
 Normal termination of Gaussian 16 at Thu Dec 10 21:53:41 2020.

 --------------------------------------------------------------------
 #N Geom=AllCheck Guess=TCheck SCRF=Check GenChk RB3LYP/6-31G(d) Freq
 --------------------------------------------------------------------

 Structure from the checkpoint file:  "JID_6264.chk"
 -------------------------------
 CID_117310839_JID_6264_neutraal
 -------------------------------
 Charge =  0 Multiplicity = 1

 SCF Done:  E(RB3LYP) =  -725.733008520     A.U. after    1 cycles

  Exact polarizability: 167.675  -6.190 156.664  13.165   1.163  83.317
 Approx polarizability: 235.284 -18.638 259.800  29.598   1.401 129.677

                      1                      2                      3
                      A                      A                      A
 Frequencies --     32.8684                40.5351                72.0977
 Red. masses --      3.6309                 4.1662                 3.0415
 Frc consts  --      0.0023                 0.0040                 0.0093
 IR Inten    --      0.5908                 0.3848                 0.3500

                      4                      5                      6
                      A                      A                      A
 Frequencies --     88.5101               125.0195               133.2283
 Red. masses --      2.2416                 8.4560                 3.4577
 Frc consts  --      0.0103                 0.0779                 0.0362
 IR Inten    --      0.6246                 0.2307                 1.2766

                      7                      8                      9
                      A                      A                      A
 Frequencies --    195.9977               247.0422               282.8046
 Red. masses --      4.2043                 3.6210                 4.0534
 Frc consts  --      0.0952                 0.1302                 0.1910
 IR Inten    --      0.6237                 0.1359                 1.2002

                     10                     11                     12
                      A                      A                      A
 Frequencies --    314.9866               334.5754               387.2444
 Red. masses --      4.2731                 3.9856                 3.7718
 Frc consts  --      0.2498                 0.2629                 0.3333
 IR Inten    --      7.2934                12.4033                 5.3953

                     13                     14                     15
                      A                      A                      A
 Frequencies --    397.9679               444.7457               512.7646
 Red. masses --      2.0746                 1.2930                 5.3227
 Frc consts  --      0.1936                 0.1507                 0.8245
 IR Inten    --      2.5247               105.9411                 2.6877

                     16                     17                     18
                      A                      A                      A
 Frequencies --    547.5712               585.3407               594.4536
 Red. masses --      4.3575                 4.4053                 5.0888
 Frc consts  --      0.7698                 0.8893                 1.0595
 IR Inten    --      1.1449                 1.3408                11.4292

                     19                     20                     21
                      A                      A                      A
 Frequencies --    618.2932               661.5391               682.0995
 Red. masses --      5.8335                 5.1042                 2.7890
 Frc consts  --      1.3139                 1.3161                 0.7645
 IR Inten    --      2.0677                 5.4070                 2.0117

                     22                     23                     24
                      A                      A                      A
 Frequencies --    710.3685               733.6868               745.2942
 Red. masses --      2.8749                 3.5177                 9.7285
 Frc consts  --      0.8547                 1.1157                 3.1838
 IR Inten    --      3.8483                 2.7678                10.7279

                     25                     26                     27
                      A                      A                      A
 Frequencies --    776.6416               799.4834               815.6250
 Red. masses --      1.4688                 1.9073                 3.6349
 Frc consts  --      0.5220                 0.7183                 1.4247
 IR Inten    --     48.6050                 6.8582                53.6642

                     28                     29                     30
                      A                      A                      A
 Frequencies --    842.2638               843.7634               893.2415
 Red. masses --      1.7745                 1.9651                 2.2930
 Frc consts  --      0.7417                 0.8243                 1.0779
 IR Inten    --     21.3810                23.8219                 3.4269

                     31                     32                     33
                      A                      A                      A
 Frequencies --    895.7012               897.0799               914.5326
 Red. masses --      1.6237                 3.0281                 2.2551
 Frc consts  --      0.7675                 1.4358                 1.1113
 IR Inten    --      1.1700                 0.2508                 7.1982

                     34                     35                     36
                      A                      A                      A
 Frequencies --    935.4152               946.5985               951.9417
 Red. masses --      6.4398                 2.6389                 1.3025
 Frc consts  --      3.3199                 1.3931                 0.6954
 IR Inten    --     88.1724                 4.0002                 1.6383

                     37                     38                     39
                      A                      A                      A
 Frequencies --    976.1689              1015.7181              1046.2888
 Red. masses --      2.0745                 3.3239                 1.7810
 Frc consts  --      1.1647                 2.0204                 1.1487
 IR Inten    --      3.3237                 4.3293                 1.0023

                     40                     41                     42
                      A                      A                      A
 Frequencies --   1057.8344              1079.4473              1097.4074
 Red. masses --      2.2305                 1.6958                 2.0420
 Frc consts  --      1.4705                 1.1642                 1.4489
 IR Inten    --     11.4473                 3.3638                14.7084

                     43                     44                     45
                      A                      A                      A
 Frequencies --   1122.2978              1158.7706              1188.1540
 Red. masses --      3.2448                 2.1809                 1.1955
 Frc consts  --      2.4080                 1.7254                 0.9944
 IR Inten    --     46.3584                28.8641                 3.6151

                     46                     47                     48
                      A                      A                      A
 Frequencies --   1200.8991              1232.4150              1249.0255
 Red. masses --      1.5306                 1.3545                 1.2765
 Frc consts  --      1.3005                 1.2121                 1.1733
 IR Inten    --      5.0076                17.8916                 0.1257

                     49                     50                     51
                      A                      A                      A
 Frequencies --   1258.5886              1278.1616              1303.3545
 Red. masses --      1.3182                 1.6998                 2.7427
 Frc consts  --      1.2302                 1.6362                 2.7450
 IR Inten    --      4.4915                34.2162                74.9062

                     52                     53                     54
                      A                      A                      A
 Frequencies --   1303.9279              1321.8700              1332.7515
 Red. masses --      2.6666                 1.2811                 1.2392
 Frc consts  --      2.6712                 1.3189                 1.2968
 IR Inten    --     40.8263                 0.5614                 0.3109

                     55                     56                     57
                      A                      A                      A
 Frequencies --   1340.1414              1348.2923              1365.6217
 Red. masses --      1.7389                 1.5463                 2.3184
 Frc consts  --      1.8400                 1.6562                 2.5474
 IR Inten    --     11.2902                 9.0998                20.0187

                     58                     59                     60
                      A                      A                      A
 Frequencies --   1386.8422              1410.2597              1435.7878
 Red. masses --      1.3863                 1.3818                 3.1124
 Frc consts  --      1.5709                 1.6192                 3.7803
 IR Inten    --      1.0738                 7.9636                32.5560

                     61                     62                     63
                      A                      A                      A
 Frequencies --   1482.5503              1501.5765              1519.7976
 Red. masses --      1.2186                 3.0596                 1.1192
 Frc consts  --      1.5780                 4.0646                 1.5231
 IR Inten    --      3.4520               105.0565                 4.9620

                     64                     65                     66
                      A                      A                      A
 Frequencies --   1524.1657              1535.4291              1542.4273
 Red. masses --      1.1026                 1.0949                 3.0873
 Frc consts  --      1.5091                 1.5209                 4.3275
 IR Inten    --      9.7272                 4.0594                11.4029

                     67                     68                     69
                      A                      A                      A
 Frequencies --   1550.7351              1669.5484              1689.8861
 Red. masses --      1.0959                 7.7997                 7.4074
 Frc consts  --      1.5527                12.8093                12.4633
 IR Inten    --      3.3544                 3.6626                10.9490

                     70                     71                     72
                      A                      A                      A
 Frequencies --   1916.7176              3050.8583              3056.1428
 Red. masses --     11.7310                 1.0617                 1.0745
 Frc consts  --     25.3922                 5.8225                 5.9127
 IR Inten    --    917.4987                17.9757                 7.7200

                     73                     74                     75
                      A                      A                      A
 Frequencies --   3059.3329              3068.0448              3075.1441
 Red. masses --      1.0665                 1.0726                 1.0703
 Frc consts  --      5.8812                 5.9488                 5.9631
 IR Inten    --     46.1675                57.7119                12.4016

                     76                     77                     78
                      A                      A                      A
 Frequencies --   3097.0784              3099.3136              3115.0909
 Red. masses --      1.1003                 1.1003                 1.0994
 Frc consts  --      6.2184                 6.2272                 6.2859
 IR Inten    --     37.6907                10.7476                 7.7505

                     79                     80                     81
                      A                      A                      A
 Frequencies --   3124.5919              3187.8691              3210.1065
 Red. masses --      1.1050                 1.0880                 1.0919
 Frc consts  --      6.3560                 6.5143                 6.6291
 IR Inten    --     68.7372                 8.8106                13.3986

                     82                     83                     84
                      A                      A                      A
 Frequencies --   3235.0757              3483.6994              3680.5093
 Red. masses --      1.0945                 1.0748                 1.0801
 Frc consts  --      6.7487                 7.6856                 8.6204
 IR Inten    --      4.3367                 1.2625                62.8307

 - Thermochemistry -
 -------------------
 Temperature   298.150 Kelvin.  Pressure   1.00000 Atm.
 Atom     1 has atomic number  6 and mass  12.00000

 Molecular mass:   218.10553 amu.
 Principal axes and moments of inertia in atomic units:
                           1         2         3
     Eigenvalues --  1868.488655488.618926882.91316
           X            0.99991   0.01338  -0.00292
           Y           -0.01337   0.99990   0.00454
           Z            0.00298  -0.00450   0.99999
 This molecule is an asymmetric top.
 Rotational symmetry number  1.
 Warning -- assumption of classical behavior for rotation
           may cause significant error
 Rotational temperatures (Kelvin)      0.04636     0.01578     0.01258
 Rotational constants (GHZ):           0.96588     0.32882     0.26221
 Zero-point vibrational energy     657868.6 (Joules/Mol)
                                  157.23437 (Kcal/Mol)
 Warning -- explicit consideration of  19 degrees of freedom as
           vibrations may cause significant error
 Vibrational temperatures:     47.29    58.32   103.73   127.35   179.88
          (Kelvin)            191.69   282.00   355.44   406.89   453.20
                              481.38   557.16   572.59   639.89   737.75
                              787.83   842.17   855.29   889.59   951.81
                              981.39  1022.06  1055.61  1072.31  1117.41
                             1150.28  1173.50  1211.83  1213.99  1285.18
                             1288.71  1290.70  1315.81  1345.85  1361.94
                             1369.63  1404.49  1461.39  1505.38  1521.99
                             1553.08  1578.92  1614.74  1667.21  1709.49
                             1727.83  1773.17  1797.07  1810.83  1838.99
                             1875.24  1876.06  1901.88  1917.53  1928.16
                             1939.89  1964.83  1995.36  2029.05  2065.78
                             2133.06  2160.43  2186.65  2192.93  2209.14
                             2219.21  2231.16  2402.11  2431.37  2757.73
                             4389.50  4397.11  4401.70  4414.23  4424.45
                             4456.01  4459.22  4481.92  4495.59  4586.63
                             4618.63  4654.55  5012.27  5295.43

 Zero-point correction=                           0.250569 (Hartree/Particle)
 Thermal correction to Energy=                    0.263828
 Thermal correction to Enthalpy=                  0.264772
 Thermal correction to Gibbs Free Energy=         0.209140
 Sum of electronic and zero-point Energies=           -725.482440
 Sum of electronic and thermal Energies=              -725.469181
 Sum of electronic and thermal Enthalpies=            -725.468237
 Sum of electronic and thermal Free Energies=         -725.523868

                     E (Thermal)             CV                S
                      KCal/Mol        Cal/Mol-Kelvin    Cal/Mol-Kelvin
 Total                  165.554             52.045            117.086
 Electronic               0.000              0.000              0.000
 Translational            0.889              2.981             42.042
 Rotational               0.889              2.981             32.623
 Vibrational            163.777             46.083             42.421
 Vibration     1          0.594              1.983              5.648
 Vibration     2          0.594              1.981              5.233
 Vibration     3          0.598              1.967              4.095
 Vibration     4          0.601              1.957              3.693
 Vibration     5          0.610              1.928              3.021
 Vibration     6          0.613              1.920              2.899
 Vibration     7          0.636              1.845              2.170
 Vibration     8          0.661              1.768              1.752
 Vibration     9          0.682              1.706              1.517
 Vibration    10          0.702              1.645              1.336
 Vibration    11          0.716              1.606              1.238
 Vibration    12          0.756              1.497              1.011
 Vibration    13          0.764              1.474              0.970
 Vibration    14          0.804              1.372              0.812
 Vibration    15          0.868              1.222              0.627
 Vibration    16          0.903              1.145              0.549
 Vibration    17          0.942              1.063              0.476
 Vibration    18          0.952              1.044              0.459
 Vibration    19          0.978              0.993              0.419

                           ! Non-Optimized Parameters !
 Normal termination of Gaussian 16 at Thu Dec 10 22:03:18 2020.

 ----------------------------------------------------------------------
 # B3LYP/6-311++G(d,p) empiricaldispersion=gd3bj scf=xqc pop=npa geom=c
 heck
 ----------------------------------------------------------------------

 ---------------------------------------
 CID_117310839_JID_6264_Energie_neutraal
 ---------------------------------------
 Structure from the checkpoint file:  "JID_6264.chk"
 Charge =  0 Multiplicity = 1

 SCF Done:  E(RB3LYP) =  -725.935050675     A.U. after   15 cycles
 Normal termination of Gaussian 16 at Thu Dec 10 22:07:23 2020.

 ----------------------------------------------------------------------
 # B3LYP/6-311++G(d,p) empiricaldispersion=gd3bj scf=xqc pop=npa geom=c
 heck
 ----------------------------------------------------------------------

 -------------------------------------
 CID_117310839_JID_6264_Energie_kation
 -------------------------------------
 Structure from the checkpoint file:  "JID_6264.chk"
 Charge =  1 Multiplicity = 2

 SCF Done:  E(UB3LYP) =  -725.636641256     A.U. after   27 cycles
 Normal termination of Gaussian 16 at Thu Dec 10 22:18:10 2020.
 Gaussian 16:  ES64L-G16RevA.03 25-Dec-2016

 ----------------------------------------------------------------------
 # B3LYP/6-311++G(d,p) empiricaldispersion=gd3bj scf=xqc pop=npa geom=c
 heck
 ----------------------------------------------------------------------

 ------------------------------------
 CID_117310839_JID_6264_Energie_anion
 ------------------------------------
 Structure from the checkpoint file:  "JID_6264.chk"
 Charge = -1 Multiplicity = 2

                         Standard orientation:
 ---------------------------------------------------------------------
 Center     Atomic      Atomic             Coordinates (Angstroms)
 Number     Number       Type             X           Y           Z
 ---------------------------------------------------------------------
      1          6           0       -3.905651    0.564315    0.587027
      2          6           0       -2.519698    0.271142    1.205409
      3          6           0       -1.894532   -0.743238    0.224564
      4          7           0       -3.018824   -1.566643   -0.255174
      5          6           0       -4.168469   -0.641743   -0.367854
      6          6           0       -1.204338   -0.060154   -0.977941
      7          6           0        0.042938    0.688219   -0.590457
      8          6           0        1.223413    0.018819   -0.279795
      9          6           0        2.378186    0.693988    0.122730
     10          6           0        2.430076    2.069160    0.242765
     11          6           0        1.251623    2.762195   -0.067560
     12          6           0        0.095861    2.087324   -0.471964
     13          8           0        3.386996   -0.216273    0.359224
     14          6           0        2.891706   -1.495326    0.105678
     15          8           0        3.536110   -2.504413    0.216584
     16          7           0        1.570772   -1.331948   -0.273766
     17          1           0       -4.678331    0.657473    1.355927
     18          1           0       -3.898905    1.505916    0.027868
     19          1           0       -2.631319   -0.201830    2.188010
     20          1           0       -1.910338    1.169169    1.343395
     21          1           0       -1.164686   -1.391849    0.722946
     22          1           0       -3.232077   -2.249494    0.470008
     23          1           0       -5.094051   -1.176402   -0.135763
     24          1           0       -4.252457   -0.297547   -1.404675
     25          1           0       -0.978794   -0.839029   -1.716914
     26          1           0       -1.906883    0.628076   -1.461032
     27          1           0        3.335726    2.575334    0.556398
     28          1           0        1.238787    3.845011    0.005824
     29          1           0       -0.797975    2.657909   -0.709219
     30          1           0        0.996132   -2.115314   -0.542276
 ---------------------------------------------------------------------

 SCF Done:  E(UB3LYP) =  -725.926954196     A.U. after   33 cycles
 SCF Done:  E(UB3LYP) =  -725.926954196     a.u. after    1 cycles

 The electronic state is 2-A.
 Alpha  occ. eigenvalues --  -19.10717 -19.02565 -14.28547 -14.19441 -10.24811
 Alpha  occ. eigenvalues --  -10.15546 -10.13804 -10.10442 -10.10124 -10.09992
 Alpha  occ. eigenvalues --  -10.09407 -10.09042 -10.08765 -10.08120 -10.06423
 Alpha  occ. eigenvalues --  -10.06279  -1.05458  -0.96039  -0.87527  -0.81953
 Alpha  occ. eigenvalues --   -0.77789  -0.70329  -0.66482  -0.65683  -0.64080
 Alpha  occ. eigenvalues --   -0.59238  -0.56659  -0.54788  -0.53452  -0.48255
 Alpha  occ. eigenvalues --   -0.47714  -0.45566  -0.44741  -0.41561  -0.41187
 Alpha  occ. eigenvalues --   -0.39186  -0.38057  -0.36715  -0.36166  -0.35547
 Alpha  occ. eigenvalues --   -0.33265  -0.33117  -0.32279  -0.30519  -0.30140
 Alpha  occ. eigenvalues --   -0.28629  -0.28497  -0.27915  -0.26189  -0.25092
 Alpha  occ. eigenvalues --   -0.24407  -0.23662  -0.23184  -0.22225  -0.21574
 Alpha  occ. eigenvalues --   -0.16319  -0.14154  -0.13440   0.04028
 Alpha virt. eigenvalues --    0.05839   0.06345   0.06948   0.07421   0.07979
 Alpha virt. eigenvalues --    0.08444   0.08922   0.09825   0.10146   0.10786
 Alpha virt. eigenvalues --    0.10972   0.11555   0.11887   0.13111   0.13279

  Beta  occ. eigenvalues --  -19.10711 -19.02558 -14.28514 -14.19416 -10.24806
  Beta  occ. eigenvalues --  -10.15549 -10.13793 -10.10424 -10.10104 -10.09970
  Beta  occ. eigenvalues --  -10.09390 -10.09032 -10.08742 -10.08100 -10.06398
  Beta  occ. eigenvalues --  -10.06257  -1.05443  -0.96027  -0.87486  -0.81905
  Beta  occ. eigenvalues --   -0.77753  -0.70286  -0.66445  -0.65627  -0.64029
  Beta  occ. eigenvalues --   -0.59180  -0.56611  -0.54760  -0.53405  -0.48178
  Beta  occ. eigenvalues --   -0.47652  -0.45532  -0.44682  -0.41486  -0.41149
  Beta  occ. eigenvalues --   -0.39157  -0.38018  -0.36676  -0.36134  -0.35507
  Beta  occ. eigenvalues --   -0.33237  -0.33084  -0.32231  -0.30481  -0.30102
  Beta  occ. eigenvalues --   -0.28595  -0.28465  -0.27877  -0.26144  -0.25051
  Beta  occ. eigenvalues --   -0.24358  -0.23611  -0.23137  -0.22181  -0.21560
  Beta  occ. eigenvalues --   -0.16243  -0.14102  -0.13405
  Beta virt. eigenvalues --    0.06175   0.06544   0.06886   0.07518   0.07876
  Beta virt. eigenvalues --    0.08304   0.08798   0.09389   0.10363   0.10549
  Beta virt. eigenvalues --    0.11049   0.11266   0.11772   0.12063   0.13341

 Mulliken charges and spin densities:
               1          2
     1  C    0.896035  -1.182183
     2  C   -0.788600   0.216787
     3  C    0.037622  -0.549048
     4  N   -0.227698   0.267068
     5  C   -0.032821  -0.378296
     6  C    1.605284  -2.326851
     7  C   -0.492470   1.743835
     8  C   -0.000234   0.671462
     9  C    0.389140  -0.645223
    10  C   -0.749142   0.344432
    11  C    0.434968  -0.878482
    12  C    0.181289  -0.809073
    13  O   -0.140800  -0.012739
    14  C    0.581594  -0.161581
    15  O   -0.381653   0.010966
    16  N   -0.280624  -0.043402
    17  H   -0.206622   0.346858
    18  H   -0.157439   0.298275
    19  H   -0.498305   0.689237
    20  H    0.177747  -0.033816
    21  H   -0.206995   0.413955
    22  H   -0.145371   0.400310
    23  H   -0.448058   0.606099
    24  H    0.145576   0.014698
    25  H    0.038544   0.198784
    26  H   -0.127229   0.319542
    27  H   -0.027052   0.196282
    28  H   -0.307765   0.491235
    29  H   -0.282409   0.439511
    30  H    0.013486   0.351358
 Sum of Mulliken charges =  -1.00000   1.00000

 Dipole moment (field-independent basis, Debye):
    X=              4.5067    Y=              3.3348    Z=             -1.8704  Tot=              5.9101
 Quadrupole moment (field-independent basis, Debye-Ang):
   XX=           -180.2143   YY=           -147.0238   ZZ=           -125.6132
   XY=              0.8497   XZ=              6.1758   YZ=              4.4478

 Summary of Natural Population Analysis:

                                       Natural Population
                Natural  -----------------------------------------------
    Atom  No    Charge         Core      Valence    Rydberg      Total
 -----------------------------------------------------------------------
      C    1   -0.20457      0.99965     2.19756    0.00736     3.20457
      C    2   -0.20148      0.99962     2.19303    0.00884     3.20148
      C    3   -0.00763      0.99959     1.99436    0.01368     3.00763
      N    4   -0.33981      0.99975     2.82662    0.01343     3.83981
      C    5   -0.09324      0.99964     2.08288    0.01072     3.09324
      C    6   -0.20480      0.99958     2.19460    0.01062     3.20480
      C    7   -0.01862      0.99948     2.00912    0.01002     3.01862
      C    8    0.06024      0.99940     1.92982    0.01054     2.93976
      C    9    0.14198      0.99933     1.84640    0.01229     2.85802
      C   10   -0.12163      0.99951     2.11302    0.00909     3.12163
      C   11   -0.10007      0.99958     2.09110    0.00939     3.10007
      C   12   -0.09921      0.99953     2.08998    0.00970     3.09921
      O   13   -0.25700      0.99985     3.25059    0.00655     4.25700
      C   14    0.45293      0.99971     1.52168    0.02567     2.54707
      O   15   -0.30572      0.99986     3.29974    0.00611     4.30572
      N   16   -0.30593      0.99964     2.79865    0.00764     3.80593
      H   17    0.10275      0.00000     0.39558    0.00167     0.39725
      H   18    0.09531      0.00000     0.40328    0.00141     0.40469
      H   19    0.10108      0.00000     0.39716    0.00176     0.39892
      H   20    0.10310      0.00000     0.39552    0.00139     0.39690
      H   21    0.09619      0.00000     0.40148    0.00232     0.40381
      H   22    0.17801      0.00000     0.31712    0.00487     0.32199
      H   23    0.09706      0.00000     0.40147    0.00148     0.40294
      H   24    0.08685      0.00000     0.41177    0.00138     0.41315
      H   25    0.10915      0.00000     0.38909    0.00176     0.39085
      H   26    0.10478      0.00000     0.39323    0.00199     0.39522
      H   27    0.10771      0.00000     0.39132    0.00098     0.39229
      H   28    0.10263      0.00000     0.39637    0.00100     0.39737
      H   29    0.10466      0.00000     0.39410    0.00124     0.39534
      H   30    0.21529      0.00000     0.28176    0.00296     0.28471
 =======================================================================
   * Total *    0.00000     15.99372    41.80840    0.19788    58.00000

 Normal termination of Gaussian 16 at Thu Dec 10 22:30:17 2020.
