 Gaussian 16, Revision A.03,

 -----------------------------------------------------------
 # opt freq B3LYP/6-31G(d) empiricaldispersion=gd3bj scf=xqc
 -----------------------------------------------------------

 ------------------------------
 CID_64092418_JID_6141_neutraal
 ------------------------------
 Symbolic Z-matrix:
 Charge =  0 Multiplicity = 1

 SCF Done:  E(RB3LYP) =  -696.995542081     A.U. after   13 cycles
 SCF Done:  E(RB3LYP) =  -697.002421892     A.U. after   11 cycles
 SCF Done:  E(RB3LYP) =  -697.002508205     A.U. after   11 cycles
 SCF Done:  E(RB3LYP) =  -697.006964138     A.U. after   11 cycles
 SCF Done:  E(RB3LYP) =  -697.010468054     A.U. after   11 cycles
 SCF Done:  E(RB3LYP) =  -697.013076649     A.U. after   11 cycles
 SCF Done:  E(RB3LYP) =  -697.014698949     A.U. after   11 cycles
 SCF Done:  E(RB3LYP) =  -697.014273287     A.U. after   11 cycles
 SCF Done:  E(RB3LYP) =  -697.015325410     A.U. after   11 cycles
 SCF Done:  E(RB3LYP) =  -697.016154974     A.U. after   10 cycles
 SCF Done:  E(RB3LYP) =  -697.016408987     A.U. after    9 cycles
 SCF Done:  E(RB3LYP) =  -697.016427399     A.U. after    8 cycles
 SCF Done:  E(RB3LYP) =  -697.016430307     A.U. after    7 cycles
 SCF Done:  E(RB3LYP) =  -697.016431564     A.U. after    7 cycles
 SCF Done:  E(RB3LYP) =  -697.016431799     A.U. after    7 cycles
 SCF Done:  E(RB3LYP) =  -697.016431851     A.U. after    7 cycles
 Optimization completed.
    -- Stationary point found.
 Normal termination of Gaussian 16 at Thu Dec 10 21:23:28 2020.

 --------------------------------------------------------------------
 #N Geom=AllCheck Guess=TCheck SCRF=Check GenChk RB3LYP/6-31G(d) Freq
 --------------------------------------------------------------------

 Structure from the checkpoint file:  "JID_6141.chk"
 ------------------------------
 CID_64092418_JID_6141_neutraal
 ------------------------------
 Charge =  0 Multiplicity = 1

 SCF Done:  E(RB3LYP) =  -697.016431851     A.U. after    1 cycles

  Exact polarizability: 159.144  -0.463 152.803   4.924   1.246 143.522
 Approx polarizability: 208.652  -1.468 207.119   6.399   2.252 213.062

                      1                      2                      3
                      A                      A                      A
 Frequencies --     54.4812                63.8959                76.5982
 Red. masses --      3.0145                 2.9033                 3.0378
 Frc consts  --      0.0053                 0.0070                 0.0105
 IR Inten    --      0.9978                 0.1910                 0.5908

                      4                      5                      6
                      A                      A                      A
 Frequencies --     81.5679               101.4401               113.0436
 Red. masses --      3.3804                 3.9820                 3.7157
 Frc consts  --      0.0133                 0.0241                 0.0280
 IR Inten    --      0.1365                 3.5690                 1.8158

                      7                      8                      9
                      A                      A                      A
 Frequencies --    139.5396               158.4720               168.5710
 Red. masses --      2.6726                 3.2077                 3.0681
 Frc consts  --      0.0307                 0.0475                 0.0514
 IR Inten    --      7.8098                 6.3509                 0.9247

                     10                     11                     12
                      A                      A                      A
 Frequencies --    225.5620               227.7833               229.8245
 Red. masses --      1.5105                 2.4534                 1.0648
 Frc consts  --      0.0453                 0.0750                 0.0331
 IR Inten    --      2.0740                 2.0864                 0.3884

                     13                     14                     15
                      A                      A                      A
 Frequencies --    257.9025               274.2227               285.1099
 Red. masses --      1.1587                 2.0269                 1.3613
 Frc consts  --      0.0454                 0.0898                 0.0652
 IR Inten    --      5.1052                 9.0873                61.9826

                     16                     17                     18
                      A                      A                      A
 Frequencies --    297.5975               311.0675               328.2912
 Red. masses --      2.0417                 2.7476                 2.3037
 Frc consts  --      0.1065                 0.1566                 0.1463
 IR Inten    --      3.8182                 0.3789                 4.5877

                     19                     20                     21
                      A                      A                      A
 Frequencies --    334.6719               367.0302               399.0356
 Red. masses --      2.1614                 2.3237                 2.3013
 Frc consts  --      0.1426                 0.1844                 0.2159
 IR Inten    --      7.1250                 1.4939                 1.1773

                     22                     23                     24
                      A                      A                      A
 Frequencies --    409.9300               440.5239               455.3900
 Red. masses --      2.3757                 2.0003                 2.2133
 Frc consts  --      0.2352                 0.2287                 0.2704
 IR Inten    --      5.3038                 1.0584                 5.5458

                     25                     26                     27
                      A                      A                      A
 Frequencies --    461.9953               491.4225               527.0010
 Red. masses --      2.3282                 2.1334                 1.9800
 Frc consts  --      0.2928                 0.3035                 0.3240
 IR Inten    --      5.7877                 3.0853                 2.6650

                     28                     29                     30
                      A                      A                      A
 Frequencies --    575.2422               627.9159               701.8209
 Red. masses --      2.4926                 3.8137                 3.1353
 Frc consts  --      0.4860                 0.8859                 0.9099
 IR Inten    --      4.5368                 1.5937                 5.0298

                     31                     32                     33
                      A                      A                      A
 Frequencies --    760.1059               770.2352               826.4548
 Red. masses --      2.0365                 2.6569                 2.5656
 Frc consts  --      0.6932                 0.9287                 1.0325
 IR Inten    --      2.1729                 5.1068                 5.1987

                     34                     35                     36
                      A                      A                      A
 Frequencies --    838.6645               849.3923               878.9980
 Red. masses --      2.3614                 2.6259                 2.0628
 Frc consts  --      0.9786                 1.1162                 0.9390
 IR Inten    --      7.2045                 4.9610                27.2074

                     37                     38                     39
                      A                      A                      A
 Frequencies --    891.1558               896.8891               911.2145
 Red. masses --      1.6120                 1.3760                 2.0098
 Frc consts  --      0.7543                 0.6521                 0.9832
 IR Inten    --     12.3887                64.5762                 8.1514

                     40                     41                     42
                      A                      A                      A
 Frequencies --    915.3823               931.1990               938.6081
 Red. masses --      1.9822                 1.7784                 1.3476
 Frc consts  --      0.9786                 0.9086                 0.6995
 IR Inten    --      5.3699                 8.8493                 3.1914

                     43                     44                     45
                      A                      A                      A
 Frequencies --    949.9676               964.0892               979.5874
 Red. masses --      1.9440                 1.8701                 1.4946
 Frc consts  --      1.0336                 1.0241                 0.8450
 IR Inten    --      1.1902                 0.9164                 0.8917

                     46                     47                     48
                      A                      A                      A
 Frequencies --   1025.5812              1048.6891              1067.8808
 Red. masses --      2.6319                 2.0851                 2.0227
 Frc consts  --      1.6310                 1.3511                 1.3590
 IR Inten    --     16.7492                28.6955                33.6865

                     49                     50                     51
                      A                      A                      A
 Frequencies --   1076.9817              1100.6372              1107.9429
 Red. masses --      2.1449                 2.0617                 2.6380
 Frc consts  --      1.4658                 1.4715                 1.9079
 IR Inten    --     14.8726                 7.6610                19.7023

                     52                     53                     54
                      A                      A                      A
 Frequencies --   1113.9521              1129.7667              1153.3903
 Red. masses --      1.7757                 2.1870                 2.2115
 Frc consts  --      1.2983                 1.6446                 1.7333
 IR Inten    --      9.8955                15.0231                 4.6502

                     55                     56                     57
                      A                      A                      A
 Frequencies --   1158.2473              1166.2325              1190.5385
 Red. masses --      1.0975                 1.9370                 2.7096
 Frc consts  --      0.8675                 1.5522                 2.2628
 IR Inten    --      5.9485                13.8745                76.2051

                     58                     59                     60
                      A                      A                      A
 Frequencies --   1195.5053              1198.4679              1209.8934
 Red. masses --      1.2673                 1.4048                 1.7926
 Frc consts  --      1.0671                 1.1888                 1.5461
 IR Inten    --      2.8428                 5.8941                 3.5642

                     61                     62                     63
                      A                      A                      A
 Frequencies --   1222.2181              1238.2659              1244.1257
 Red. masses --      1.6044                 1.7690                 1.6566
 Frc consts  --      1.4121                 1.5981                 1.5108
 IR Inten    --      4.8583                36.3697                 8.2360

                     64                     65                     66
                      A                      A                      A
 Frequencies --   1304.8560              1318.3530              1323.1233
 Red. masses --      1.1830                 1.2638                 1.2780
 Frc consts  --      1.1868                 1.2942                 1.3182
 IR Inten    --      2.2634                17.9095                 3.5972

                     67                     68                     69
                      A                      A                      A
 Frequencies --   1342.6087              1350.1376              1358.0914
 Red. masses --      1.2902                 1.5985                 1.3657
 Frc consts  --      1.3703                 1.7168                 1.4841
 IR Inten    --      4.9729                18.0024                 1.3168

                     70                     71                     72
                      A                      A                      A
 Frequencies --   1373.4052              1381.4935              1388.8041
 Red. masses --      1.6506                 1.3444                 1.3080
 Frc consts  --      1.8344                 1.5117                 1.4865
 IR Inten    --     12.5344                 1.8957                 1.1746

                     73                     74                     75
                      A                      A                      A
 Frequencies --   1394.7392              1406.6452              1410.9398
 Red. masses --      1.3814                 1.2785                 1.3892
 Frc consts  --      1.5833                 1.4905                 1.6294
 IR Inten    --      8.6746                 7.9381                10.3174

                     76                     77                     78
                      A                      A                      A
 Frequencies --   1416.8754              1418.7335              1423.0343
 Red. masses --      1.2903                 1.3794                 1.4283
 Frc consts  --      1.5261                 1.6359                 1.7041
 IR Inten    --      2.9649                 9.8783                 4.2318

                     79                     80                     81
                      A                      A                      A
 Frequencies --   1426.6429              1435.3781              1439.9230
 Red. masses --      1.2890                 1.2163                 1.2734
 Frc consts  --      1.5457                 1.4765                 1.5556
 IR Inten    --      8.2036                 2.1929                11.2826

                     82                     83                     84
                      A                      A                      A
 Frequencies --   1450.1383              1452.7324              1497.1610
 Red. masses --      1.3801                 1.2892                 1.1443
 Frc consts  --      1.7100                 1.6031                 1.5112
 IR Inten    --     11.2965                 0.5340                 2.0418

                     85                     86                     87
                      A                      A                      A
 Frequencies --   1505.1384              1506.5397              1516.5848
 Red. masses --      1.0781                 1.0814                 1.0648
 Frc consts  --      1.4390                 1.4461                 1.4430
 IR Inten    --      2.0111                 4.4354                 1.3980

                     88                     89                     90
                      A                      A                      A
 Frequencies --   1520.9635              1521.9106              1527.1643
 Red. masses --      1.0475                 1.0848                 1.0742
 Frc consts  --      1.4277                 1.4803                 1.4761
 IR Inten    --      1.8220                 2.4563                 3.7440

                     91                     92                     93
                      A                      A                      A
 Frequencies --   1529.0268              1530.4385              1533.2775
 Red. masses --      1.0689                 1.0744                 1.0610
 Frc consts  --      1.4724                 1.4827                 1.4696
 IR Inten    --      1.6998                 2.9225                 0.1108

                     94                     95                     96
                      A                      A                      A
 Frequencies --   1535.2117              1542.2782              1550.2688
 Red. masses --      1.0844                 1.0539                 1.0775
 Frc consts  --      1.5058                 1.4770                 1.5257
 IR Inten    --     17.9989                12.4744                 4.9891

                     97                     98                     99
                      A                      A                      A
 Frequencies --   1562.7251              1698.9621              2875.1234
 Red. masses --      1.0530                 1.0869                 1.0809
 Frc consts  --      1.5151                 1.8485                 5.2644
 IR Inten    --      6.0376                41.9287               111.6776

                    100                    101                    102
                      A                      A                      A
 Frequencies --   2958.9719              3001.5476              3019.0001
 Red. masses --      1.0724                 1.0621                 1.0418
 Frc consts  --      5.5321                 5.6377                 5.5946
 IR Inten    --     70.4734                49.2381                57.5068

                    103                    104                    105
                      A                      A                      A
 Frequencies --   3025.5145              3030.4753              3034.4719
 Red. masses --      1.0767                 1.0710                 1.0377
 Frc consts  --      5.8071                 5.7951                 5.6298
 IR Inten    --      5.8491                 2.9346                26.8284

                    106                    107                    108
                      A                      A                      A
 Frequencies --   3036.9586              3039.0413              3041.2498
 Red. masses --      1.0714                 1.0489                 1.0820
 Frc consts  --      5.8224                 5.7075                 5.8962
 IR Inten    --     41.7366                21.8738                 9.1392

                    109                    110                    111
                      A                      A                      A
 Frequencies --   3047.9321              3049.8963              3055.4764
 Red. masses --      1.0774                 1.0771                 1.0722
 Frc consts  --      5.8972                 5.9028                 5.8980
 IR Inten    --     93.8372                 1.6182                72.7737

                    112                    113                    114
                      A                      A                      A
 Frequencies --   3059.8396              3065.2123              3083.4338
 Red. masses --      1.0886                 1.0854                 1.0933
 Frc consts  --      6.0053                 6.0086                 6.1242
 IR Inten    --     42.2943                66.4265                33.9080

                    115                    116                    117
                      A                      A                      A
 Frequencies --   3094.1297              3095.8233              3096.9020
 Red. masses --      1.0925                 1.0995                 1.0927
 Frc consts  --      6.1621                 6.2087                 6.1744
 IR Inten    --     32.6873                21.1326                36.0647

                    118                    119                    120
                      A                      A                      A
 Frequencies --   3103.1330              3111.1163              3121.9910
 Red. masses --      1.0997                 1.1013                 1.0958
 Frc consts  --      6.2389                 6.2806                 6.2927
 IR Inten    --     68.2272                46.9710                49.8270

                    121                    122                    123
                      A                      A                      A
 Frequencies --   3129.7047              3134.5082              3135.3326
 Red. masses --      1.1012                 1.0917                 1.0980
 Frc consts  --      6.3548                 6.3195                 6.3596
 IR Inten    --     38.8763                 2.7839                10.9377

                    124                    125                    126
                      A                      A                      A
 Frequencies --   3150.4261              3469.1306              3553.0505
 Red. masses --      1.0921                 1.0501                 1.0920
 Frc consts  --      6.3865                 7.4463                 8.1222
 IR Inten    --      8.0112                 3.9848                 0.2780

 - Thermochemistry -
 -------------------
 Temperature   298.150 Kelvin.  Pressure   1.00000 Atm.
 Atom     1 has atomic number  6 and mass  12.00000

 Molecular mass:   228.22016 amu.
 Principal axes and moments of inertia in atomic units:
                           1         2         3
     Eigenvalues --  3136.660334163.784225296.36615
           X            0.99992  -0.00416   0.01205
           Y            0.00424   0.99997  -0.00687
           Z           -0.01202   0.00692   0.99990
 This molecule is an asymmetric top.
 Rotational symmetry number  1.
 Warning -- assumption of classical behavior for rotation
           may cause significant error
 Rotational temperatures (Kelvin)      0.02761     0.02080     0.01635
 Rotational constants (GHZ):           0.57537     0.43344     0.34075
 Zero-point vibrational energy    1080532.4 (Joules/Mol)
                                  258.25344 (Kcal/Mol)
 Warning -- explicit consideration of  28 degrees of freedom as
           vibrations may cause significant error
 Vibrational temperatures:     78.39    91.93   110.21   117.36   145.95
          (Kelvin)            162.64   200.77   228.01   242.54   324.53
                              327.73   330.67   371.06   394.55   410.21
                              428.18   447.56   472.34   481.52   528.07
                              574.12   589.80   633.82   655.20   664.71
                              707.05   758.24   827.65   903.43  1009.76
                             1093.62  1108.20  1189.08  1206.65  1222.09
                             1264.68  1282.17  1290.42  1311.03  1317.03
                             1339.79  1350.45  1366.79  1387.11  1409.41
                             1475.58  1508.83  1536.44  1549.54  1583.57
                             1594.08  1602.73  1625.48  1659.47  1666.46
                             1677.95  1712.92  1720.07  1724.33  1740.77
                             1758.50  1781.59  1790.02  1877.40  1896.82
                             1903.68  1931.71  1942.55  1953.99  1976.02
                             1987.66  1998.18  2006.72  2023.85  2030.03
                             2038.57  2041.24  2047.43  2052.62  2065.19
                             2071.73  2086.43  2090.16  2154.08  2165.56
                             2167.57  2182.03  2188.33  2189.69  2197.25
                             2199.93  2201.96  2206.04  2208.83  2218.99
                             2230.49  2248.41  2444.43  4136.66  4257.30
                             4318.56  4343.67  4353.04  4360.18  4365.93
                             4369.51  4372.50  4375.68  4385.29  4388.12
                             4396.15  4402.43  4410.16  4436.37  4451.76
                             4454.20  4455.75  4464.72  4476.20  4491.85
                             4502.95  4509.86  4511.04  4532.76  4991.31
                             5112.05

 Zero-point correction=                           0.411553 (Hartree/Particle)
 Thermal correction to Energy=                    0.429515
 Thermal correction to Enthalpy=                  0.430460
 Thermal correction to Gibbs Free Energy=         0.367081
 Sum of electronic and zero-point Energies=           -696.604879
 Sum of electronic and thermal Energies=              -696.586916
 Sum of electronic and thermal Enthalpies=            -696.585972
 Sum of electronic and thermal Free Energies=         -696.649351

                     E (Thermal)             CV                S
                      KCal/Mol        Cal/Mol-Kelvin    Cal/Mol-Kelvin
 Total                  269.525             69.902            133.391
 Electronic               0.000              0.000              0.000
 Translational            0.889              2.981             42.178
 Rotational               0.889              2.981             32.603
 Vibrational            267.748             63.940             58.611
 Vibration     1          0.596              1.976              4.648
 Vibration     2          0.597              1.972              4.333
 Vibration     3          0.599              1.965              3.976
 Vibration     4          0.600              1.962              3.853
 Vibration     5          0.604              1.948              3.426
 Vibration     6          0.607              1.939              3.216
 Vibration     7          0.615              1.914              2.810
 Vibration     8          0.621              1.893              2.568
 Vibration     9          0.625              1.881              2.451
 Vibration    10          0.650              1.802              1.914
 Vibration    11          0.651              1.799              1.896
 Vibration    12          0.652              1.795              1.880
 Vibration    13          0.667              1.749              1.676
 Vibration    14          0.677              1.721              1.569
 Vibration    15          0.683              1.701              1.503
 Vibration    16          0.691              1.678              1.430
 Vibration    17          0.700              1.653              1.357
 Vibration    18          0.712              1.619              1.268
 Vibration    19          0.716              1.606              1.237
 Vibration    20          0.740              1.540              1.092
 Vibration    21          0.765              1.472              0.966
 Vibration    22          0.774              1.449              0.927
 Vibration    23          0.800              1.382              0.825
 Vibration    24          0.814              1.349              0.780
 Vibration    25          0.820              1.334              0.760
 Vibration    26          0.847              1.269              0.680
 Vibration    27          0.882              1.190              0.594
 Vibration    28          0.932              1.085              0.494

                           ! Non-Optimized Parameters !
 Normal termination of Gaussian 16 at Thu Dec 10 21:42:50 2020.

 ----------------------------------------------------------------------
 # B3LYP/6-311++G(d,p) empiricaldispersion=gd3bj scf=xqc pop=npa geom=c
 heck
 ----------------------------------------------------------------------

 --------------------------------------
 CID_64092418_JID_6141_Energie_neutraal
 --------------------------------------
 Structure from the checkpoint file:  "JID_6141.chk"
 Charge =  0 Multiplicity = 1

 SCF Done:  E(RB3LYP) =  -697.218881342     A.U. after   14 cycles
 Normal termination of Gaussian 16 at Thu Dec 10 21:52:04 2020.

 ----------------------------------------------------------------------
 # B3LYP/6-311++G(d,p) empiricaldispersion=gd3bj scf=xqc pop=npa geom=c
 heck
 ----------------------------------------------------------------------

 ------------------------------------
 CID_64092418_JID_6141_Energie_kation
 ------------------------------------
 Structure from the checkpoint file:  "JID_6141.chk"
 Charge =  1 Multiplicity = 2

 SCF Done:  E(UB3LYP) =  -696.947813940     A.U. after   21 cycles
 Normal termination of Gaussian 16 at Thu Dec 10 22:10:55 2020.
 Gaussian 16:  ES64L-G16RevA.03 25-Dec-2016

 ----------------------------------------------------------------------
 # B3LYP/6-311++G(d,p) empiricaldispersion=gd3bj scf=xqc pop=npa geom=c
 heck
 ----------------------------------------------------------------------

 -----------------------------------
 CID_64092418_JID_6141_Energie_anion
 -----------------------------------
 Structure from the checkpoint file:  "JID_6141.chk"
 Charge = -1 Multiplicity = 2

                         Standard orientation:
 ---------------------------------------------------------------------
 Center     Atomic      Atomic             Coordinates (Angstroms)
 Number     Number       Type             X           Y           Z
 ---------------------------------------------------------------------
      1          6           0        3.942509   -1.167535   -0.570000
      2          6           0        2.548696   -1.013820    0.049339
      3          6           0        2.617809   -1.066080    1.578400
      4          6           0        1.899186    0.294136   -0.439150
      5          7           0        0.493430    0.464956   -0.052689
      6          6           0        0.280233    1.574776    0.885603
      7          6           0        0.578167    3.006355    0.410106
      8          7           0       -0.399043    3.498210   -0.570604
      9          6           0       -0.439244    0.321757   -1.182561
     10          6           0       -0.373366   -1.099409   -1.780560
     11          6           0       -0.966430   -2.157785   -0.844491
     12          6           0       -2.425937   -1.832911   -0.492255
     13          6           0       -2.656251   -0.400965    0.020405
     14          6           0       -1.910419    0.628684   -0.847669
     15          8           0       -2.450323   -0.190173    1.425435
     16          6           0       -1.518637   -0.991279    2.126109
     17          1           0        4.596414   -0.336802   -0.273362
     18          1           0        3.896048   -1.179434   -1.665738
     19          1           0        4.421388   -2.097433   -0.243294
     20          1           0        1.925251   -1.850217   -0.290645
     21          1           0        3.251656   -0.257501    1.966753
     22          1           0        1.624171   -0.959445    2.022890
     23          1           0        3.043443   -2.015857    1.922621
     24          1           0        2.495142    1.126921   -0.041463
     25          1           0        1.999787    0.359822   -1.533159
     26          1           0       -0.745947    1.528565    1.253192
     27          1           0        0.930332    1.379282    1.747678
     28          1           0        0.507493    3.655434    1.292264
     29          1           0        1.624079    3.073519    0.060706
     30          1           0       -0.247555    4.493149   -0.729421
     31          1           0       -0.240186    3.046399   -1.469067
     32          1           0       -0.148169    1.016634   -1.997830
     33          1           0       -0.941916   -1.085604   -2.721179
     34          1           0        0.654274   -1.361799   -2.050980
     35          1           0       -0.355787   -2.219775    0.060025
     36          1           0       -0.920097   -3.143366   -1.324615
     37          1           0       -2.836103   -2.558161    0.219806
     38          1           0       -3.027410   -1.933002   -1.406593
     39          1           0       -3.725119   -0.181698   -0.096815
     40          1           0       -2.023689    1.627034   -0.420744
     41          1           0       -2.431074    0.653619   -1.815545
     42          1           0       -1.788628   -2.056860    2.112822
     43          1           0       -0.501842   -0.873602    1.737796
     44          1           0       -1.551986   -0.646138    3.163810
 ---------------------------------------------------------------------

 SCF Done:  E(UB3LYP) =  -697.206304786     A.U. after   27 cycles

 The electronic state is 2-A.
 Alpha  occ. eigenvalues --  -19.02065 -14.19994 -14.19101 -10.12117 -10.10848
 Alpha  occ. eigenvalues --  -10.09881 -10.08903 -10.08891 -10.08585 -10.07496
 Alpha  occ. eigenvalues --  -10.07169 -10.06575 -10.06388 -10.06341 -10.06269
 Alpha  occ. eigenvalues --  -10.05844  -0.92908  -0.82348  -0.77692  -0.72409
 Alpha  occ. eigenvalues --   -0.70189  -0.65232  -0.64685  -0.61685  -0.59118
 Alpha  occ. eigenvalues --   -0.58522  -0.56225  -0.52368  -0.50033  -0.48188
 Alpha  occ. eigenvalues --   -0.47095  -0.43218  -0.40826  -0.39528  -0.38798
 Alpha  occ. eigenvalues --   -0.37912  -0.37705  -0.35967  -0.35280  -0.34984
 Alpha  occ. eigenvalues --   -0.34176  -0.33647  -0.32619  -0.30980  -0.30418
 Alpha  occ. eigenvalues --   -0.29362  -0.28986  -0.28797  -0.28389  -0.28075
 Alpha  occ. eigenvalues --   -0.27397  -0.26445  -0.26322  -0.25404  -0.23961
 Alpha  occ. eigenvalues --   -0.23598  -0.23251  -0.22790  -0.22217  -0.21718
 Alpha  occ. eigenvalues --   -0.19207  -0.15433  -0.14428  -0.10824   0.04146
 Alpha virt. eigenvalues --    0.06152   0.06297   0.07050   0.08103   0.08346
 Alpha virt. eigenvalues --    0.08698   0.08821   0.09146   0.10507   0.10891
 Alpha virt. eigenvalues --    0.11014   0.11164   0.11373   0.11831   0.12110

  Beta  occ. eigenvalues --  -19.02064 -14.19989 -14.19064 -10.12114 -10.10841
  Beta  occ. eigenvalues --  -10.09869 -10.08881 -10.08875 -10.08582 -10.07491
  Beta  occ. eigenvalues --  -10.07155 -10.06566 -10.06364 -10.06326 -10.06253
  Beta  occ. eigenvalues --  -10.05836  -0.92905  -0.82331  -0.77631  -0.72384
  Beta  occ. eigenvalues --   -0.70168  -0.65209  -0.64655  -0.61646  -0.59078
  Beta  occ. eigenvalues --   -0.58497  -0.56180  -0.52327  -0.49999  -0.48152
  Beta  occ. eigenvalues --   -0.47058  -0.43188  -0.40783  -0.39504  -0.38755
  Beta  occ. eigenvalues --   -0.37883  -0.37681  -0.35950  -0.35245  -0.34941
  Beta  occ. eigenvalues --   -0.34157  -0.33619  -0.32595  -0.30952  -0.30391
  Beta  occ. eigenvalues --   -0.29337  -0.28961  -0.28767  -0.28363  -0.28050
  Beta  occ. eigenvalues --   -0.27373  -0.26420  -0.26297  -0.25382  -0.23938
  Beta  occ. eigenvalues --   -0.23574  -0.23223  -0.22764  -0.22196  -0.21699
  Beta  occ. eigenvalues --   -0.19188  -0.15422  -0.14393  -0.10789
  Beta virt. eigenvalues --    0.06116   0.06816   0.07096   0.07378   0.08488
  Beta virt. eigenvalues --    0.08787   0.09045   0.09145   0.09441   0.10788
  Beta virt. eigenvalues --    0.11133   0.11332   0.11513   0.11682   0.12066

 Mulliken charges and spin densities:
               1          2
     1  C    0.277548  -1.006397
     2  C   -0.896402   1.559540
     3  C    0.125768  -0.764670
     4  C    0.112674  -1.005797
     5  N    0.243302   0.114276
     6  C   -0.249794   0.196195
     7  C    0.736335  -1.271573
     8  N   -0.508634   0.113256
     9  C    0.544883  -0.188150
    10  C    0.023057  -0.720437
    11  C    0.085482  -0.071625
    12  C    0.213800  -0.854479
    13  C   -0.167353   0.128585
    14  C   -0.743530  -0.072746
    15  O   -0.107756   0.006758
    16  C   -0.261199  -0.129246
    17  H   -0.103798   0.236497
    18  H   -0.151180   0.288655
    19  H   -0.177405   0.319537
    20  H    0.136017   0.008935
    21  H   -0.042572   0.189485
    22  H   -0.012836   0.113299
    23  H   -0.054702   0.206714
    24  H    0.503439  -0.403314
    25  H   -0.029420   0.232752
    26  H    0.063427   0.103378
    27  H    0.231356  -0.097607
    28  H   -0.090449   0.250300
    29  H   -0.565340   0.698852
    30  H   -0.142907   0.405542
    31  H    0.074334   0.155312
    32  H   -0.186828   0.328475
    33  H   -0.285654   0.453911
    34  H    0.070094   0.100180
    35  H   -0.000258   0.099666
    36  H   -0.328888   0.523430
    37  H   -0.019129   0.189198
    38  H   -0.003465   0.148796
    39  H   -0.012310   0.220367
    40  H    0.363800  -0.115591
    41  H   -0.140673   0.292248
    42  H    0.056109   0.067097
    43  H    0.330885  -0.105973
    44  H    0.090170   0.056370
 Sum of Mulliken charges =  -1.00000   1.00000

 Dipole moment (field-independent basis, Debye):
    X=             -1.2783    Y=             -2.1225    Z=              3.3587  Tot=              4.1737
 Quadrupole moment (field-independent basis, Debye-Ang):
   XX=           -164.9991   YY=           -167.7288   ZZ=           -146.1568
   XY=              1.2229   XZ=              0.8907   YZ=              0.3442

 Summary of Natural Population Analysis:

                                       Natural Population
                Natural  -----------------------------------------------
    Atom  No    Charge         Core      Valence    Rydberg      Total
 -----------------------------------------------------------------------
      C    1   -0.28340      0.99965     2.27888    0.00487     3.28340
      C    2   -0.12180      0.99960     2.11270    0.00950     3.12180
      C    3   -0.28420      0.99964     2.27841    0.00616     3.28420
      C    4   -0.08161      0.99957     2.07000    0.01205     3.08161
      N    5   -0.30479      0.99969     2.78823    0.01686     3.80479
      C    6   -0.09057      0.99959     2.07979    0.01119     3.09057
      C    7   -0.09615      0.99962     2.08565    0.01087     3.09615
      N    8   -0.42517      0.99977     2.91467    0.01073     3.92517
      C    9    0.00327      0.99956     1.98255    0.01462     2.99673
      C   10   -0.19199      0.99960     2.18257    0.00982     3.19199
      C   11   -0.19607      0.99962     2.18731    0.00915     3.19607
      C   12   -0.20591      0.99960     2.19827    0.00804     3.20591
      C   13    0.07219      0.99951     1.91273    0.01557     2.92781
      C   14   -0.21364      0.99957     2.20435    0.00972     3.21364
      O   15   -0.30778      0.99988     3.29879    0.00910     4.30778
      C   16   -0.10289      0.99959     2.09497    0.00833     3.10289
      H   17    0.09567      0.00000     0.40326    0.00107     0.40433
      H   18    0.10005      0.00000     0.39891    0.00104     0.39995
      H   19    0.09872      0.00000     0.40037    0.00092     0.40128
      H   20    0.09469      0.00000     0.40289    0.00242     0.40531
      H   21    0.09433      0.00000     0.40481    0.00087     0.40567
      H   22    0.10081      0.00000     0.39784    0.00135     0.39919
      H   23    0.09745      0.00000     0.40182    0.00072     0.40255
      H   24    0.09268      0.00000     0.40570    0.00162     0.40732
      H   25    0.09461      0.00000     0.40372    0.00167     0.40539
      H   26    0.10724      0.00000     0.39073    0.00203     0.39276
      H   27    0.09371      0.00000     0.40510    0.00119     0.40629
      H   28    0.08938      0.00000     0.40951    0.00110     0.41062
      H   29    0.07891      0.00000     0.41914    0.00194     0.42109
      H   30    0.17662      0.00000     0.32110    0.00228     0.32338
      H   31    0.17448      0.00000     0.32300    0.00251     0.32552
      H   32    0.08208      0.00000     0.41551    0.00242     0.41792
      H   33    0.09707      0.00000     0.40159    0.00134     0.40293
      H   34    0.10112      0.00000     0.39740    0.00148     0.39888
      H   35    0.09800      0.00000     0.39963    0.00237     0.40200
      H   36    0.09870      0.00000     0.40027    0.00103     0.40130
      H   37    0.10053      0.00000     0.39854    0.00093     0.39947
      H   38    0.10219      0.00000     0.39667    0.00114     0.39781
      H   39    0.08842      0.00000     0.41033    0.00125     0.41158
      H   40    0.11941      0.00000     0.37867    0.00192     0.38059
      H   41    0.10233      0.00000     0.39646    0.00121     0.39767
      H   42    0.07566      0.00000     0.42320    0.00114     0.42434
      H   43    0.08930      0.00000     0.40882    0.00187     0.41070
      H   44    0.08635      0.00000     0.41280    0.00085     0.41365
 =======================================================================
   * Total *   -0.00000     15.99407    47.79766    0.20827    64.00000

 Normal termination of Gaussian 16 at Thu Dec 10 22:34:10 2020.
