 Gaussian 16, Revision A.03,

 -----------------------------------------------------------
 # opt freq B3LYP/6-31G(d) empiricaldispersion=gd3bj scf=xqc
 -----------------------------------------------------------

 ------------------------------
 CID_21433561_JID_3176_neutraal
 ------------------------------
 Symbolic Z-matrix:
 Charge =  0 Multiplicity = 1

 SCF Done:  E(RB3LYP) =  -616.390913742     A.U. after   14 cycles
 SCF Done:  E(RB3LYP) =  -616.393878324     A.U. after   12 cycles
 SCF Done:  E(RB3LYP) =  -616.394415236     A.U. after   12 cycles
 SCF Done:  E(RB3LYP) =  -616.395104030     A.U. after   11 cycles
 SCF Done:  E(RB3LYP) =  -616.395378546     A.U. after   14 cycles
 SCF Done:  E(RB3LYP) =  -616.395517038     A.U. after   12 cycles
 SCF Done:  E(RB3LYP) =  -616.395596014     A.U. after   12 cycles
 SCF Done:  E(RB3LYP) =  -616.395769819     A.U. after   12 cycles
 SCF Done:  E(RB3LYP) =  -616.396030353     A.U. after   14 cycles
 SCF Done:  E(RB3LYP) =  -616.396043412     A.U. after   13 cycles
 SCF Done:  E(RB3LYP) =  -616.396933891     A.U. after    8 cycles
 SCF Done:  E(RB3LYP) =  -616.396933985     A.U. after    7 cycles
 SCF Done:  E(RB3LYP) =  -616.396934086     A.U. after    7 cycles
 SCF Done:  E(RB3LYP) =  -616.396934121     A.U. after    7 cycles
 SCF Done:  E(RB3LYP) =  -616.396934120     A.U. after    6 cycles
 Optimization completed.
    -- Stationary point found.
 Normal termination of Gaussian 16 at Wed Dec  9 23:11:13 2020.

 --------------------------------------------------------------------
 #N Geom=AllCheck Guess=TCheck SCRF=Check GenChk RB3LYP/6-31G(d) Freq
 --------------------------------------------------------------------

 Structure from the checkpoint file:  "JID_3176.chk"
 ------------------------------
 CID_21433561_JID_3176_neutraal
 ------------------------------
 Charge =  0 Multiplicity = 1

 SCF Done:  E(RB3LYP) =  -616.396934120     A.U. after    1 cycles

  Exact polarizability: 126.787  -0.659 106.498  -0.000   0.002  95.198
 Approx polarizability: 161.673  -3.162 165.524  -0.001   0.003 132.025

                      1                      2                      3
                      A                      A                      A
 Frequencies --     10.0833                25.3898                31.0001
 Red. masses --      3.0520                 4.9600                 2.2192
 Frc consts  --      0.0002                 0.0019                 0.0013
 IR Inten    --      0.0111                 0.1804                 0.1302

                      4                      5                      6
                      A                      A                      A
 Frequencies --     33.8824                38.9044                60.4149
 Red. masses --      4.3281                 3.0859                 5.4507
 Frc consts  --      0.0029                 0.0028                 0.0117
 IR Inten    --      2.2043                 0.5665                 2.7273

                      7                      8                      9
                      A                      A                      A
 Frequencies --     63.4495                95.1304               105.4481
 Red. masses --      1.1268                 4.2402                 2.7348
 Frc consts  --      0.0027                 0.0226                 0.0179
 IR Inten    --      0.0067                 1.4663                 0.1909

                     10                     11                     12
                      A                      A                      A
 Frequencies --    151.7099               159.2222               180.2463
 Red. masses --      3.5520                 1.0683                 2.0837
 Frc consts  --      0.0482                 0.0160                 0.0399
 IR Inten    --      2.1376                 0.1985                 2.4763

                     13                     14                     15
                      A                      A                      A
 Frequencies --    240.3945               245.7227               311.4951
 Red. masses --      3.9942                 3.8203                 3.9642
 Frc consts  --      0.1360                 0.1359                 0.2266
 IR Inten    --      6.2055                 4.7937                 7.0732

                     16                     17                     18
                      A                      A                      A
 Frequencies --    358.1950               424.8444               434.3408
 Red. masses --      3.4555                 3.5689                 1.8715
 Frc consts  --      0.2612                 0.3795                 0.2080
 IR Inten    --      6.3761                 3.6415                 1.9505

                     19                     20                     21
                      A                      A                      A
 Frequencies --    496.9565               516.0488               659.1561
 Red. masses --      3.5381                 3.1872                 4.2017
 Frc consts  --      0.5148                 0.5001                 1.0756
 IR Inten    --      5.9249                 6.6544                 2.2465

                     22                     23                     24
                      A                      A                      A
 Frequencies --    739.5136               755.5045               772.1739
 Red. masses --      3.6131                 7.4288                 2.8943
 Frc consts  --      1.1642                 2.4983                 1.0168
 IR Inten    --      2.7762                 9.1447                 1.5561

                     25                     26                     27
                      A                      A                      A
 Frequencies --    775.0375               835.8342               842.9885
 Red. masses --      1.5751                 1.0431                 2.8869
 Frc consts  --      0.5574                 0.4294                 1.2087
 IR Inten    --      2.4370                 0.8663                20.2369

                     28                     29                     30
                      A                      A                      A
 Frequencies --    907.4911               931.8911               955.9320
 Red. masses --      2.8789                 1.3558                 1.5241
 Frc consts  --      1.3969                 0.6937                 0.8206
 IR Inten    --      8.6753                 0.4613                 0.6529

                     31                     32                     33
                      A                      A                      A
 Frequencies --    965.6962               973.9099               981.6948
 Red. masses --      2.2878                 1.2241                 2.1031
 Frc consts  --      1.2570                 0.6841                 1.1942
 IR Inten    --      6.6845                81.3343                 7.4321

                     34                     35                     36
                      A                      A                      A
 Frequencies --   1025.3603              1064.8474              1075.6863
 Red. masses --      2.1966                 1.0080                 5.3469
 Frc consts  --      1.3607                 0.6734                 3.6452
 IR Inten    --      6.8062                 0.0037                61.0501

                     37                     38                     39
                      A                      A                      A
 Frequencies --   1077.1065              1123.5847              1133.6390
 Red. masses --      1.6329                 1.6157                 2.4454
 Frc consts  --      1.1162                 1.2017                 1.8516
 IR Inten    --      1.4937                 0.0691                10.0534

                     40                     41                     42
                      A                      A                      A
 Frequencies --   1188.2104              1189.9902              1224.0218
 Red. masses --      1.8029                 1.4697                 1.4003
 Frc consts  --      1.4997                 1.2262                 1.2361
 IR Inten    --     35.7221                 7.6454                31.9087

                     43                     44                     45
                      A                      A                      A
 Frequencies --   1228.2579              1247.4403              1275.7681
 Red. masses --      1.4750                 1.5272                 1.5210
 Frc consts  --      1.3110                 1.4002                 1.4585
 IR Inten    --     34.6088                 0.0508                 8.2304

                     46                     47                     48
                      A                      A                      A
 Frequencies --   1284.1708              1308.6726              1326.9321
 Red. masses --      1.7112                 2.6331                 1.2634
 Frc consts  --      1.6626                 2.6569                 1.3107
 IR Inten    --     76.2092               242.8569                 6.8341

                     49                     50                     51
                      A                      A                      A
 Frequencies --   1327.9504              1366.3459              1369.8225
 Red. masses --      1.3472                 1.3701                 1.4777
 Frc consts  --      1.3997                 1.5070                 1.6337
 IR Inten    --      1.7282                 0.0659                13.3348

                     52                     53                     54
                      A                      A                      A
 Frequencies --   1389.7391              1395.5398              1410.6468
 Red. masses --      1.4408                 1.2280                 1.5182
 Frc consts  --      1.6396                 1.4091                 1.7800
 IR Inten    --      2.7554                 0.9565                 3.4389

                     55                     56                     57
                      A                      A                      A
 Frequencies --   1491.2892              1492.4322              1493.8666
 Red. masses --      1.0945                 1.1919                 1.1212
 Frc consts  --      1.4342                 1.5641                 1.4742
 IR Inten    --      6.3484                15.2123                 5.2944

                     58                     59                     60
                      A                      A                      A
 Frequencies --   1501.6475              1520.5320              1521.5469
 Red. masses --      1.0865                 1.0501                 1.0871
 Frc consts  --      1.4434                 1.4304                 1.4828
 IR Inten    --     12.0200                 3.1849                 3.6352

                     61                     62                     63
                      A                      A                      A
 Frequencies --   1524.2295              1535.8065              1717.0081
 Red. masses --      1.0480                 1.0873                 3.1072
 Frc consts  --      1.4345                 1.5111                 5.3971
 IR Inten    --      5.4587                 3.1983                 1.1789

                     64                     65                     66
                      A                      A                      A
 Frequencies --   1824.4964              1828.9609              3025.8516
 Red. masses --     10.9813                11.0243                 1.0686
 Frc consts  --     21.5373                21.7275                 5.7644
 IR Inten    --    287.3709               151.1865                 1.1845

                     67                     68                     69
                      A                      A                      A
 Frequencies --   3032.6887              3060.1740              3061.0965
 Red. masses --      1.0690                 1.0591                 1.0631
 Frc consts  --      5.7928                 5.8436                 5.8690
 IR Inten    --     22.4353                26.4689                11.6031

                     70                     71                     72
                      A                      A                      A
 Frequencies --   3069.8680              3077.2580              3101.4257
 Red. masses --      1.0831                 1.0304                 1.1048
 Frc consts  --      6.0139                 5.7491                 6.2610
 IR Inten    --     12.9261                30.1093                17.2436

                     73                     74                     75
                      A                      A                      A
 Frequencies --   3108.0367              3124.3607              3125.7943
 Red. masses --      1.1018                 1.0948                 1.0958
 Frc consts  --      6.2710                 6.2963                 6.3082
 IR Inten    --     38.2704                15.9010                18.6334

                     76                     77                     78
                      A                      A                      A
 Frequencies --   3150.5025              3155.3241              3171.9857
 Red. masses --      1.1074                 1.0492                 1.0720
 Frc consts  --      6.4763                 6.1547                 6.3549
 IR Inten    --     20.1323                21.4179                 2.4829

                     79                     80                     81
                      A                      A                      A
 Frequencies --   3195.7369              3225.7090              3252.5179
 Red. masses --      1.1065                 1.1149                 1.1174
 Frc consts  --      6.6579                 6.8350                 6.9645
 IR Inten    --      5.0526                 0.7914                26.0793

 - Thermochemistry -
 -------------------
 Temperature   298.150 Kelvin.  Pressure   1.00000 Atm.
 Atom     1 has atomic number  6 and mass  12.00000

 Molecular mass:   184.10994 amu.
 Principal axes and moments of inertia in atomic units:
                           1         2         3
     Eigenvalues --  2157.222283706.692705088.54096
           X            0.99814  -0.06093   0.00000
           Y            0.06093   0.99814   0.00000
           Z           -0.00000  -0.00000   1.00000
 This molecule is an asymmetric top.
 Rotational symmetry number  1.
 Warning -- assumption of classical behavior for rotation
           may cause significant error
 Rotational temperatures (Kelvin)      0.04015     0.02337     0.01702
 Rotational constants (GHZ):           0.83660     0.48689     0.35467
 Zero-point vibrational energy     648995.5 (Joules/Mol)
                                  155.11366 (Kcal/Mol)
 Warning -- explicit consideration of  20 degrees of freedom as
           vibrations may cause significant error
 Vibrational temperatures:     14.51    36.53    44.60    48.75    55.97
          (Kelvin)             86.92    91.29   136.87   151.72   218.28
                              229.09   259.33   345.87   353.54   448.17
                              515.36   611.26   624.92   715.01   742.48
                              948.38  1064.00  1087.00  1110.99  1115.11
                             1202.58  1212.87  1305.68  1340.78  1375.37
                             1389.42  1401.24  1412.44  1475.26  1532.08
                             1547.67  1549.72  1616.59  1631.05  1709.57
                             1712.13  1761.09  1767.19  1794.79  1835.55
                             1847.64  1882.89  1909.16  1910.62  1965.87
                             1970.87  1999.52  2007.87  2029.61  2145.63
                             2147.28  2149.34  2160.54  2187.71  2189.17
                             2193.03  2209.68  2470.39  2625.04  2631.47
                             4353.53  4363.36  4402.91  4404.24  4416.86
                             4427.49  4462.26  4471.77  4495.26  4497.32
                             4532.87  4539.81  4563.78  4597.95  4641.08
                             4679.65

 Zero-point correction=                           0.247189 (Hartree/Particle)
 Thermal correction to Energy=                    0.263407
 Thermal correction to Enthalpy=                  0.264351
 Thermal correction to Gibbs Free Energy=         0.197829
 Sum of electronic and zero-point Energies=           -616.149745
 Sum of electronic and thermal Energies=              -616.133527
 Sum of electronic and thermal Enthalpies=            -616.132583
 Sum of electronic and thermal Free Energies=         -616.199105

                     E (Thermal)             CV                S
                      KCal/Mol        Cal/Mol-Kelvin    Cal/Mol-Kelvin
 Total                  165.291             53.679            140.009
 Electronic               0.000              0.000              0.000
 Translational            0.889              2.981             41.537
 Rotational               0.889              2.981             32.076
 Vibrational            163.513             47.717             66.396
 Vibration     1          0.593              1.987              7.995
 Vibration     2          0.593              1.985              6.160
 Vibration     3          0.594              1.984              5.764
 Vibration     4          0.594              1.983              5.588
 Vibration     5          0.594              1.981              5.314
 Vibration     6          0.597              1.973              4.444
 Vibration     7          0.597              1.972              4.347
 Vibration     8          0.603              1.953              3.552
 Vibration     9          0.605              1.945              3.351
 Vibration    10          0.619              1.901              2.651
 Vibration    11          0.621              1.892              2.559
 Vibration    12          0.629              1.867              2.326
 Vibration    13          0.657              1.779              1.800
 Vibration    14          0.660              1.770              1.761
 Vibration    15          0.700              1.652              1.354
 Vibration    16          0.733              1.558              1.130
 Vibration    17          0.787              1.416              0.876
 Vibration    18          0.795              1.395              0.845
 Vibration    19          0.852              1.257              0.666
 Vibration    20          0.871              1.214              0.619

 Optimization completed.
    -- Stationary point found.
 Normal termination of Gaussian 16 at Wed Dec  9 23:18:34 2020.

 ----------------------------------------------------------------------
 # B3LYP/6-311++G(d,p) empiricaldispersion=gd3bj scf=xqc pop=npa geom=c
 heck
 ----------------------------------------------------------------------

 --------------------------------------
 CID_21433561_JID_3176_Energie_neutraal
 --------------------------------------
 Structure from the checkpoint file:  "JID_3176.chk"
 Charge =  0 Multiplicity = 1

 SCF Done:  E(RB3LYP) =  -616.582379954     A.U. after   14 cycles
 Normal termination of Gaussian 16 at Wed Dec  9 23:21:51 2020.

 ----------------------------------------------------------------------
 # B3LYP/6-311++G(d,p) empiricaldispersion=gd3bj scf=xqc pop=npa geom=c
 heck
 ----------------------------------------------------------------------

 ------------------------------------
 CID_21433561_JID_3176_Energie_kation
 ------------------------------------
 Structure from the checkpoint file:  "JID_3176.chk"
 Charge =  1 Multiplicity = 2

 SCF Done:  E(UB3LYP) =  -616.253022136     A.U. after   33 cycles
 SCF Done:  E(UB3LYP) =  -616.253022527     a.u. after    2 cycles
 Normal termination of Gaussian 16 at Wed Dec  9 23:41:03 2020.
 Gaussian 16:  ES64L-G16RevA.03 25-Dec-2016

 ----------------------------------------------------------------------
 # B3LYP/6-311++G(d,p) empiricaldispersion=gd3bj scf=xqc pop=npa geom=c
 heck
 ----------------------------------------------------------------------

 -----------------------------------
 CID_21433561_JID_3176_Energie_anion
 -----------------------------------
 Structure from the checkpoint file:  "JID_3176.chk"
 Charge = -1 Multiplicity = 2

                         Standard orientation:
 ---------------------------------------------------------------------
 Center     Atomic      Atomic             Coordinates (Angstroms)
 Number     Number       Type             X           Y           Z
 ---------------------------------------------------------------------
      1          6           0        3.074023    1.049960    0.000000
      2          8           0        1.682765    0.689657   -0.000001
      3          6           0        0.808228    1.720191   -0.000012
      4          8           0        1.145315    2.883871   -0.000008
      5          6           0       -0.624753    1.221225   -0.000022
      6          6           0       -0.930833    0.394000    1.263934
      7          6           0       -2.398033   -0.072730    1.282482
      8          6           0       -2.770531   -0.802806    0.000004
      9          8           0       -3.319795   -1.887061    0.000025
     10          6           0       -2.398000   -0.072798   -1.282504
     11          6           0       -0.930808    0.393952   -1.263953
     12          6           0        3.435961   -2.968093   -0.000035
     13          6           0        2.220059   -2.425439    0.000089
     14          1           0        3.613115    0.103477   -0.000015
     15          1           0        3.313475    1.638557    0.889359
     16          1           0        3.313468    1.638584   -0.889343
     17          1           0       -1.248557    2.122615   -0.000045
     18          1           0       -0.717664    0.982518    2.163504
     19          1           0       -0.266010   -0.476995    1.286324
     20          1           0       -3.053142    0.806867    1.370943
     21          1           0       -2.602899   -0.729840    2.131874
     22          1           0       -2.602839   -0.729960   -2.131863
     23          1           0       -3.053121    0.806784   -1.371033
     24          1           0       -0.717636    0.982443   -2.163539
     25          1           0       -0.265970   -0.477034   -1.286307
     26          1           0        3.958436   -3.205056    0.923691
     27          1           0        3.958168   -3.205265   -0.923860
     28          1           0        1.696652   -2.186996    0.922120
     29          1           0        1.696365   -2.187218   -0.921837
 ---------------------------------------------------------------------

 SCF Done:  E(UB3LYP) =  -616.574865898     A.U. after   30 cycles

 The electronic state is 2-A.
 Alpha  occ. eigenvalues --  -19.07233 -19.01521 -18.98639 -10.20162 -10.12853
 Alpha  occ. eigenvalues --  -10.12541 -10.08835 -10.08233 -10.08136 -10.07675
 Alpha  occ. eigenvalues --  -10.07674 -10.06727 -10.06726  -1.01175  -0.92408
 Alpha  occ. eigenvalues --   -0.92143  -0.73924  -0.67445  -0.65666  -0.65262
 Alpha  occ. eigenvalues --   -0.61098  -0.52648  -0.51371  -0.49320  -0.46932
 Alpha  occ. eigenvalues --   -0.42965  -0.41050  -0.38851  -0.38180  -0.37983
 Alpha  occ. eigenvalues --   -0.35458  -0.35085  -0.33921  -0.33611  -0.32653
 Alpha  occ. eigenvalues --   -0.32465  -0.30721  -0.29249  -0.28553  -0.27268
 Alpha  occ. eigenvalues --   -0.26912  -0.26163  -0.25546  -0.24063  -0.22996
 Alpha  occ. eigenvalues --   -0.22692  -0.21291  -0.18934  -0.17751  -0.12953
 Alpha  occ. eigenvalues --    0.04258
 Alpha virt. eigenvalues --    0.05910   0.07637   0.07772   0.08110   0.08641
 Alpha virt. eigenvalues --    0.08851   0.09227   0.09702   0.10542   0.10802
 Alpha virt. eigenvalues --    0.11136   0.11364   0.12835   0.12893   0.13094

  Beta  occ. eigenvalues --  -19.07229 -19.01515 -18.98434 -10.20162 -10.12666
  Beta  occ. eigenvalues --  -10.12514 -10.08820 -10.08212 -10.08113 -10.07646
  Beta  occ. eigenvalues --  -10.07645 -10.06730 -10.06729  -1.01166  -0.92400
  Beta  occ. eigenvalues --   -0.91752  -0.73852  -0.67410  -0.65559  -0.65203
  Beta  occ. eigenvalues --   -0.60987  -0.52585  -0.51224  -0.49241  -0.46882
  Beta  occ. eigenvalues --   -0.42717  -0.41014  -0.38827  -0.38158  -0.37922
  Beta  occ. eigenvalues --   -0.35385  -0.34912  -0.33758  -0.33557  -0.32585
  Beta  occ. eigenvalues --   -0.32233  -0.30542  -0.29209  -0.28518  -0.27207
  Beta  occ. eigenvalues --   -0.26885  -0.25974  -0.25489  -0.23758  -0.22629
  Beta  occ. eigenvalues --   -0.22465  -0.21278  -0.18872  -0.17723  -0.12785
  Beta virt. eigenvalues --    0.06432   0.07331   0.07812   0.08152   0.08444
  Beta virt. eigenvalues --    0.09057   0.09306   0.09738   0.10184   0.11029
  Beta virt. eigenvalues --    0.11233   0.11417   0.11733   0.12919   0.13070

 Mulliken charges and spin densities:
               1          2
     1  C    0.521251  -0.807984
     2  O   -0.061786   0.033164
     3  C   -0.899460   0.607571
     4  O   -0.249676   0.017903
     5  C    0.753938  -0.720390
     6  C    0.189561  -0.253622
     7  C    0.321872  -0.768686
     8  C   -0.173719   0.210396
     9  O   -0.345537   0.086434
    10  C    0.321966  -0.768760
    11  C    0.189547  -0.253643
    12  C    0.659688  -1.031174
    13  C   -0.721755   0.600693
    14  H   -0.344421   0.519281
    15  H   -0.115174   0.289185
    16  H   -0.115148   0.289153
    17  H   -0.163581   0.415998
    18  H   -0.220309   0.415959
    19  H   -0.096617   0.204166
    20  H   -0.202462   0.364428
    21  H    0.098532   0.085262
    22  H    0.098534   0.085260
    23  H   -0.202478   0.364447
    24  H   -0.220298   0.415949
    25  H   -0.096682   0.204223
    26  H   -0.100576   0.216349
    27  H   -0.100539   0.216307
    28  H    0.137606  -0.018865
    29  H    0.137720  -0.019002
 Sum of Mulliken charges =  -1.00000   1.00000

 Dipole moment (field-independent basis, Debye):
    X=              1.6764    Y=             -0.8638    Z=             -0.0002  Tot=              1.8858
 Quadrupole moment (field-independent basis, Debye-Ang):
   XX=           -147.2166   YY=           -129.7295   ZZ=           -106.8017
   XY=             -3.2034   XZ=             -0.0010   YZ=              0.0007

 Summary of Natural Population Analysis:

                                       Natural Population
                Natural  -----------------------------------------------
    Atom  No    Charge         Core      Valence    Rydberg      Total
 -----------------------------------------------------------------------
      C    1   -0.10493      0.99959     2.09706    0.00828     3.10493
      O    2   -0.28112      0.99986     3.27250    0.00877     4.28112
      C    3    0.41884      0.99965     1.55646    0.02505     2.58116
      O    4   -0.30503      0.99987     3.29941    0.00575     4.30503
      C    5   -0.15275      0.99954     2.14139    0.01182     3.15275
      C    6   -0.18379      0.99961     2.17477    0.00941     3.18379
      C    7   -0.23606      0.99959     2.22725    0.00923     3.23606
      C    8    0.31424      0.99966     1.66491    0.02119     2.68576
      O    9   -0.27605      0.99987     3.26949    0.00669     4.27605
      C   10   -0.23606      0.99959     2.22725    0.00923     3.23606
      C   11   -0.18379      0.99961     2.17477    0.00941     3.18379
      C   12   -0.19383      0.99962     2.18677    0.00745     3.19383
      C   13   -0.17152      0.99961     2.16386    0.00805     3.17152
      H   14    0.09772      0.00000     0.40071    0.00158     0.40228
      H   15    0.08982      0.00000     0.40849    0.00169     0.41018
      H   16    0.08982      0.00000     0.40849    0.00169     0.41018
      H   17    0.10962      0.00000     0.38826    0.00212     0.39038
      H   18    0.10331      0.00000     0.39529    0.00141     0.39669
      H   19    0.09962      0.00000     0.39827    0.00212     0.40038
      H   20    0.10922      0.00000     0.38838    0.00240     0.39078
      H   21    0.10730      0.00000     0.39168    0.00102     0.39270
      H   22    0.10730      0.00000     0.39168    0.00102     0.39270
      H   23    0.10922      0.00000     0.38838    0.00240     0.39078
      H   24    0.10331      0.00000     0.39529    0.00141     0.39669
      H   25    0.09962      0.00000     0.39827    0.00212     0.40038
      H   26    0.08987      0.00000     0.40884    0.00129     0.41013
      H   27    0.08987      0.00000     0.40884    0.00129     0.41013
      H   28    0.09313      0.00000     0.40546    0.00141     0.40687
      H   29    0.09313      0.00000     0.40546    0.00141     0.40687
 =======================================================================
   * Total *   -0.00000     12.99567    36.83766    0.16668    50.00000

 Normal termination of Gaussian 16 at Wed Dec  9 23:50:58 2020.
