 Gaussian 16, Revision A.03,

 -----------------------------------------------------------
 # opt freq B3LYP/6-31G(d) empiricaldispersion=gd3bj scf=xqc
 -----------------------------------------------------------

 -------------------------------
 CID_61660043_JID_10052_neutraal
 -------------------------------
 Symbolic Z-matrix:
 Charge =  0 Multiplicity = 1

 SCF Done:  E(RB3LYP) =  -978.276266147     A.U. after   15 cycles
 SCF Done:  E(RB3LYP) =  -978.271692650     A.U. after   13 cycles
 SCF Done:  E(RB3LYP) =  -978.283918728     A.U. after   12 cycles
 SCF Done:  E(RB3LYP) =  -978.284202539     A.U. after   14 cycles
 SCF Done:  E(RB3LYP) =  -978.284265960     A.U. after   12 cycles
 SCF Done:  E(RB3LYP) =  -978.285118479     A.U. after   12 cycles
 SCF Done:  E(RB3LYP) =  -978.285116524     A.U. after   11 cycles
 SCF Done:  E(RB3LYP) =  -978.285249586     A.U. after   11 cycles
 SCF Done:  E(RB3LYP) =  -978.285288176     A.U. after   10 cycles
 SCF Done:  E(RB3LYP) =  -978.285324751     A.U. after   10 cycles
 SCF Done:  E(RB3LYP) =  -978.287483517     A.U. after   10 cycles
 SCF Done:  E(RB3LYP) =  -978.287485447     A.U. after   10 cycles
 SCF Done:  E(RB3LYP) =  -978.287486153     A.U. after   10 cycles
 SCF Done:  E(RB3LYP) =  -978.287486463     A.U. after    8 cycles
 SCF Done:  E(RB3LYP) =  -978.287486453     A.U. after    7 cycles
 Optimization completed.
    -- Stationary point found.
 Normal termination of Gaussian 16 at Sat Dec 12 15:31:52 2020.

 --------------------------------------------------------------------
 #N Geom=AllCheck Guess=TCheck SCRF=Check GenChk RB3LYP/6-31G(d) Freq
 --------------------------------------------------------------------

 Structure from the checkpoint file:  "JID_10052.chk"
 -------------------------------
 CID_61660043_JID_10052_neutraal
 -------------------------------
 Charge =  0 Multiplicity = 1

 SCF Done:  E(RB3LYP) =  -978.287486453     A.U. after    1 cycles

  Exact polarizability: 179.751   0.515 160.324   3.826  -5.671 139.708
 Approx polarizability: 248.063  -6.783 228.395  -2.459 -10.957 217.009

                      1                      2                      3
                      A                      A                      A
 Frequencies --     16.6361                31.5381                40.4952
 Red. masses --      5.0084                 7.1528                 5.2176
 Frc consts  --      0.0008                 0.0042                 0.0050
 IR Inten    --      0.2362                 0.7906                 0.1688

                      4                      5                      6
                      A                      A                      A
 Frequencies --     54.9868                79.3426                93.9409
 Red. masses --      5.3337                 5.7807                 5.0893
 Frc consts  --      0.0095                 0.0214                 0.0265
 IR Inten    --      0.7122                 4.4211                 0.7497

                      7                      8                      9
                      A                      A                      A
 Frequencies --    118.9826               125.1410               150.0672
 Red. masses --      4.6067                 3.2717                 4.9818
 Frc consts  --      0.0384                 0.0302                 0.0661
 IR Inten    --      0.2069                 0.1605                 0.0947

                     10                     11                     12
                      A                      A                      A
 Frequencies --    184.4254               194.1769               235.9975
 Red. masses --      3.6871                 3.6514                 4.1813
 Frc consts  --      0.0739                 0.0811                 0.1372
 IR Inten    --      5.6665                 4.9491                 3.2640

                     13                     14                     15
                      A                      A                      A
 Frequencies --    251.5158               276.7700               298.8115
 Red. masses --      2.2141                 3.1071                 3.2732
 Frc consts  --      0.0825                 0.1402                 0.1722
 IR Inten    --      0.4966                 1.0271                 1.2162

                     16                     17                     18
                      A                      A                      A
 Frequencies --    311.7643               343.3461               360.8510
 Red. masses --      3.2937                 2.0308                 3.2415
 Frc consts  --      0.1886                 0.1411                 0.2487
 IR Inten    --      1.5194                 3.3233                 2.1071

                     19                     20                     21
                      A                      A                      A
 Frequencies --    387.1974               419.6985               430.4671
 Red. masses --      2.1593                 4.0814                 3.6098
 Frc consts  --      0.1907                 0.4236                 0.3941
 IR Inten    --      0.0713                 2.5415                 1.0322

                     22                     23                     24
                      A                      A                      A
 Frequencies --    439.6958               456.2605               464.1100
 Red. masses --      2.7716                 2.6923                 2.4975
 Frc consts  --      0.3157                 0.3302                 0.3170
 IR Inten    --      7.1106                 4.3689                 4.1374

                     25                     26                     27
                      A                      A                      A
 Frequencies --    475.0125               521.0711               530.1826
 Red. masses --      2.3129                 3.0280                 1.9611
 Frc consts  --      0.3075                 0.4844                 0.3248
 IR Inten    --      3.5081                 2.7067                11.1361

                     28                     29                     30
                      A                      A                      A
 Frequencies --    540.8764               566.9679               609.3389
 Red. masses --      2.9913                 3.0107                 3.2983
 Frc consts  --      0.5156                 0.5702                 0.7215
 IR Inten    --      8.9274                 9.0529                54.6030

                     31                     32                     33
                      A                      A                      A
 Frequencies --    634.1660               674.1944               715.1981
 Red. masses --      2.5954                 1.5531                 2.9163
 Frc consts  --      0.6150                 0.4159                 0.8789
 IR Inten    --     11.4968                84.6424                29.6252

                     34                     35                     36
                      A                      A                      A
 Frequencies --    724.0958               756.2494               787.1934
 Red. masses --      2.6751                 1.6162                 2.4550
 Frc consts  --      0.8264                 0.5446                 0.8963
 IR Inten    --     15.9166                75.9221                43.9013

                     37                     38                     39
                      A                      A                      A
 Frequencies --    798.6634               845.4712               848.4620
 Red. masses --      1.7993                 2.5953                 2.6839
 Frc consts  --      0.6762                 1.0931                 1.1384
 IR Inten    --      7.3827                 3.4188                 3.1727

                     40                     41                     42
                      A                      A                      A
 Frequencies --    861.2259               863.1601               880.4028
 Red. masses --      2.4639                 3.0422                 1.9055
 Frc consts  --      1.0767                 1.3354                 0.8702
 IR Inten    --      2.7722                 5.2830                 3.0028

                     43                     44                     45
                      A                      A                      A
 Frequencies --    893.9795               907.1934               923.1216
 Red. masses --      3.0982                 2.7985                 2.3809
 Frc consts  --      1.4589                 1.3570                 1.1954
 IR Inten    --     64.4662                 2.3105                22.4062

                     46                     47                     48
                      A                      A                      A
 Frequencies --    934.0911               953.4053               968.0831
 Red. masses --      1.7682                 2.4355                 1.5755
 Frc consts  --      0.9090                 1.3044                 0.8700
 IR Inten    --      1.2033                 2.6706                12.3941

                     49                     50                     51
                      A                      A                      A
 Frequencies --    984.8376              1005.7879              1025.3798
 Red. masses --      2.3031                 2.8322                 2.0168
 Frc consts  --      1.3161                 1.6880                 1.2494
 IR Inten    --      0.5072                 4.9044                 6.2044

                     52                     53                     54
                      A                      A                      A
 Frequencies --   1047.3387              1057.8484              1082.2571
 Red. masses --      2.3280                 2.0213                 2.7331
 Frc consts  --      1.5046                 1.3327                 1.8861
 IR Inten    --     14.0426                 1.1597                25.6006

                     55                     56                     57
                      A                      A                      A
 Frequencies --   1093.4676              1103.9727              1124.2471
 Red. masses --      1.6549                 2.2873                 2.2766
 Frc consts  --      1.1658                 1.6425                 1.6954
 IR Inten    --      2.4282                17.0645                 7.6071

                     58                     59                     60
                      A                      A                      A
 Frequencies --   1133.5830              1143.1833              1150.4667
 Red. masses --      2.9226                 2.0037                 2.5294
 Frc consts  --      2.2127                 1.5428                 1.9725
 IR Inten    --     58.3205                25.3821                20.0585

                     61                     62                     63
                      A                      A                      A
 Frequencies --   1158.8467              1164.1185              1182.0317
 Red. masses --      3.2840                 1.9649                 1.6125
 Frc consts  --      2.5984                 1.5689                 1.3274
 IR Inten    --    106.9411                76.4865                36.2702

                     64                     65                     66
                      A                      A                      A
 Frequencies --   1208.5880              1228.5576              1265.4682
 Red. masses --      2.5030                 1.7125                 1.1621
 Frc consts  --      2.1541                 1.5229                 1.0965
 IR Inten    --     51.6118               106.1783                 9.1646

                     67                     68                     69
                      A                      A                      A
 Frequencies --   1273.8291              1295.1846              1301.1118
 Red. masses --      1.2874                 1.1869                 1.2754
 Frc consts  --      1.2308                 1.1731                 1.2722
 IR Inten    --     21.2547                12.4881                 0.5858

                     70                     71                     72
                      A                      A                      A
 Frequencies --   1314.8395              1320.6161              1326.6672
 Red. masses --      1.3569                 1.2601                 1.2913
 Frc consts  --      1.3821                 1.2948                 1.3390
 IR Inten    --     45.7928                17.9916                 0.8292

                     73                     74                     75
                      A                      A                      A
 Frequencies --   1346.1940              1349.9508              1352.8276
 Red. masses --      1.5770                 1.4795                 1.3654
 Frc consts  --      1.6838                 1.5886                 1.4723
 IR Inten    --     54.7862                 1.9244                 7.6619

                     76                     77                     78
                      A                      A                      A
 Frequencies --   1363.5183              1379.1994              1385.1601
 Red. masses --      1.3723                 1.6003                 1.3189
 Frc consts  --      1.5033                 1.7935                 1.4910
 IR Inten    --      5.9106                28.1744                 1.0417

                     79                     80                     81
                      A                      A                      A
 Frequencies --   1393.4286              1394.5211              1398.0977
 Red. masses --      1.3998                 1.7684                 1.3372
 Frc consts  --      1.6014                 2.0262                 1.5400
 IR Inten    --      0.0662                39.4669                 3.7179

                     82                     83                     84
                      A                      A                      A
 Frequencies --   1405.5203              1415.6275              1420.3799
 Red. masses --      1.5941                 1.5343                 1.3375
 Frc consts  --      1.8554                 1.8116                 1.5898
 IR Inten    --     15.6512                23.5230                 8.8018

                     85                     86                     87
                      A                      A                      A
 Frequencies --   1424.0611              1438.6211              1443.8346
 Red. masses --      1.4111                 1.3443                 1.4367
 Frc consts  --      1.6860                 1.6392                 1.7646
 IR Inten    --     10.8207                 5.4232                18.1251

                     88                     89                     90
                      A                      A                      A
 Frequencies --   1501.9690              1508.7031              1510.9229
 Red. masses --      1.1331                 1.2771                 1.0948
 Frc consts  --      1.5060                 1.7127                 1.4726
 IR Inten    --      9.0421                22.0584                 1.5003

                     91                     92                     93
                      A                      A                      A
 Frequencies --   1512.9499              1516.4142              1521.0230
 Red. masses --      1.0935                 1.1462                 1.0990
 Frc consts  --      1.4747                 1.5530                 1.4981
 IR Inten    --      6.0733                 3.5462                 1.5692

                     94                     95                     96
                      A                      A                      A
 Frequencies --   1525.1067              1531.7872              1535.1016
 Red. masses --      1.0940                 1.1004                 1.1377
 Frc consts  --      1.4993                 1.5213                 1.5796
 IR Inten    --      3.8184                14.7262                 2.5853

                     97                     98                     99
                      A                      A                      A
 Frequencies --   1545.0743              1547.7623              1756.8061
 Red. masses --      1.1178                 1.0958                 7.5967
 Frc consts  --      1.5722                 1.5466                13.8141
 IR Inten    --     18.2039                 2.0984               279.7433

                    100                    101                    102
                      A                      A                      A
 Frequencies --   1834.5250              3012.1902              3018.2153
 Red. masses --      9.1803                 1.0701                 1.0727
 Frc consts  --     18.2034                 5.7207                 5.7574
 IR Inten    --    241.1247                28.9116                77.8811

                    103                    104                    105
                      A                      A                      A
 Frequencies --   3020.7294              3026.0111              3028.7476
 Red. masses --      1.0698                 1.0706                 1.0672
 Frc consts  --      5.7517                 5.7759                 5.7682
 IR Inten    --     13.3537                21.0760                12.9087

                    106                    107                    108
                      A                      A                      A
 Frequencies --   3033.7486              3040.4215              3052.5267
 Red. masses --      1.0614                 1.0654                 1.0708
 Frc consts  --      5.7556                 5.8026                 5.8785
 IR Inten    --     50.2152                41.8682                46.6273

                    109                    110                    111
                      A                      A                      A
 Frequencies --   3066.5949              3069.7051              3074.6498
 Red. masses --      1.0846                 1.0889                 1.0894
 Frc consts  --      6.0096                 6.0457                 6.0677
 IR Inten    --     18.9813                 2.0452                80.0959

                    112                    113                    114
                      A                      A                      A
 Frequencies --   3076.8171              3080.2960              3082.1859
 Red. masses --      1.0913                 1.0968                 1.0605
 Frc consts  --      6.0870                 6.1315                 5.9360
 IR Inten    --     71.3755                29.2791                20.0151

                    115                    116                    117
                      A                      A                      A
 Frequencies --   3114.5583              3115.4689              3118.6753
 Red. masses --      1.0896                 1.0944                 1.1009
 Frc consts  --      6.2276                 6.2583                 6.3087
 IR Inten    --     16.9710                31.7573                41.2416

                    118                    119                    120
                      A                      A                      A
 Frequencies --   3121.7145              3137.7970              3146.6506
 Red. masses --      1.0938                 1.1069                 1.0924
 Frc consts  --      6.2802                 6.4210                 6.3729
 IR Inten    --     13.2387                12.2304                22.8133

                    121                    122                    123
                      A                      A                      A
 Frequencies --   3270.6410              3575.4139              3675.8987
 Red. masses --      1.0848                 1.0737                 1.0638
 Frc consts  --      6.8370                 8.0870                 8.4692
 IR Inten    --      2.5128                12.9229                48.9120

 - Thermochemistry -
 -------------------
 Temperature   298.150 Kelvin.  Pressure   1.00000 Atm.
 Atom     1 has atomic number  6 and mass  12.00000

 Molecular mass:   285.15762 amu.
 Principal axes and moments of inertia in atomic units:
                           1         2         3
     Eigenvalues --  3867.057776662.195348536.54340
           X            0.99899   0.04416   0.00840
           Y           -0.04406   0.99896  -0.01211
           Z           -0.00893   0.01173   0.99989
 This molecule is an asymmetric top.
 Rotational symmetry number  1.
 Warning -- assumption of classical behavior for rotation
           may cause significant error
 Rotational temperatures (Kelvin)      0.02240     0.01300     0.01015
 Rotational constants (GHZ):           0.46670     0.27089     0.21141
 Zero-point vibrational energy     988049.6 (Joules/Mol)
                                  236.14953 (Kcal/Mol)
 Warning -- explicit consideration of  30 degrees of freedom as
           vibrations may cause significant error
 Vibrational temperatures:     23.94    45.38    58.26    79.11   114.16
          (Kelvin)            135.16   171.19   180.05   215.91   265.35
                              279.38   339.55   361.88   398.21   429.92
                              448.56   494.00   519.18   557.09   603.85
                              619.35   632.62   656.46   667.75   683.44
                              749.71   762.81   778.20   815.74   876.70
                              912.42   970.02  1029.01  1041.81  1088.07
                             1132.60  1149.10  1216.44  1220.75  1239.11
                             1241.89  1266.70  1286.24  1305.25  1328.17
                             1343.95  1371.74  1392.86  1416.96  1447.10
                             1475.29  1506.89  1522.01  1557.13  1573.26
                             1588.37  1617.54  1630.97  1644.79  1655.26
                             1667.32  1674.91  1700.68  1738.89  1767.62
                             1820.73  1832.76  1863.48  1872.01  1891.76
                             1900.07  1908.78  1936.87  1942.28  1946.42
                             1961.80  1984.36  1992.94  2004.83  2006.40
                             2011.55  2022.23  2036.77  2043.61  2048.91
                             2069.85  2077.36  2161.00  2170.69  2173.88
                             2176.80  2181.78  2188.41  2194.29  2203.90
                             2208.67  2223.02  2226.88  2527.65  2639.47
                             4333.87  4342.54  4346.16  4353.75  4357.69
                             4364.89  4374.49  4391.91  4412.15  4416.62
                             4423.74  4426.85  4431.86  4434.58  4481.15
                             4482.46  4487.08  4491.45  4514.59  4527.33
                             4705.72  5144.22  5288.80

 Zero-point correction=                           0.376328 (Hartree/Particle)
 Thermal correction to Energy=                    0.395174
 Thermal correction to Enthalpy=                  0.396118
 Thermal correction to Gibbs Free Energy=         0.327757
 Sum of electronic and zero-point Energies=           -977.911158
 Sum of electronic and thermal Energies=              -977.892312
 Sum of electronic and thermal Enthalpies=            -977.891368
 Sum of electronic and thermal Free Energies=         -977.959729

                     E (Thermal)             CV                S
                      KCal/Mol        Cal/Mol-Kelvin    Cal/Mol-Kelvin
 Total                  247.976             73.559            143.878
 Electronic               0.000              0.000              0.000
 Translational            0.889              2.981             42.842
 Rotational               0.889              2.981             33.752
 Vibrational            246.198             67.597             67.284
 Vibration     1          0.593              1.986              7.000
 Vibration     2          0.594              1.983              5.730
 Vibration     3          0.594              1.981              5.235
 Vibration     4          0.596              1.976              4.629
 Vibration     5          0.600              1.963              3.907
 Vibration     6          0.603              1.954              3.576
 Vibration     7          0.609              1.933              3.117
 Vibration     8          0.610              1.928              3.019
 Vibration     9          0.618              1.903              2.671
 Vibration    10          0.631              1.861              2.283
 Vibration    11          0.635              1.848              2.188
 Vibration    12          0.655              1.786              1.833
 Vibration    13          0.663              1.760              1.720
 Vibration    14          0.678              1.716              1.554
 Vibration    15          0.692              1.676              1.424
 Vibration    16          0.700              1.651              1.353
 Vibration    17          0.722              1.589              1.197
 Vibration    18          0.735              1.553              1.118
 Vibration    19          0.756              1.498              1.011
 Vibration    20          0.782              1.427              0.893
 Vibration    21          0.792              1.404              0.857
 Vibration    22          0.800              1.384              0.828
 Vibration    23          0.814              1.347              0.777
 Vibration    24          0.822              1.330              0.754
 Vibration    25          0.832              1.305              0.724
 Vibration    26          0.876              1.203              0.607
 Vibration    27          0.885              1.183              0.587
 Vibration    28          0.896              1.160              0.563
 Vibration    29          0.923              1.103              0.510
 Vibration    30          0.968              1.012              0.434

 Optimization completed.
    -- Stationary point found.
 Normal termination of Gaussian 16 at Sat Dec 12 15:58:01 2020.

 ----------------------------------------------------------------------
 # B3LYP/6-311++G(d,p) empiricaldispersion=gd3bj scf=xqc pop=npa geom=c
 heck
 ----------------------------------------------------------------------

 ---------------------------------------
 CID_61660043_JID_10052_Energie_neutraal
 ---------------------------------------
 Structure from the checkpoint file:  "JID_10052.chk"
 Charge =  0 Multiplicity = 1

 SCF Done:  E(RB3LYP) =  -978.577897794     A.U. after   16 cycles
 Normal termination of Gaussian 16 at Sat Dec 12 16:08:56 2020.

 ----------------------------------------------------------------------
 # B3LYP/6-311++G(d,p) empiricaldispersion=gd3bj scf=xqc pop=npa geom=c
 heck
 ----------------------------------------------------------------------

 -------------------------------------
 CID_61660043_JID_10052_Energie_kation
 -------------------------------------
 Structure from the checkpoint file:  "JID_10052.chk"
 Charge =  1 Multiplicity = 2

 SCF Done:  E(UB3LYP) =  -978.261558411     A.U. after   27 cycles
 Normal termination of Gaussian 16 at Sat Dec 12 16:33:54 2020.
 Gaussian 16:  ES64L-G16RevA.03 25-Dec-2016

 ----------------------------------------------------------------------
 # B3LYP/6-311++G(d,p) empiricaldispersion=gd3bj scf=xqc pop=npa geom=c
 heck
 ----------------------------------------------------------------------

 ------------------------------------
 CID_61660043_JID_10052_Energie_anion
 ------------------------------------
 Structure from the checkpoint file:  "JID_10052.chk"
 Charge = -1 Multiplicity = 2

                         Standard orientation:
 ---------------------------------------------------------------------
 Center     Atomic      Atomic             Coordinates (Angstroms)
 Number     Number       Type             X           Y           Z
 ---------------------------------------------------------------------
      1          6           0        1.556219    3.174493   -0.676818
      2          6           0        0.288160    2.394340   -1.042817
      3          6           0        0.584775    0.907786   -1.304320
      4          6           0        1.438228    0.183457   -0.232752
      5          6           0        2.652754    1.058148    0.155269
      6          6           0        2.298507    2.512751    0.489432
      7          6           0        1.941873   -1.133909   -0.902551
      8          6           0        2.736317   -2.023532    0.022672
      9          8           0        2.272560   -2.794488    0.837201
     10          8           0        4.075445   -1.857148   -0.127087
     11          6           0        0.611073   -0.256245    1.019162
     12          7           0       -0.414196    0.662409    1.493902
     13          6           0       -1.758701    0.758313    1.231754
     14          8           0       -2.308112    1.851935    1.300484
     15          6           0       -2.680729   -0.484430    1.043061
     16          6           0       -2.130285   -1.821175    0.556024
     17          8           0       -1.641575   -1.707824   -0.777144
     18          6           0       -2.692660   -1.292881   -1.653038
     19          6           0       -3.328094    0.003974   -1.161736
     20          8           0       -3.762109   -0.129252    0.188375
     21          1           0        1.304141    4.213244   -0.432647
     22          1           0        2.230544    3.208326   -1.545293
     23          1           0       -0.460155    2.515243   -0.254291
     24          1           0       -0.161143    2.821618   -1.948384
     25          1           0        1.135947    0.840593   -2.253026
     26          1           0       -0.344047    0.347860   -1.447173
     27          1           0        3.353614    1.068217   -0.690897
     28          1           0        3.193133    0.592803    0.989035
     29          1           0        3.217902    3.064878    0.719203
     30          1           0        1.685710    2.564852    1.400849
     31          1           0        1.069005   -1.703860   -1.235475
     32          1           0        2.556454   -0.881264   -1.770511
     33          1           0        4.493355   -2.451727    0.524842
     34          1           0        0.150453   -1.207748    0.794175
     35          1           0        1.301804   -0.442941    1.848346
     36          1           0       -0.070800    1.578232    1.760390
     37          1           0       -3.130519   -0.634360    2.032461
     38          1           0       -2.960999   -2.542657    0.585307
     39          1           0       -1.323986   -2.214677    1.175878
     40          1           0       -2.242300   -1.165139   -2.641864
     41          1           0       -3.454850   -2.085668   -1.706432
     42          1           0       -4.218702    0.245280   -1.749382
     43          1           0       -2.619504    0.839705   -1.247112
 ---------------------------------------------------------------------

 SCF Done:  E(UB3LYP) =  -978.568515736     A.U. after   33 cycles
 SCF Done:  E(UB3LYP) =  -978.568515736     a.u. after    1 cycles

 The electronic state is 2-A.
 Alpha  occ. eigenvalues --  -19.07780 -19.05417 -19.04735 -19.02422 -19.00445
 Alpha  occ. eigenvalues --  -14.25262 -10.21522 -10.19147 -10.15547 -10.14423
 Alpha  occ. eigenvalues --  -10.13844 -10.13542 -10.11714 -10.10707 -10.09073
 Alpha  occ. eigenvalues --  -10.08054 -10.07591 -10.07588 -10.07519 -10.07138
 Alpha  occ. eigenvalues --   -1.01836  -0.98700  -0.95862  -0.94061  -0.92887
 Alpha  occ. eigenvalues --   -0.83814  -0.75622  -0.70992  -0.70143  -0.65613
 Alpha  occ. eigenvalues --   -0.63622  -0.62509  -0.60696  -0.59435  -0.54185
 Alpha  occ. eigenvalues --   -0.53247  -0.52335  -0.49217  -0.47674  -0.46045
 Alpha  occ. eigenvalues --   -0.43850  -0.42048  -0.41242  -0.41017  -0.40433
 Alpha  occ. eigenvalues --   -0.39808  -0.39143  -0.38832  -0.38031  -0.37276
 Alpha  occ. eigenvalues --   -0.36024  -0.34896  -0.34117  -0.34022  -0.33658
 Alpha  occ. eigenvalues --   -0.32765  -0.31484  -0.30720  -0.29921  -0.29466
 Alpha  occ. eigenvalues --   -0.29025  -0.28840  -0.28760  -0.27946  -0.27051
 Alpha  occ. eigenvalues --   -0.26262  -0.25229  -0.23779  -0.23429  -0.22781
 Alpha  occ. eigenvalues --   -0.21902  -0.21425  -0.20846  -0.19072  -0.17893
 Alpha  occ. eigenvalues --   -0.16947  -0.16345   0.03815
 Alpha virt. eigenvalues --    0.05485   0.06051   0.06398   0.07251   0.07781
 Alpha virt. eigenvalues --    0.08267   0.08302   0.08545   0.08987   0.09760
 Alpha virt. eigenvalues --    0.10125   0.10495   0.10562   0.11404   0.11952

  Beta  occ. eigenvalues --  -19.07730 -19.05411 -19.04731 -19.02402 -19.00434
  Beta  occ. eigenvalues --  -14.25259 -10.21510 -10.19129 -10.15543 -10.14412
  Beta  occ. eigenvalues --  -10.13819 -10.13530 -10.11701 -10.10708 -10.09056
  Beta  occ. eigenvalues --  -10.08041 -10.07579 -10.07569 -10.07503 -10.07133
  Beta  occ. eigenvalues --   -1.01768  -0.98687  -0.95843  -0.94047  -0.92827
  Beta  occ. eigenvalues --   -0.83800  -0.75602  -0.70968  -0.70117  -0.65586
  Beta  occ. eigenvalues --   -0.63573  -0.62472  -0.60665  -0.59406  -0.54138
  Beta  occ. eigenvalues --   -0.53196  -0.52281  -0.49157  -0.47644  -0.46009
  Beta  occ. eigenvalues --   -0.43812  -0.42020  -0.41209  -0.40994  -0.40391
  Beta  occ. eigenvalues --   -0.39785  -0.39109  -0.38807  -0.38002  -0.37232
  Beta  occ. eigenvalues --   -0.35997  -0.34869  -0.34085  -0.33983  -0.33621
  Beta  occ. eigenvalues --   -0.32734  -0.31449  -0.30685  -0.29890  -0.29453
  Beta  occ. eigenvalues --   -0.28993  -0.28812  -0.28733  -0.27917  -0.27027
  Beta  occ. eigenvalues --   -0.26234  -0.25205  -0.23721  -0.23399  -0.22752
  Beta  occ. eigenvalues --   -0.21877  -0.21400  -0.20819  -0.19021  -0.17877
  Beta  occ. eigenvalues --   -0.16921  -0.16317
  Beta virt. eigenvalues --    0.05783   0.06358   0.06631   0.07188   0.07671
  Beta virt. eigenvalues --    0.08108   0.08439   0.08584   0.08929   0.09215
  Beta virt. eigenvalues --    0.10168   0.10453   0.10664   0.10698   0.11565

 Mulliken charges and spin densities:
               1          2
     1  C    0.073101  -0.672142
     2  C   -0.931247   0.394559
     3  C   -0.110794   0.007094
     4  C    0.394731   0.784857
     5  C   -0.753343   0.259503
     6  C   -0.025154  -0.282309
     7  C    0.775059  -1.279905
     8  C   -0.077310  -0.107393
     9  O   -0.262492   0.020303
    10  O   -0.161214   0.058611
    11  C    0.369555  -1.112052
    12  N   -0.140218   0.167227
    13  C   -0.246107  -0.028081
    14  O   -0.241146   0.016835
    15  C   -0.301136   0.192483
    16  C    0.073678  -0.673885
    17  O    0.010364   0.019132
    18  C    0.518306  -0.692760
    19  C   -0.300674  -0.032967
    20  O   -0.019090  -0.014352
    21  H    0.057799   0.116713
    22  H    0.031787   0.097474
    23  H    0.144451   0.002459
    24  H   -0.127825   0.286747
    25  H   -0.246896   0.460617
    26  H    0.597456  -0.504800
    27  H   -0.012295   0.193555
    28  H   -0.042435   0.236998
    29  H   -0.289135   0.491570
    30  H    0.067284  -0.013195
    31  H    0.106364   0.115036
    32  H   -0.020131   0.232235
    33  H   -0.390417   0.682875
    34  H    0.804296  -0.654342
    35  H   -0.165794   0.377835
    36  H    0.227205   0.125462
    37  H   -0.002734   0.235598
    38  H   -0.110670   0.271502
    39  H    0.081363   0.115995
    40  H   -0.395244   0.577099
    41  H   -0.019813   0.176271
    42  H   -0.246869   0.426233
    43  H    0.307382  -0.074693
 Sum of Mulliken charges =  -1.00000   1.00000

 Dipole moment (field-independent basis, Debye):
    X=             -3.1100    Y=              0.7375    Z=              1.1302  Tot=              3.3902
 Quadrupole moment (field-independent basis, Debye-Ang):
   XX=           -210.9115   YY=           -174.5247   ZZ=           -162.0084
   XY=             11.6277   XZ=             -3.2635   YZ=             -0.2367

 Summary of Natural Population Analysis:

                                       Natural Population
                Natural  -----------------------------------------------
    Atom  No    Charge         Core      Valence    Rydberg      Total
 -----------------------------------------------------------------------
      C    1   -0.18836      0.99963     2.18118    0.00756     3.18836
      C    2   -0.19614      0.99961     2.18801    0.00851     3.19614
      C    3   -0.19569      0.99958     2.18536    0.01076     3.19569
      C    4   -0.03117      0.99955     2.01864    0.01298     3.03117
      C    5   -0.19341      0.99958     2.18286    0.01097     3.19341
      C    6   -0.18707      0.99962     2.17958    0.00786     3.18707
      C    7   -0.23889      0.99954     2.22858    0.01077     3.23889
      C    8    0.40975      0.99971     1.56452    0.02603     2.59025
      O    9   -0.30929      0.99987     3.30333    0.00608     4.30929
      O   10   -0.34231      0.99988     3.33581    0.00662     4.34231
      C   11   -0.09343      0.99953     2.08098    0.01292     3.09343
      N   12   -0.31663      0.99967     2.80777    0.00920     3.81663
      C   13    0.33491      0.99965     1.64298    0.02247     2.66509
      O   14   -0.31654      0.99988     3.31103    0.00563     4.31654
      C   15    0.01442      0.99952     1.97112    0.01494     2.98558
      C   16   -0.02733      0.99955     2.01535    0.01243     3.02733
      O   17   -0.30075      0.99989     3.29114    0.00972     4.30075
      C   18   -0.02553      0.99958     2.01329    0.01266     3.02553
      C   19   -0.02988      0.99958     2.01780    0.01250     3.02988
      O   20   -0.29156      0.99989     3.28211    0.00956     4.29156
      H   21    0.09787      0.00000     0.40134    0.00079     0.40213
      H   22    0.09363      0.00000     0.40520    0.00117     0.40637
      H   23    0.10237      0.00000     0.39569    0.00194     0.39763
      H   24    0.09874      0.00000     0.40036    0.00090     0.40126
      H   25    0.09949      0.00000     0.39897    0.00154     0.40051
      H   26    0.10525      0.00000     0.39183    0.00292     0.39475
      H   27    0.10143      0.00000     0.39703    0.00154     0.39857
      H   28    0.10295      0.00000     0.39543    0.00161     0.39705
      H   29    0.10139      0.00000     0.39768    0.00093     0.39861
      H   30    0.08504      0.00000     0.41347    0.00149     0.41496
      H   31    0.12021      0.00000     0.37800    0.00179     0.37979
      H   32    0.11330      0.00000     0.38517    0.00153     0.38670
      H   33    0.24273      0.00000     0.24542    0.01185     0.25727
      H   34    0.10912      0.00000     0.38799    0.00289     0.39088
      H   35    0.10063      0.00000     0.39811    0.00126     0.39937
      H   36    0.19237      0.00000     0.30505    0.00259     0.30763
      H   37    0.10808      0.00000     0.39059    0.00133     0.39192
      H   38    0.08861      0.00000     0.41000    0.00139     0.41139
      H   39    0.09866      0.00000     0.40029    0.00106     0.40134
      H   40    0.09774      0.00000     0.40077    0.00148     0.40226
      H   41    0.08190      0.00000     0.41656    0.00154     0.41810
      H   42    0.09574      0.00000     0.40305    0.00121     0.40426
      H   43    0.08764      0.00000     0.41085    0.00151     0.41236
 =======================================================================
   * Total *    0.00000     19.99330    56.73028    0.27642    77.00000

 Normal termination of Gaussian 16 at Sat Dec 12 17:04:24 2020.
