 Gaussian 16, Revision A.03,

 -----------------------------------------------------------
 # opt freq B3LYP/6-31G(d) empiricaldispersion=gd3bj scf=xqc
 -----------------------------------------------------------

 ------------------------------
 CID_67692142_JID_5321_neutraal
 ------------------------------
 Symbolic Z-matrix:
 Charge =  0 Multiplicity = 1

 SCF Done:  E(RB3LYP) =  -693.590444256     A.U. after   13 cycles
 SCF Done:  E(RB3LYP) =  -693.593756155     A.U. after   11 cycles
 SCF Done:  E(RB3LYP) =  -693.594136867     A.U. after   10 cycles
 SCF Done:  E(RB3LYP) =  -693.593888714     A.U. after   11 cycles
 SCF Done:  E(RB3LYP) =  -693.594264122     A.U. after   10 cycles
 SCF Done:  E(RB3LYP) =  -693.594338800     A.U. after    9 cycles
 SCF Done:  E(RB3LYP) =  -693.594367272     A.U. after   10 cycles
 SCF Done:  E(RB3LYP) =  -693.594375743     A.U. after    9 cycles
 SCF Done:  E(RB3LYP) =  -693.594382477     A.U. after    9 cycles
 SCF Done:  E(RB3LYP) =  -693.594381268     A.U. after    8 cycles
 SCF Done:  E(RB3LYP) =  -693.594562518     A.U. after   10 cycles
 SCF Done:  E(RB3LYP) =  -693.594584380     A.U. after   10 cycles
 SCF Done:  E(RB3LYP) =  -693.594590035     A.U. after   10 cycles
 SCF Done:  E(RB3LYP) =  -693.594591020     A.U. after    9 cycles
 SCF Done:  E(RB3LYP) =  -693.594591109     A.U. after    7 cycles
 SCF Done:  E(RB3LYP) =  -693.594591131     A.U. after    6 cycles
 Optimization completed.
    -- Stationary point found.
 Normal termination of Gaussian 16 at Thu Dec 10 15:58:53 2020.

 --------------------------------------------------------------------
 #N Geom=AllCheck Guess=TCheck SCRF=Check GenChk RB3LYP/6-31G(d) Freq
 --------------------------------------------------------------------

 Structure from the checkpoint file:  "JID_5321.chk"
 ------------------------------
 CID_67692142_JID_5321_neutraal
 ------------------------------
 Charge =  0 Multiplicity = 1

 SCF Done:  E(RB3LYP) =  -693.594591131     A.U. after    1 cycles

  Exact polarizability: 149.277   4.086 140.881   3.374   1.555 115.090
 Approx polarizability: 189.249   0.809 187.189   5.583   1.180 176.981

                      1                      2                      3
                      A                      A                      A
 Frequencies --     17.7481                29.2601                36.5958
 Red. masses --      3.9027                 4.1197                 3.6957
 Frc consts  --      0.0007                 0.0021                 0.0029
 IR Inten    --      0.3286                 0.4176                 0.3836

                      4                      5                      6
                      A                      A                      A
 Frequencies --     45.2698                60.8577               111.6770
 Red. masses --      4.0865                 3.6187                 3.5254
 Frc consts  --      0.0049                 0.0079                 0.0259
 IR Inten    --      0.3862                 0.6432                 4.2141

                      7                      8                      9
                      A                      A                      A
 Frequencies --    128.3031               164.1937               190.8864
 Red. masses --      3.4853                 3.1350                 2.6531
 Frc consts  --      0.0338                 0.0498                 0.0570
 IR Inten    --      0.5661                 1.5486                 5.9317

                     10                     11                     12
                      A                      A                      A
 Frequencies --    223.6467               240.0607               262.1833
 Red. masses --      2.2816                 2.0798                 2.4000
 Frc consts  --      0.0672                 0.0706                 0.0972
 IR Inten    --      0.8391                19.8518                 9.9689

                     13                     14                     15
                      A                      A                      A
 Frequencies --    289.6878               298.2653               327.9133
 Red. masses --      2.3385                 1.4304                 1.6335
 Frc consts  --      0.1156                 0.0750                 0.1035
 IR Inten    --      1.4266                43.9608                53.0456

                     16                     17                     18
                      A                      A                      A
 Frequencies --    353.3486               357.6671               404.9102
 Red. masses --      1.8335                 2.2461                 2.3110
 Frc consts  --      0.1349                 0.1693                 0.2232
 IR Inten    --      4.9531                 1.6578                 1.8715

                     19                     20                     21
                      A                      A                      A
 Frequencies --    441.5991               465.0873               477.9336
 Red. masses --      3.2073                 2.7890                 2.6622
 Frc consts  --      0.3685                 0.3554                 0.3583
 IR Inten    --      0.5660                 0.6391                 1.3936

                     22                     23                     24
                      A                      A                      A
 Frequencies --    493.6304               541.3046               588.0192
 Red. masses --      2.3187                 2.5970                 2.3678
 Frc consts  --      0.3329                 0.4483                 0.4824
 IR Inten    --      3.8826                 0.8267                 5.3025

                     25                     26                     27
                      A                      A                      A
 Frequencies --    608.4580               718.5163               743.0720
 Red. masses --      1.7974                 1.2658                 1.7004
 Frc consts  --      0.3921                 0.3850                 0.5532
 IR Inten    --      1.2617                50.3116                15.8444

                     28                     29                     30
                      A                      A                      A
 Frequencies --    768.2441               812.9495               817.9769
 Red. masses --      1.4236                 1.9922                 2.0695
 Frc consts  --      0.4950                 0.7757                 0.8158
 IR Inten    --      0.9259                72.1350               106.0673

                     31                     32                     33
                      A                      A                      A
 Frequencies --    846.2739               873.2565               885.2708
 Red. masses --      1.9565                 2.4919                 1.8874
 Frc consts  --      0.8256                 1.1196                 0.8715
 IR Inten    --     16.6552                11.7073                10.4021

                     34                     35                     36
                      A                      A                      A
 Frequencies --    895.6822               922.7406               932.9739
 Red. masses --      2.1598                 1.9993                 2.0362
 Frc consts  --      1.0209                 1.0030                 1.0443
 IR Inten    --     10.9363                 3.0037                13.3014

                     37                     38                     39
                      A                      A                      A
 Frequencies --    951.8932               990.0951               999.4795
 Red. masses --      1.7607                 2.2894                 1.9119
 Frc consts  --      0.9400                 1.3223                 1.1253
 IR Inten    --      6.1931                 3.1848                 5.2763

                     40                     41                     42
                      A                      A                      A
 Frequencies --   1017.0060              1025.0529              1063.8265
 Red. masses --      1.6655                 1.7472                 1.7694
 Frc consts  --      1.0150                 1.0817                 1.1799
 IR Inten    --      9.3013                18.1395                 2.0699

                     43                     44                     45
                      A                      A                      A
 Frequencies --   1067.5162              1093.5447              1106.3272
 Red. masses --      1.8459                 2.6403                 2.1134
 Frc consts  --      1.2394                 1.8603                 1.5241
 IR Inten    --      8.2963               108.1500                 9.2297

                     46                     47                     48
                      A                      A                      A
 Frequencies --   1112.2599              1124.3439              1139.7282
 Red. masses --      2.2480                 2.7164                 3.0923
 Frc consts  --      1.6386                 2.0232                 2.3667
 IR Inten    --     28.2002                 2.2596                98.5363

                     49                     50                     51
                      A                      A                      A
 Frequencies --   1145.9212              1153.0997              1164.7529
 Red. masses --      2.4500                 2.1062                 2.5613
 Frc consts  --      1.8955                 1.6500                 2.0473
 IR Inten    --     19.4151                37.9436                 1.8160

                     52                     53                     54
                      A                      A                      A
 Frequencies --   1168.0489              1204.4232              1216.3796
 Red. masses --      2.5876                 1.5176                 1.3055
 Frc consts  --      2.0800                 1.2971                 1.1381
 IR Inten    --     30.5019                 5.2241                 5.9062

                     55                     56                     57
                      A                      A                      A
 Frequencies --   1232.3656              1250.0957              1260.1421
 Red. masses --      1.4563                 1.3144                 1.2848
 Frc consts  --      1.3031                 1.2102                 1.2020
 IR Inten    --     11.9636                10.7782                 1.2128

                     58                     59                     60
                      A                      A                      A
 Frequencies --   1290.8029              1309.8547              1324.7619
 Red. masses --      1.2513                 1.2370                 1.1867
 Frc consts  --      1.2283                 1.2504                 1.2270
 IR Inten    --     13.0656                10.6067                 0.9187

                     61                     62                     63
                      A                      A                      A
 Frequencies --   1342.6333              1352.1076              1359.9137
 Red. masses --      1.2381                 1.1984                 1.2734
 Frc consts  --      1.3150                 1.2909                 1.3875
 IR Inten    --      2.1695                 5.7187                 4.7441

                     64                     65                     66
                      A                      A                      A
 Frequencies --   1366.0012              1386.6902              1393.9687
 Red. masses --      1.2338                 1.3334                 1.3743
 Frc consts  --      1.3564                 1.5106                 1.5734
 IR Inten    --      6.2255                 8.3518                 2.6827

                     67                     68                     69
                      A                      A                      A
 Frequencies --   1396.1671              1403.9044              1404.9670
 Red. masses --      1.4783                 1.3271                 1.3275
 Frc consts  --      1.6978                 1.5411                 1.5439
 IR Inten    --      6.8450                10.7136                17.7205

                     70                     71                     72
                      A                      A                      A
 Frequencies --   1409.9415              1420.9332              1429.2900
 Red. masses --      1.2098                 1.3463                 1.4459
 Frc consts  --      1.4169                 1.6016                 1.7403
 IR Inten    --     18.4041                 8.5435                 1.3596

                     73                     74                     75
                      A                      A                      A
 Frequencies --   1431.7008              1440.0422              1442.3356
 Red. masses --      1.3663                 1.4094                 1.3090
 Frc consts  --      1.6500                 1.7221                 1.6045
 IR Inten    --      5.2469                 9.8190                30.3797

                     76                     77                     78
                      A                      A                      A
 Frequencies --   1495.0852              1504.6076              1505.8881
 Red. masses --      1.0760                 1.1249                 1.0976
 Frc consts  --      1.4171                 1.5004                 1.4665
 IR Inten    --      0.1381                 5.5063                 8.5026

                     79                     80                     81
                      A                      A                      A
 Frequencies --   1506.7667              1510.3078              1512.8273
 Red. masses --      1.1304                 1.1185                 1.0966
 Frc consts  --      1.5120                 1.5032                 1.4787
 IR Inten    --      5.3349                 5.6273                 4.2148

                     82                     83                     84
                      A                      A                      A
 Frequencies --   1518.9260              1520.4573              1529.0008
 Red. masses --      1.1459                 1.1134                 1.1000
 Frc consts  --      1.5576                 1.5166                 1.5151
 IR Inten    --     19.2195                 4.0219                14.2050

                     85                     86                     87
                      A                      A                      A
 Frequencies --   1538.6514              1541.9309              1547.7199
 Red. masses --      1.0960                 1.1050                 1.0881
 Frc consts  --      1.5287                 1.5479                 1.5358
 IR Inten    --      5.2979                 1.3588                 9.7404

                     88                     89                     90
                      A                      A                      A
 Frequencies --   2934.5871              2947.1428              2960.7631
 Red. masses --      1.0763                 1.0765                 1.0725
 Frc consts  --      5.4609                 5.5090                 5.5391
 IR Inten    --     81.1302                39.8726               101.3371

                     91                     92                     93
                      A                      A                      A
 Frequencies --   2993.9292              3029.1665              3037.3252
 Red. masses --      1.0724                 1.0643                 1.0623
 Frc consts  --      5.6638                 5.7536                 5.7743
 IR Inten    --     56.0324                29.6569                23.7983

                     94                     95                     96
                      A                      A                      A
 Frequencies --   3039.6806              3040.5277              3046.0435
 Red. masses --      1.0645                 1.0624                 1.0677
 Frc consts  --      5.7949                 5.7867                 5.8366
 IR Inten    --     47.0191                22.5675                12.4029

                     97                     98                     99
                      A                      A                      A
 Frequencies --   3048.4424              3053.4196              3059.3748
 Red. masses --      1.0610                 1.0623                 1.0829
 Frc consts  --      5.8093                 5.8354                 5.9715
 IR Inten    --     37.0863                27.9615                38.4954

                    100                    101                    102
                      A                      A                      A
 Frequencies --   3065.8724              3083.1974              3084.5156
 Red. masses --      1.1007                 1.0950                 1.1017
 Frc consts  --      6.0956                 6.1329                 6.1760
 IR Inten    --     40.3298                50.7359                84.9757

                    103                    104                    105
                      A                      A                      A
 Frequencies --   3086.6694              3095.1441              3096.3808
 Red. masses --      1.0992                 1.0982                 1.1022
 Frc consts  --      6.1706                 6.1986                 6.2263
 IR Inten    --     17.2175                66.4951                43.3394

                    106                    107                    108
                      A                      A                      A
 Frequencies --   3098.6272              3100.5527              3103.0383
 Red. masses --      1.1000                 1.1020                 1.0932
 Frc consts  --      6.2230                 6.2419                 6.2020
 IR Inten    --     41.8182                35.7683                42.9480

                    109                    110                    111
                      A                      A                      A
 Frequencies --   3459.1443              3507.0349              3753.7045
 Red. masses --      1.0735                 1.0732                 1.0660
 Frc consts  --      7.5684                 7.7767                 8.8499
 IR Inten    --      3.0129                 0.9393                 7.9047

 - Thermochemistry -
 -------------------
 Temperature   298.150 Kelvin.  Pressure   1.00000 Atm.
 Atom     1 has atomic number  6 and mass  12.00000

 Molecular mass:   216.18378 amu.
 Principal axes and moments of inertia in atomic units:
                           1         2         3
     Eigenvalues --  2430.231745886.122127210.61442
           X            0.99996   0.00921   0.00217
           Y           -0.00921   0.99995   0.00320
           Z           -0.00214  -0.00322   0.99999
 This molecule is an asymmetric top.
 Rotational symmetry number  1.
 Warning -- assumption of classical behavior for rotation
           may cause significant error
 Rotational temperatures (Kelvin)      0.03564     0.01471     0.01201
 Rotational constants (GHZ):           0.74262     0.30661     0.25029
 Zero-point vibrational energy     943400.4 (Joules/Mol)
                                  225.47811 (Kcal/Mol)
 Warning -- explicit consideration of  25 degrees of freedom as
           vibrations may cause significant error
 Vibrational temperatures:     25.54    42.10    52.65    65.13    87.56
          (Kelvin)            160.68   184.60   236.24   274.64   321.78
                              345.39   377.22   416.80   429.14   471.79
                              508.39   514.60   582.58   635.36   669.16
                              687.64   710.22   778.82   846.03   875.44
                             1033.78  1069.11  1105.33  1169.65  1176.89
                             1217.60  1256.42  1273.71  1288.69  1327.62
                             1342.34  1369.56  1424.53  1438.03  1463.24
                             1474.82  1530.61  1535.92  1573.37  1591.76
                             1600.29  1617.68  1639.81  1648.72  1659.05
                             1675.82  1680.56  1732.90  1750.10  1773.10
                             1798.61  1813.06  1857.18  1884.59  1906.04
                             1931.75  1945.38  1956.61  1965.37  1995.14
                             2005.61  2008.77  2019.91  2021.43  2028.59
                             2044.41  2056.43  2059.90  2071.90  2075.20
                             2151.09  2164.79  2166.64  2167.90  2173.00
                             2176.62  2185.40  2187.60  2199.89  2213.78
                             2218.49  2226.82  4222.22  4240.28  4259.88
                             4307.60  4358.29  4370.03  4373.42  4374.64
                             4382.58  4386.03  4393.19  4401.76  4411.11
                             4436.03  4437.93  4441.03  4453.22  4455.00
                             4458.23  4461.00  4464.58  4976.94  5045.84
                             5400.74

 Zero-point correction=                           0.359322 (Hartree/Particle)
 Thermal correction to Energy=                    0.375797
 Thermal correction to Enthalpy=                  0.376741
 Thermal correction to Gibbs Free Energy=         0.312789
 Sum of electronic and zero-point Energies=           -693.235269
 Sum of electronic and thermal Energies=              -693.218794
 Sum of electronic and thermal Enthalpies=            -693.217850
 Sum of electronic and thermal Free Energies=         -693.281802

                     E (Thermal)             CV                S
                      KCal/Mol        Cal/Mol-Kelvin    Cal/Mol-Kelvin
 Total                  235.816             62.047            134.599
 Electronic               0.000              0.000              0.000
 Translational            0.889              2.981             42.016
 Rotational               0.889              2.981             33.000
 Vibrational            234.039             56.085             59.583
 Vibration     1          0.593              1.986              6.871
 Vibration     2          0.593              1.984              5.879
 Vibration     3          0.594              1.982              5.435
 Vibration     4          0.595              1.979              5.014
 Vibration     5          0.597              1.973              4.429
 Vibration     6          0.607              1.940              3.240
 Vibration     7          0.611              1.925              2.971
 Vibration     8          0.623              1.886              2.501
 Vibration     9          0.634              1.852              2.219
 Vibration    10          0.649              1.805              1.929
 Vibration    11          0.657              1.779              1.802
 Vibration    12          0.669              1.742              1.647
 Vibration    13          0.686              1.693              1.476
 Vibration    14          0.691              1.677              1.427
 Vibration    15          0.711              1.620              1.270
 Vibration    16          0.730              1.568              1.151
 Vibration    17          0.733              1.559              1.132
 Vibration    18          0.770              1.460              0.945
 Vibration    19          0.801              1.379              0.822
 Vibration    20          0.823              1.327              0.751
 Vibration    21          0.834              1.299              0.716
 Vibration    22          0.849              1.264              0.674
 Vibration    23          0.896              1.159              0.562
 Vibration    24          0.945              1.057              0.471
 Vibration    25          0.967              1.014              0.435

 Optimization completed.
    -- Stationary point found.
 Normal termination of Gaussian 16 at Thu Dec 10 16:12:24 2020.

 ----------------------------------------------------------------------
 # B3LYP/6-311++G(d,p) empiricaldispersion=gd3bj scf=xqc pop=npa geom=c
 heck
 ----------------------------------------------------------------------

 --------------------------------------
 CID_67692142_JID_5321_Energie_neutraal
 --------------------------------------
 Structure from the checkpoint file:  "JID_5321.chk"
 Charge =  0 Multiplicity = 1

 SCF Done:  E(RB3LYP) =  -693.810653737     A.U. after   13 cycles
 Normal termination of Gaussian 16 at Thu Dec 10 16:19:01 2020.

 ----------------------------------------------------------------------
 # B3LYP/6-311++G(d,p) empiricaldispersion=gd3bj scf=xqc pop=npa geom=c
 heck
 ----------------------------------------------------------------------

 ------------------------------------
 CID_67692142_JID_5321_Energie_kation
 ------------------------------------
 Structure from the checkpoint file:  "JID_5321.chk"
 Charge =  1 Multiplicity = 2

 SCF Done:  E(UB3LYP) =  -693.522630860     A.U. after   22 cycles
 Normal termination of Gaussian 16 at Thu Dec 10 16:37:08 2020.
 Gaussian 16:  ES64L-G16RevA.03 25-Dec-2016

 ----------------------------------------------------------------------
 # B3LYP/6-311++G(d,p) empiricaldispersion=gd3bj scf=xqc pop=npa geom=c
 heck
 ----------------------------------------------------------------------

 -----------------------------------
 CID_67692142_JID_5321_Energie_anion
 -----------------------------------
 Structure from the checkpoint file:  "JID_5321.chk"
 Charge = -1 Multiplicity = 2

                         Standard orientation:
 ---------------------------------------------------------------------
 Center     Atomic      Atomic             Coordinates (Angstroms)
 Number     Number       Type             X           Y           Z
 ---------------------------------------------------------------------
      1          6           0       -3.665703   -1.658005    0.410448
      2          6           0       -2.680231   -1.824536   -0.746537
      3          8           0       -2.327709   -0.561476   -1.295499
      4          6           0       -1.737453    0.306055   -0.324716
      5          6           0       -2.700548    0.509398    0.851811
      6          7           0       -3.167069   -0.747825    1.446577
      7          6           0       -1.369452    1.590787   -1.060474
      8          6           0       -0.619285    2.635061   -0.218430
      9          6           0        0.660926    2.121578    0.449380
     10          7           0        1.607190    1.611841   -0.537353
     11          6           0        2.918503    1.251556   -0.005072
     12          6           0        2.956063    0.176736    1.100947
     13          6           0        2.274164   -1.148838    0.732105
     14          6           0        2.848742   -1.828234   -0.513731
     15          8           0        4.234114   -2.132148   -0.394740
     16          1           0       -4.602969   -1.240761    0.020402
     17          1           0       -3.896429   -2.628114    0.866198
     18          1           0       -1.772206   -2.345739   -0.390966
     19          1           0       -3.111075   -2.407723   -1.567250
     20          1           0       -0.825356   -0.185362    0.064000
     21          1           0       -3.579122    1.060721    0.489884
     22          1           0       -2.230093    1.112710    1.635818
     23          1           0       -2.382951   -1.193684    1.924264
     24          1           0       -0.771752    1.316292   -1.937915
     25          1           0       -2.293475    2.033255   -1.452844
     26          1           0       -0.356390    3.475575   -0.870557
     27          1           0       -1.280683    3.032464    0.562035
     28          1           0        1.148437    2.955514    0.970781
     29          1           0        0.399709    1.384772    1.232014
     30          1           0        1.203360    0.811412   -1.018332
     31          1           0        3.533621    0.932144   -0.856869
     32          1           0        3.384946    2.168187    0.379187
     33          1           0        4.005782   -0.015703    1.363689
     34          1           0        2.492660    0.571032    2.013191
     35          1           0        2.361359   -1.841577    1.577757
     36          1           0        1.199547   -0.984489    0.569707
     37          1           0        2.350496   -2.789554   -0.673379
     38          1           0        2.657561   -1.216852   -1.410736
     39          1           0        4.718569   -1.292984   -0.387111
 ---------------------------------------------------------------------

 SCF Done:  E(UB3LYP) =  -693.799552221     A.U. after   29 cycles

 The electronic state is 2-A.
 Alpha  occ. eigenvalues --  -19.03550 -19.02705 -14.20945 -14.20411 -10.12969
 Alpha  occ. eigenvalues --  -10.12406 -10.11970 -10.10258 -10.10212 -10.09808
 Alpha  occ. eigenvalues --  -10.09608 -10.08038 -10.08016 -10.06963 -10.06743
 Alpha  occ. eigenvalues --   -0.95205  -0.92777  -0.81558  -0.81488  -0.71826
 Alpha  occ. eigenvalues --   -0.68979  -0.66311  -0.61875  -0.59778  -0.58001
 Alpha  occ. eigenvalues --   -0.55471  -0.53535  -0.50226  -0.48370  -0.47038
 Alpha  occ. eigenvalues --   -0.42300  -0.41049  -0.40517  -0.39241  -0.38680
 Alpha  occ. eigenvalues --   -0.37894  -0.36506  -0.36366  -0.35866  -0.34310
 Alpha  occ. eigenvalues --   -0.33586  -0.32555  -0.31122  -0.30422  -0.30052
 Alpha  occ. eigenvalues --   -0.28592  -0.27846  -0.27314  -0.26288  -0.25886
 Alpha  occ. eigenvalues --   -0.25111  -0.24600  -0.24488  -0.23728  -0.23173
 Alpha  occ. eigenvalues --   -0.22609  -0.19060  -0.18233  -0.13340  -0.12911
 Alpha  occ. eigenvalues --    0.04147
 Alpha virt. eigenvalues --    0.05863   0.06670   0.06948   0.07859   0.08323
 Alpha virt. eigenvalues --    0.08863   0.09237   0.09625   0.10204   0.10647
 Alpha virt. eigenvalues --    0.10808   0.11642   0.11997   0.12393   0.12670

  Beta  occ. eigenvalues --  -19.03542 -19.02674 -14.20923 -14.20409 -10.12962
  Beta  occ. eigenvalues --  -10.12387 -10.11956 -10.10241 -10.10201 -10.09783
  Beta  occ. eigenvalues --  -10.09583 -10.08035 -10.08012 -10.06946 -10.06716
  Beta  occ. eigenvalues --   -0.95190  -0.92708  -0.81539  -0.81449  -0.71808
  Beta  occ. eigenvalues --   -0.68936  -0.66280  -0.61829  -0.59734  -0.57964
  Beta  occ. eigenvalues --   -0.55423  -0.53482  -0.50171  -0.48331  -0.46982
  Beta  occ. eigenvalues --   -0.42253  -0.41003  -0.40477  -0.39208  -0.38642
  Beta  occ. eigenvalues --   -0.37857  -0.36480  -0.36331  -0.35814  -0.34269
  Beta  occ. eigenvalues --   -0.33553  -0.32521  -0.31086  -0.30397  -0.30021
  Beta  occ. eigenvalues --   -0.28562  -0.27807  -0.27284  -0.26256  -0.25859
  Beta  occ. eigenvalues --   -0.25079  -0.24576  -0.24454  -0.23698  -0.23150
  Beta  occ. eigenvalues --   -0.22577  -0.19013  -0.18192  -0.13324  -0.12879
  Beta virt. eigenvalues --    0.06340   0.06830   0.07053   0.07492   0.08068
  Beta virt. eigenvalues --    0.08754   0.09330   0.09537   0.09849   0.10398
  Beta virt. eigenvalues --    0.10913   0.11201   0.11754   0.12244   0.12592

 Mulliken charges and spin densities:
               1          2
     1  C    0.410778  -0.734374
     2  C   -0.026072  -0.044243
     3  O   -0.019786   0.010408
     4  C   -0.584188   0.199128
     5  C   -0.165936  -0.685690
     6  N   -0.095847   0.072190
     7  C   -0.587446   0.275801
     8  C    0.441987  -0.800209
     9  C   -0.336715  -0.159758
    10  N   -0.059280   0.053691
    11  C    0.255153  -0.602501
    12  C    0.010617  -0.284455
    13  C   -0.197771   0.092644
    14  C    0.627059  -1.113525
    15  O   -0.272108   0.038402
    16  H    0.169025  -0.035097
    17  H   -0.446402   0.631787
    18  H    0.082296   0.018915
    19  H   -0.196819   0.356457
    20  H    0.746222  -0.199703
    21  H    0.092117   0.066867
    22  H    0.018059   0.183030
    23  H   -0.189969   0.435481
    24  H    0.105641   0.083814
    25  H    0.160471   0.005439
    26  H    0.153679   0.009135
    27  H    0.011468   0.130380
    28  H   -0.294598   0.463760
    29  H    0.160072  -0.033493
    30  H    0.269123  -0.078781
    31  H   -0.252079   0.409141
    32  H   -0.243977   0.406129
    33  H   -0.260453   0.423628
    34  H   -0.365894   0.524337
    35  H   -0.310652   0.513344
    36  H    0.176277  -0.194371
    37  H   -0.011912   0.194501
    38  H   -0.024914   0.171515
    39  H    0.052772   0.196275
 Sum of Mulliken charges =  -1.00000   1.00000

 Dipole moment (field-independent basis, Debye):
    X=             -3.9806    Y=              3.1806    Z=             -3.8885  Tot=              6.4095
 Quadrupole moment (field-independent basis, Debye-Ang):
   XX=           -177.3490   YY=           -147.5984   ZZ=           -138.4807
   XY=             -6.1298   XZ=              2.3975   YZ=              1.2575

 Summary of Natural Population Analysis:

                                       Natural Population
                Natural  -----------------------------------------------
    Atom  No    Charge         Core      Valence    Rydberg      Total
 -----------------------------------------------------------------------
      C    1   -0.10328      0.99963     2.09211    0.01154     3.10328
      C    2   -0.01866      0.99958     2.00624    0.01284     3.01866
      O    3   -0.30365      0.99988     3.29480    0.00896     4.30365
      C    4    0.05066      0.99953     1.93513    0.01468     2.94934
      C    5   -0.10167      0.99959     2.09017    0.01191     3.10167
      N    6   -0.33544      0.99976     2.82161    0.01406     3.83544
      C    7   -0.19797      0.99960     2.18991    0.00846     3.19797
      C    8   -0.19107      0.99962     2.18247    0.00898     3.19107
      C    9   -0.09090      0.99962     2.08002    0.01127     3.09090
      N   10   -0.34343      0.99975     2.83233    0.01136     3.84343
      C   11   -0.08787      0.99963     2.07488    0.01336     3.08787
      C   12   -0.20541      0.99962     2.19646    0.00933     3.20541
      C   13   -0.20850      0.99962     2.19904    0.00984     3.20850
      C   14   -0.00900      0.99959     1.99780    0.01160     3.00900
      O   15   -0.36897      0.99990     3.36242    0.00665     4.36897
      H   16    0.08899      0.00000     0.40986    0.00116     0.41101
      H   17    0.09941      0.00000     0.39920    0.00139     0.40059
      H   18    0.07867      0.00000     0.41939    0.00194     0.42133
      H   19    0.09041      0.00000     0.40848    0.00111     0.40959
      H   20    0.07840      0.00000     0.41864    0.00296     0.42160
      H   21    0.08982      0.00000     0.40892    0.00126     0.41018
      H   22    0.10099      0.00000     0.39794    0.00107     0.39901
      H   23    0.17364      0.00000     0.32271    0.00365     0.32636
      H   24    0.10229      0.00000     0.39640    0.00131     0.39771
      H   25    0.10055      0.00000     0.39836    0.00108     0.39945
      H   26    0.10008      0.00000     0.39889    0.00103     0.39992
      H   27    0.09619      0.00000     0.40290    0.00092     0.40381
      H   28    0.09517      0.00000     0.40354    0.00129     0.40483
      H   29    0.08070      0.00000     0.41733    0.00197     0.41930
      H   30    0.16895      0.00000     0.32666    0.00439     0.33105
      H   31    0.08955      0.00000     0.40923    0.00122     0.41045
      H   32    0.09468      0.00000     0.40398    0.00134     0.40532
      H   33    0.09877      0.00000     0.39948    0.00175     0.40123
      H   34    0.10235      0.00000     0.39597    0.00168     0.39765
      H   35    0.10313      0.00000     0.39553    0.00134     0.39687
      H   36    0.09504      0.00000     0.40246    0.00250     0.40496
      H   37    0.08766      0.00000     0.41111    0.00123     0.41234
      H   38    0.07159      0.00000     0.42687    0.00154     0.42841
      H   39    0.22813      0.00000     0.26834    0.00353     0.27187
 =======================================================================
   * Total *   -0.00000     14.99493    44.79760    0.20747    60.00000

 Normal termination of Gaussian 16 at Thu Dec 10 17:02:28 2020.
