 Gaussian 16, Revision A.03,

 -----------------------------------------------------------
 # opt freq B3LYP/6-31G(d) empiricaldispersion=gd3bj scf=xqc
 -----------------------------------------------------------

 -----------------------------
 CID_85828069_JID_279_neutraal
 -----------------------------
 Symbolic Z-matrix:
 Charge =  0 Multiplicity = 1

 SCF Done:  E(RB3LYP) =  -1119.61413764     A.U. after   19 cycles
 SCF Done:  E(RB3LYP) =  -1119.64287214     A.U. after   15 cycles
 SCF Done:  E(RB3LYP) =  -1119.64361880     A.U. after   13 cycles
 SCF Done:  E(RB3LYP) =  -1119.64371539     A.U. after   13 cycles
 SCF Done:  E(RB3LYP) =  -1119.64372655     A.U. after   10 cycles
 SCF Done:  E(RB3LYP) =  -1119.64372986     A.U. after   10 cycles
 Optimization completed.
    -- Stationary point found.
 Normal termination of Gaussian 16 at Tue Dec  8 10:19:13 2020.

 --------------------------------------------------------------------
 #N Geom=AllCheck Guess=TCheck SCRF=Check GenChk RB3LYP/6-31G(d) Freq
 --------------------------------------------------------------------

 Structure from the checkpoint file:  "JID_279.chk"
 -----------------------------
 CID_85828069_JID_279_neutraal
 -----------------------------
 Charge =  0 Multiplicity = 1

 SCF Done:  E(RB3LYP) =  -1119.64372986     A.U. after    1 cycles

  Exact polarizability: 161.335  -7.832 131.255   0.000   0.000  41.674
 Approx polarizability: 338.537 -27.364 249.912   0.000  -0.000  66.509

                      1                      2                      3
                      A                      A                      A
 Frequencies --     94.5104               121.1225               123.7877
 Red. masses --     21.0123                10.2945                 5.3176
 Frc consts  --      0.1106                 0.0890                 0.0480
 IR Inten    --      1.4017                 3.0124                 0.3520

                      4                      5                      6
                      A                      A                      A
 Frequencies --    235.9542               324.7478               345.3696
 Red. masses --      5.7442                 8.7549                 7.4629
 Frc consts  --      0.1884                 0.5440                 0.5245
 IR Inten    --      1.4034                 6.1829                 3.5068

                      7                      8                      9
                      A                      A                      A
 Frequencies --    402.0841               468.5455               506.3018
 Red. masses --     14.8367                21.3777                10.8964
 Frc consts  --      1.4133                 2.7651                 1.6457
 IR Inten    --      6.8902                 2.8580                 6.3290

                     10                     11                     12
                      A                      A                      A
 Frequencies --    525.5157               537.9340               550.2512
 Red. masses --     11.2241                10.3453                 3.4854
 Frc consts  --      1.8263                 1.7638                 0.6218
 IR Inten    --      8.8328                 0.6317                 0.0346

                     13                     14                     15
                      A                      A                      A
 Frequencies --    575.1983               674.8765               757.8635
 Red. masses --      7.3280                 2.4253                 1.8780
 Frc consts  --      1.4285                 0.6508                 0.6355
 IR Inten    --      2.5472                 5.7011                37.8622

                     16                     17                     18
                      A                      A                      A
 Frequencies --    788.0896               840.2196               887.2956
 Red. masses --      1.3041                 5.9785                 7.3316
 Frc consts  --      0.4772                 2.4867                 3.4008
 IR Inten    --     17.7148                20.6917                14.3617

                     19                     20                     21
                      A                      A                      A
 Frequencies --    927.7412               999.2782              1048.2447
 Red. masses --      1.3437                 1.9728                 5.3357
 Frc consts  --      0.6814                 1.1607                 3.4544
 IR Inten    --      0.0164                19.5090                 3.0392

                     22                     23                     24
                      A                      A                      A
 Frequencies --   1110.4747              1148.6634              1235.5387
 Red. masses --      1.3600                 5.1216                 2.0765
 Frc consts  --      0.9881                 3.9814                 1.8676
 IR Inten    --     27.4972                19.0922                10.4111

                     25                     26                     27
                      A                      A                      A
 Frequencies --   1298.2451              1390.7966              1489.0965
 Red. masses --      2.7241                 2.1289                 6.3184
 Frc consts  --      2.7051                 2.4262                 8.2548
 IR Inten    --     20.9997                40.8227               127.8833

                     28                     29                     30
                      A                      A                      A
 Frequencies --   1592.0983              1632.4481              2342.7973
 Red. masses --      5.4068                10.7636                12.6741
 Frc consts  --      8.0747                16.9000                40.9862
 IR Inten    --     24.2432                41.9341                12.0674

                     31                     32                     33
                      A                      A                      A
 Frequencies --   3232.4018              3264.0606              3273.5257
 Red. masses --      1.0910                 1.0954                 1.0996
 Frc consts  --      6.7160                 6.8760                 6.9428
 IR Inten    --      9.4139                 3.8628                 2.6304

 - Thermochemistry -
 -------------------
 Temperature   298.150 Kelvin.  Pressure   1.00000 Atm.
 Atom     1 has atomic number  6 and mass  12.00000

 Molecular mass:   164.97069 amu.
 Principal axes and moments of inertia in atomic units:
                           1         2         3
     Eigenvalues --  1282.405531687.314192969.71972
           X            0.99694  -0.07814   0.00000
           Y            0.07814   0.99694   0.00000
           Z           -0.00000  -0.00000   1.00000
 This molecule is an asymmetric top.
 Rotational symmetry number  1.
 Warning -- assumption of classical behavior for rotation
           may cause significant error
 Rotational temperatures (Kelvin)      0.06754     0.05133     0.02917
 Rotational constants (GHZ):           1.40731     1.06959     0.60771
 Zero-point vibrational energy     207821.7 (Joules/Mol)
                                   49.67058 (Kcal/Mol)
 Warning -- explicit consideration of  13 degrees of freedom as
           vibrations may cause significant error
 Vibrational temperatures:    135.98   174.27   178.10   339.49   467.24
          (Kelvin)            496.91   578.51   674.13   728.46   756.10
                              773.97   791.69   827.58   971.00  1090.40
                             1133.89  1208.89  1276.62  1334.81  1437.74
                             1508.19  1597.73  1652.67  1777.66  1867.89
                             2001.05  2142.48  2290.67  2348.73  3370.76
                             4650.71  4696.26  4709.87

 Zero-point correction=                           0.079155 (Hartree/Particle)
 Thermal correction to Energy=                    0.087550
 Thermal correction to Enthalpy=                  0.088494
 Thermal correction to Gibbs Free Energy=         0.044958
 Sum of electronic and zero-point Energies=          -1119.564575
 Sum of electronic and thermal Energies=             -1119.556180
 Sum of electronic and thermal Enthalpies=           -1119.555236
 Sum of electronic and thermal Free Energies=        -1119.598772

                     E (Thermal)             CV                S
                      KCal/Mol        Cal/Mol-Kelvin    Cal/Mol-Kelvin
 Total                   54.938             31.056             91.629
 Electronic               0.000              0.000              0.000
 Translational            0.889              2.981             41.210
 Rotational               0.889              2.981             30.242
 Vibrational             53.161             25.095             20.177
 Vibration     1          0.603              1.953              3.564
 Vibration     2          0.609              1.932              3.082
 Vibration     3          0.610              1.929              3.040
 Vibration     4          0.655              1.786              1.833
 Vibration     5          0.709              1.626              1.286
 Vibration     6          0.724              1.585              1.187
 Vibration     7          0.768              1.466              0.955
 Vibration     8          0.826              1.320              0.742
 Vibration     9          0.862              1.236              0.643
 Vibration    10          0.880              1.194              0.597
 Vibration    11          0.893              1.166              0.570
 Vibration    12          0.906              1.139              0.544
 Vibration    13          0.932              1.085              0.494

 Optimization completed.
    -- Stationary point found.
 Normal termination of Gaussian 16 at Tue Dec  8 10:21:22 2020.

 ----------------------------------------------------------------------
 # B3LYP/6-311++G(d,p) empiricaldispersion=gd3bj scf=xqc pop=npa geom=c
 heck
 ----------------------------------------------------------------------

 -------------------------------------
 CID_85828069_JID_279_Energie_neutraal
 -------------------------------------
 Structure from the checkpoint file:  "JID_279.chk"
 Charge =  0 Multiplicity = 1

 SCF Done:  E(RB3LYP) =  -1119.77937934     A.U. after   24 cycles
 Normal termination of Gaussian 16 at Tue Dec  8 10:22:25 2020.

 ----------------------------------------------------------------------
 # B3LYP/6-311++G(d,p) empiricaldispersion=gd3bj scf=xqc pop=npa geom=c
 heck
 ----------------------------------------------------------------------

 -----------------------------------
 CID_85828069_JID_279_Energie_kation
 -----------------------------------
 Structure from the checkpoint file:  "JID_279.chk"
 Charge =  1 Multiplicity = 2

 SCF Done:  E(UB3LYP) =  -1119.48621252     A.U. after   25 cycles
 Normal termination of Gaussian 16 at Tue Dec  8 10:24:30 2020.
 Gaussian 16:  ES64L-G16RevA.03 25-Dec-2016

 ----------------------------------------------------------------------
 # B3LYP/6-311++G(d,p) empiricaldispersion=gd3bj scf=xqc pop=npa geom=c
 heck
 ----------------------------------------------------------------------

 ----------------------------------
 CID_85828069_JID_279_Energie_anion
 ----------------------------------
 Structure from the checkpoint file:  "JID_279.chk"
 Charge = -1 Multiplicity = 2

                         Standard orientation:
 ---------------------------------------------------------------------
 Center     Atomic      Atomic             Coordinates (Angstroms)
 Number     Number       Type             X           Y           Z
 ---------------------------------------------------------------------
      1          6           0       -2.188991    1.852434    0.000000
      2          6           0       -0.833119    2.058667    0.000016
      3          6           0       -0.222253    0.754241    0.000000
      4          6           0        1.049535    0.262977    0.000002
      5         16           0        1.256328   -1.487012    0.000011
      6         16           0       -0.816962   -1.916441   -0.000006
      7          6           0       -1.314904   -0.238098   -0.000002
      8          6           0       -2.505698    0.424464   -0.000010
      9          6           0        2.231982    1.048775    0.000005
     10          7           0        3.202285    1.691713   -0.000023
     11          1           0       -2.942369    2.632197    0.000016
     12          1           0       -0.302567    3.000200    0.000031
     13          1           0       -3.500234    0.000105   -0.000033
 ---------------------------------------------------------------------

 SCF Done:  E(UB3LYP) =  -1119.83419880     A.U. after   24 cycles

 The electronic state is 2-A.
 Alpha  occ. eigenvalues --  -88.75222 -88.74993 -14.16414 -10.07693 -10.06802
 Alpha  occ. eigenvalues --  -10.05107 -10.03553 -10.01928 -10.01748 -10.01022
 Alpha  occ. eigenvalues --   -7.83737  -7.83503  -5.80228  -5.79983  -5.79727
 Alpha  occ. eigenvalues --   -5.79500  -5.79088  -5.78859  -0.76991  -0.74683
 Alpha  occ. eigenvalues --   -0.68764  -0.63843  -0.56732  -0.54137  -0.49037
 Alpha  occ. eigenvalues --   -0.42473  -0.39286  -0.36796  -0.29112  -0.27519
 Alpha  occ. eigenvalues --   -0.27464  -0.25913  -0.24407  -0.22829  -0.22508
 Alpha  occ. eigenvalues --   -0.22419  -0.19966  -0.19006  -0.18919  -0.14968
 Alpha  occ. eigenvalues --   -0.09544  -0.05903   0.00830
 Alpha virt. eigenvalues --    0.06494   0.09698   0.10883   0.11309   0.12035
 Alpha virt. eigenvalues --    0.13638   0.14379   0.14735   0.15740   0.15882
 Alpha virt. eigenvalues --    0.16590   0.16848   0.17645   0.18397   0.19530

  Beta  occ. eigenvalues --  -88.75174 -88.74956 -14.16042 -10.07167 -10.06864
  Beta  occ. eigenvalues --  -10.04892 -10.03438 -10.01744 -10.01703 -10.00991
  Beta  occ. eigenvalues --   -7.83694  -7.83471  -5.80207  -5.79966  -5.79717
  Beta  occ. eigenvalues --   -5.79487  -5.78921  -5.78736  -0.76422  -0.74206
  Beta  occ. eigenvalues --   -0.68357  -0.63208  -0.56297  -0.53836  -0.48357
  Beta  occ. eigenvalues --   -0.42086  -0.39026  -0.36623  -0.28784  -0.27224
  Beta  occ. eigenvalues --   -0.25963  -0.25724  -0.24258  -0.22335  -0.22231
  Beta  occ. eigenvalues --   -0.20989  -0.19783  -0.18679  -0.18120  -0.13501
  Beta  occ. eigenvalues --   -0.07674  -0.05168
  Beta virt. eigenvalues --    0.06598   0.07043   0.09684   0.10964   0.11351
  Beta virt. eigenvalues --    0.12077   0.13651   0.14434   0.14845   0.15755
  Beta virt. eigenvalues --    0.15910   0.16935   0.17058   0.18027   0.18830

 Mulliken charges and spin densities:
               1          2
     1  C   -0.019381   0.179035
     2  C   -1.869115  -0.038139
     3  C   -0.389767   0.051794
     4  C    3.070253   0.455455
     5  S   -0.533084   0.073715
     6  S   -0.865231   0.049348
     7  C   -0.117372   0.065737
     8  C    0.661289   0.077319
     9  C   -0.948502  -0.090769
    10  N   -0.293207   0.196372
    11  H    0.098202  -0.013776
    12  H    0.089545  -0.003948
    13  H    0.116369  -0.002143
 Sum of Mulliken charges =  -1.00000   1.00000

 Dipole moment (field-independent basis, Debye):
    X=             -2.8020    Y=             -3.3025    Z=              0.0001  Tot=              4.3310
 Quadrupole moment (field-independent basis, Debye-Ang):
   XX=           -104.3576   YY=            -89.2317   ZZ=            -81.4729
   XY=             -7.3654   XZ=              0.0002   YZ=              0.0002

 Summary of Natural Population Analysis:

                                       Natural Population
                Natural  -----------------------------------------------
    Atom  No    Charge         Core      Valence    Rydberg      Total
 -----------------------------------------------------------------------
      C    1   -0.05274      0.99959     2.04341    0.00975     3.05274
      C    2   -0.14502      0.99951     2.13654    0.00897     3.14502
      C    3   -0.01960      0.99943     2.00857    0.01159     3.01960
      C    4   -0.03742      0.99926     2.02312    0.01505     3.03742
      S    5    0.11163      4.99955     2.86906    0.01976     7.88837
      S    6    0.09698      4.99947     2.88179    0.02176     7.90302
      C    7   -0.06477      0.99935     2.05502    0.01040     3.06477
      C    8   -0.15861      0.99947     2.14806    0.01109     3.15861
      C    9    0.12510      0.99962     1.85777    0.01752     2.87490
      N   10   -0.13368      0.99979     2.62298    0.01091     3.63368
      H   11    0.08558      0.00000     0.41345    0.00097     0.41442
      H   12    0.09896      0.00000     0.40008    0.00096     0.40104
      H   13    0.09361      0.00000     0.40540    0.00100     0.40639
 =======================================================================
   * Total *   -0.00000     17.99505    23.86525    0.13971    42.00000

 Normal termination of Gaussian 16 at Tue Dec  8 10:26:29 2020.
