 Gaussian 16, Revision A.03,

 -----------------------------------------------------------
 # opt freq B3LYP/6-31G(d) empiricaldispersion=gd3bj scf=xqc
 -----------------------------------------------------------

 --------------------------------
 CID_106400554_JID_10335_neutraal
 --------------------------------
 Symbolic Z-matrix:
 Charge =  0 Multiplicity = 1

 SCF Done:  E(RB3LYP) =  -1036.28415390     A.U. after   16 cycles
 SCF Done:  E(RB3LYP) =  -1036.29256862     A.U. after   14 cycles
 SCF Done:  E(RB3LYP) =  -1036.29038619     A.U. after   15 cycles
 SCF Done:  E(RB3LYP) =  -1036.29410182     A.U. after   14 cycles
 SCF Done:  E(RB3LYP) =  -1036.29478181     A.U. after   15 cycles
 SCF Done:  E(RB3LYP) =  -1036.29757841     A.U. after   15 cycles
 SCF Done:  E(RB3LYP) =  -1036.29911221     A.U. after   15 cycles
 SCF Done:  E(RB3LYP) =  -1036.30059835     A.U. after   13 cycles
 SCF Done:  E(RB3LYP) =  -1036.30159075     A.U. after   14 cycles
 SCF Done:  E(RB3LYP) =  -1036.30238836     A.U. after   13 cycles
 SCF Done:  E(RB3LYP) =  -1036.30286373     A.U. after    9 cycles
 SCF Done:  E(RB3LYP) =  -1036.30286477     A.U. after    9 cycles
 SCF Done:  E(RB3LYP) =  -1036.30286603     A.U. after    9 cycles
 SCF Done:  E(RB3LYP) =  -1036.30286681     A.U. after    9 cycles
 SCF Done:  E(RB3LYP) =  -1036.30286694     A.U. after    8 cycles
 Optimization completed.
    -- Stationary point found.
 Normal termination of Gaussian 16 at Mon Dec 14 17:46:28 2020.

 --------------------------------------------------------------------
 #N Geom=AllCheck Guess=TCheck SCRF=Check GenChk RB3LYP/6-31G(d) Freq
 --------------------------------------------------------------------

 Structure from the checkpoint file:  "JID_10335.chk"
 --------------------------------
 CID_106400554_JID_10335_neutraal
 --------------------------------
 Charge =  0 Multiplicity = 1

 SCF Done:  E(RB3LYP) =  -1036.30286694     A.U. after    1 cycles

  Exact polarizability: 246.685 -13.158 156.408 -15.132 -11.676  80.769
 Approx polarizability: 343.100 -17.455 291.411 -43.347 -33.137 139.967

                      1                      2                      3
                      A                      A                      A
 Frequencies --     21.5634                35.7699                45.9341
 Red. masses --      6.3712                 6.7270                 7.3298
 Frc consts  --      0.0017                 0.0051                 0.0091
 IR Inten    --      0.1894                 0.7068                 0.2393

                      4                      5                      6
                      A                      A                      A
 Frequencies --     56.9024                70.3620                77.4545
 Red. masses --      9.0476                 1.5636                 2.4257
 Frc consts  --      0.0173                 0.0046                 0.0086
 IR Inten    --      0.2750                 0.7823                 0.3698

                      7                      8                      9
                      A                      A                      A
 Frequencies --     95.7081               143.0124               144.6792
 Red. masses --      7.0347                 6.0576                 6.0552
 Frc consts  --      0.0380                 0.0730                 0.0747
 IR Inten    --      1.9650                 0.5778                 3.5753

                     10                     11                     12
                      A                      A                      A
 Frequencies --    161.2834               187.0798               210.5769
 Red. masses --      7.9724                 7.9969                 2.6532
 Frc consts  --      0.1222                 0.1649                 0.0693
 IR Inten    --      6.0331                 0.8155                14.0050

                     13                     14                     15
                      A                      A                      A
 Frequencies --    236.2050               268.7007               303.1358
 Red. masses --      6.8180                 6.2614                 7.6353
 Frc consts  --      0.2241                 0.2664                 0.4134
 IR Inten    --      2.8435                 4.7528                 8.7552

                     16                     17                     18
                      A                      A                      A
 Frequencies --    325.9662               345.5022               364.5672
 Red. masses --      3.9164                 5.2948                 8.5752
 Frc consts  --      0.2452                 0.3724                 0.6715
 IR Inten    --      1.4941                 5.7358                 0.7921

                     19                     20                     21
                      A                      A                      A
 Frequencies --    427.3155               438.5470               478.7922
 Red. masses --      4.8776                 5.0018                 4.5804
 Frc consts  --      0.5248                 0.5668                 0.6187
 IR Inten    --      4.3106                 2.5319                 7.4443

                     22                     23                     24
                      A                      A                      A
 Frequencies --    520.1333               531.7484               591.5410
 Red. masses --      6.0576                 3.5741                 4.0003
 Frc consts  --      0.9656                 0.5954                 0.8247
 IR Inten    --     13.4859                 1.3958                25.4216

                     25                     26                     27
                      A                      A                      A
 Frequencies --    609.5646               650.0448               651.7848
 Red. masses --      1.3647                 4.7473                 5.4954
 Frc consts  --      0.2988                 1.1819                 1.3755
 IR Inten    --     57.8878                13.6073                 9.9118

                     28                     29                     30
                      A                      A                      A
 Frequencies --    661.9635               669.6765               701.1247
 Red. masses --      2.2553                 2.6853                 3.8476
 Frc consts  --      0.5823                 0.7095                 1.1144
 IR Inten    --     60.5238                69.2739                18.4563

                     31                     32                     33
                      A                      A                      A
 Frequencies --    708.5217               737.7351               759.0894
 Red. masses --      4.3708                 6.8418                 7.1668
 Frc consts  --      1.2927                 2.1939                 2.4331
 IR Inten    --     15.1143                 8.3180                23.4632

                     34                     35                     36
                      A                      A                      A
 Frequencies --    780.8029               797.2295               811.9863
 Red. masses --      6.1292                 7.0648                 7.6253
 Frc consts  --      2.2016                 2.6455                 2.9621
 IR Inten    --     11.8226                42.0692                24.6897

                     37                     38                     39
                      A                      A                      A
 Frequencies --    862.9894               942.0985               973.5294
 Red. masses --      5.7347                 6.5166                 6.6509
 Frc consts  --      2.5164                 3.4077                 3.7139
 IR Inten    --     11.0777                18.6661                 7.7050

                     40                     41                     42
                      A                      A                      A
 Frequencies --    984.4011               988.5600              1001.2657
 Red. masses --      1.5015                 1.3739                 2.8402
 Frc consts  --      0.8573                 0.7911                 1.6776
 IR Inten    --      9.7207                 0.7213                 6.5380

                     43                     44                     45
                      A                      A                      A
 Frequencies --   1032.4396              1047.9889              1078.9609
 Red. masses --      1.8912                 4.4808                 5.1924
 Frc consts  --      1.1877                 2.8995                 3.5615
 IR Inten    --      5.4070                 1.5914                 5.5654

                     46                     47                     48
                      A                      A                      A
 Frequencies --   1083.3245              1085.8155              1148.8662
 Red. masses --      1.5701                 3.6127                 3.9578
 Frc consts  --      1.0857                 2.5095                 3.0778
 IR Inten    --      4.5491               100.1913                42.3049

                     49                     50                     51
                      A                      A                      A
 Frequencies --   1166.7385              1200.1728              1254.1469
 Red. masses --      2.5768                 2.7878                 1.1981
 Frc consts  --      2.0667                 2.3659                 1.1103
 IR Inten    --    161.4763               197.7570                 8.6107

                     52                     53                     54
                      A                      A                      A
 Frequencies --   1262.2189              1294.2084              1313.6674
 Red. masses --      1.5084                 2.4824                 2.4651
 Frc consts  --      1.4159                 2.4498                 2.5064
 IR Inten    --     22.3759                65.8656                11.2889

                     55                     56                     57
                      A                      A                      A
 Frequencies --   1336.7894              1386.7364              1405.4912
 Red. masses --      2.5922                 7.0773                 3.0831
 Frc consts  --      2.7292                 8.0187                 3.5883
 IR Inten    --    117.9640               595.6384               161.9482

                     58                     59                     60
                      A                      A                      A
 Frequencies --   1419.3564              1431.9336              1438.9548
 Red. masses --      3.6498                 2.0051                 1.5588
 Frc consts  --      4.3321                 2.4223                 1.9016
 IR Inten    --     90.1057                54.3185                31.4898

                     61                     62                     63
                      A                      A                      A
 Frequencies --   1460.9433              1494.3763              1503.4055
 Red. masses --      3.8018                 2.5309                 1.0595
 Frc consts  --      4.7809                 3.3300                 1.4109
 IR Inten    --     30.7892               128.3535                11.4661

                     64                     65                     66
                      A                      A                      A
 Frequencies --   1503.4693              1518.8985              1568.2486
 Red. masses --      1.0846                 1.2254                 5.3400
 Frc consts  --      1.4445                 1.6657                 7.7378
 IR Inten    --     13.1075                20.8204               161.9556

                     67                     68                     69
                      A                      A                      A
 Frequencies --   1592.4231              1609.1057              1639.4691
 Red. masses --      9.3258                 2.8120                 7.8763
 Frc consts  --     13.9333                 4.2897                12.4733
 IR Inten    --    129.1169               157.3752               330.9741

                     70                     71                     72
                      A                      A                      A
 Frequencies --   1646.2237              1661.2584              1808.5098
 Red. masses --      8.3642                 7.6787                 9.6296
 Frc consts  --     13.3553                12.4857                18.5567
 IR Inten    --     49.2249               341.7549               401.0576

                     73                     74                     75
                      A                      A                      A
 Frequencies --   3051.4755              3072.3749              3112.6003
 Red. masses --      1.0700                 1.0376                 1.0918
 Frc consts  --      5.8701                 5.7706                 6.2319
 IR Inten    --     14.9947                 4.3609                10.1115

                     76                     77                     78
                      A                      A                      A
 Frequencies --   3131.7413              3181.5033              3225.5940
 Red. masses --      1.1014                 1.1018                 1.0919
 Frc consts  --      6.3644                 6.5706                 6.6932
 IR Inten    --      3.1518                 1.5843                 0.2776

                     79                     80                     81
                      A                      A                      A
 Frequencies --   3268.6578              3557.2119              3698.4285
 Red. masses --      1.0913                 1.0759                 1.0643
 Frc consts  --      6.8697                 8.0212                 8.5769
 IR Inten    --      7.2727               145.1244                86.4860

 - Thermochemistry -
 -------------------
 Temperature   298.150 Kelvin.  Pressure   1.00000 Atm.
 Atom     1 has atomic number  6 and mass  12.00000

 Molecular mass:   279.06037 amu.
 Principal axes and moments of inertia in atomic units:
                           1         2         3
     Eigenvalues --  2453.33150********************
           X            0.99998   0.00209   0.00521
           Y           -0.00205   0.99998  -0.00666
           Z           -0.00522   0.00665   0.99996
 This molecule is an asymmetric top.
 Rotational symmetry number  1.
 Warning -- assumption of classical behavior for rotation
           may cause significant error
 Rotational temperatures (Kelvin)      0.03530     0.00701     0.00610
 Rotational constants (GHZ):           0.73563     0.14597     0.12718
 Zero-point vibrational energy     544711.1 (Joules/Mol)
                                  130.18907 (Kcal/Mol)
 Warning -- explicit consideration of  25 degrees of freedom as
           vibrations may cause significant error
 Vibrational temperatures:     31.02    51.46    66.09    81.87   101.24
          (Kelvin)            111.44   137.70   205.76   208.16   232.05
                              269.17   302.97   339.85   386.60   436.14
                              468.99   497.10   524.53   614.81   630.97
                              688.88   748.36   765.07   851.10   877.03
                              935.27   937.77   952.42   963.52  1008.76
                             1019.40  1061.44  1092.16  1123.40  1147.04
                             1168.27  1241.65  1355.47  1400.69  1416.33
                             1422.32  1440.60  1485.45  1507.82  1552.38
                             1558.66  1562.25  1652.96  1678.68  1726.78
                             1804.44  1816.05  1862.08  1890.07  1923.34
                             1995.20  2022.19  2042.14  2060.23  2070.34
                             2101.97  2150.07  2163.07  2163.16  2185.36
                             2256.36  2291.14  2315.14  2358.83  2368.55
                             2390.18  2602.04  4390.39  4420.46  4478.34
                             4505.88  4577.47  4640.91  4702.87  5118.03
                             5321.21

 Zero-point correction=                           0.207469 (Hartree/Particle)
 Thermal correction to Energy=                    0.224883
 Thermal correction to Enthalpy=                  0.225827
 Thermal correction to Gibbs Free Energy=         0.159179
 Sum of electronic and zero-point Energies=          -1036.095397
 Sum of electronic and thermal Energies=             -1036.077984
 Sum of electronic and thermal Enthalpies=           -1036.077040
 Sum of electronic and thermal Free Energies=        -1036.143688

                     E (Thermal)             CV                S
                      KCal/Mol        Cal/Mol-Kelvin    Cal/Mol-Kelvin
 Total                  141.116             63.129            140.272
 Electronic               0.000              0.000              0.000
 Translational            0.889              2.981             42.777
 Rotational               0.889              2.981             34.420
 Vibrational            139.339             57.167             63.076
 Vibration     1          0.593              1.985              6.485
 Vibration     2          0.594              1.982              5.481
 Vibration     3          0.595              1.979              4.985
 Vibration     4          0.596              1.975              4.562
 Vibration     5          0.598              1.968              4.143
 Vibration     6          0.599              1.964              3.954
 Vibration     7          0.603              1.952              3.540
 Vibration     8          0.616              1.910              2.763
 Vibration     9          0.616              1.908              2.741
 Vibration    10          0.622              1.890              2.535
 Vibration    11          0.632              1.858              2.257
 Vibration    12          0.643              1.825              2.039
 Vibration    13          0.655              1.785              1.831
 Vibration    14          0.673              1.731              1.605
 Vibration    15          0.695              1.668              1.400
 Vibration    16          0.710              1.624              1.280
 Vibration    17          0.724              1.584              1.187
 Vibration    18          0.738              1.545              1.103
 Vibration    19          0.789              1.411              0.867
 Vibration    20          0.799              1.386              0.831
 Vibration    21          0.835              1.297              0.713
 Vibration    22          0.875              1.205              0.610
 Vibration    23          0.887              1.180              0.583
 Vibration    24          0.949              1.050              0.464
 Vibration    25          0.969              1.012              0.433

 Optimization completed.
    -- Stationary point found.
 Normal termination of Gaussian 16 at Mon Dec 14 17:58:44 2020.

 ----------------------------------------------------------------------
 # B3LYP/6-311++G(d,p) empiricaldispersion=gd3bj scf=xqc pop=npa geom=c
 heck
 ----------------------------------------------------------------------

 ----------------------------------------
 CID_106400554_JID_10335_Energie_neutraal
 ----------------------------------------
 Structure from the checkpoint file:  "JID_10335.chk"
 Charge =  0 Multiplicity = 1

 SCF Done:  E(RB3LYP) =  -1036.60121640     A.U. after   17 cycles
 Normal termination of Gaussian 16 at Mon Dec 14 18:04:05 2020.

 ----------------------------------------------------------------------
 # B3LYP/6-311++G(d,p) empiricaldispersion=gd3bj scf=xqc pop=npa geom=c
 heck
 ----------------------------------------------------------------------

 --------------------------------------
 CID_106400554_JID_10335_Energie_kation
 --------------------------------------
 Structure from the checkpoint file:  "JID_10335.chk"
 Charge =  1 Multiplicity = 2

 SCF Done:  E(UB3LYP) =  -1036.28005487     A.U. after   29 cycles
 Normal termination of Gaussian 16 at Mon Dec 14 18:16:10 2020.
 Gaussian 16:  ES64L-G16RevA.03 25-Dec-2016

 ----------------------------------------------------------------------
 # B3LYP/6-311++G(d,p) empiricaldispersion=gd3bj scf=xqc pop=npa geom=c
 heck
 ----------------------------------------------------------------------

 -------------------------------------
 CID_106400554_JID_10335_Energie_anion
 -------------------------------------
 Structure from the checkpoint file:  "JID_10335.chk"
 Charge = -1 Multiplicity = 2

                         Standard orientation:
 ---------------------------------------------------------------------
 Center     Atomic      Atomic             Coordinates (Angstroms)
 Number     Number       Type             X           Y           Z
 ---------------------------------------------------------------------
      1          6           0       -6.433029   -0.319761   -0.861042
      2          6           0       -5.010318   -0.380031   -0.437718
      3          7           0       -4.109036    0.560823   -0.469252
      4          6           0       -2.999384   -0.078830    0.037933
      5          7           0       -3.188352   -1.330158    0.366003
      6          8           0       -4.541139   -1.544569    0.051381
      7          6           0       -1.688721    0.619635    0.217384
      8          7           0       -0.707682   -0.294479    0.771467
      9          6           0        0.628867   -0.292133    0.567361
     10          6           0        1.408741    0.835495    0.152210
     11          6           0        2.730629    0.595363   -0.225171
     12          6           0        3.258057   -0.679764   -0.094291
     13          6           0        2.465945   -1.693671    0.462520
     14          7           0        1.196819   -1.509619    0.770671
     15          7           0        4.633761   -0.947004   -0.469418
     16          8           0        5.056843   -2.093579   -0.303460
     17          8           0        5.294351   -0.014664   -0.932508
     18          6           0        0.948492    2.234447    0.273408
     19          8           0        0.062716    2.631767    1.007645
     20          8           0        1.674640    3.086643   -0.493950
     21          1           0       -6.628556   -1.046408   -1.656448
     22          1           0       -7.094126   -0.557591   -0.021306
     23          1           0       -6.655419    0.684106   -1.224555
     24          1           0       -1.354343    0.996964   -0.757879
     25          1           0       -1.826435    1.498679    0.853467
     26          1           0       -1.055702   -1.210782    1.037145
     27          1           0        3.356885    1.403591   -0.578846
     28          1           0        2.891405   -2.675067    0.647157
     29          1           0        1.352763    3.980282   -0.273465
 ---------------------------------------------------------------------

 SCF Done:  E(UB3LYP) =  -1036.64034490     A.U. after   33 cycles
 SCF Done:  E(UB3LYP) =  -1036.64034490     a.u. after    1 cycles

 The electronic state is 2-A.
 Alpha  occ. eigenvalues --  -19.15111 -19.07110 -19.00920 -18.95325 -18.95096
 Alpha  occ. eigenvalues --  -14.33090 -14.29329 -14.25542 -14.22948 -14.18906
 Alpha  occ. eigenvalues --  -10.21725 -10.20247 -10.17147 -10.14097 -10.13633
 Alpha  occ. eigenvalues --  -10.13207 -10.09302 -10.07391 -10.06926 -10.04905
 Alpha  occ. eigenvalues --   -1.09942  -1.03226  -1.01047  -0.91870  -0.88076
 Alpha  occ. eigenvalues --   -0.86792  -0.86058  -0.82035  -0.79541  -0.70099
 Alpha  occ. eigenvalues --   -0.69718  -0.67434  -0.64020  -0.56514  -0.55945
 Alpha  occ. eigenvalues --   -0.54732  -0.52540  -0.51249  -0.45844  -0.45162
 Alpha  occ. eigenvalues --   -0.43963  -0.42604  -0.40463  -0.39598  -0.38473
 Alpha  occ. eigenvalues --   -0.37795  -0.37750  -0.36887  -0.36318  -0.35987
 Alpha  occ. eigenvalues --   -0.35575  -0.35471  -0.34229  -0.32739  -0.31871
 Alpha  occ. eigenvalues --   -0.30784  -0.29422  -0.28584  -0.27623  -0.27082
 Alpha  occ. eigenvalues --   -0.26100  -0.23484  -0.22724  -0.22012  -0.20086
 Alpha  occ. eigenvalues --   -0.18819  -0.17364  -0.15715  -0.14147  -0.12738
 Alpha  occ. eigenvalues --   -0.11039  -0.10935   0.02270
 Alpha virt. eigenvalues --    0.03384   0.04163   0.05821   0.07419   0.08002
 Alpha virt. eigenvalues --    0.08432   0.08788   0.10195   0.10835   0.11183
 Alpha virt. eigenvalues --    0.11316   0.11644   0.12906   0.13069   0.13323

  Beta  occ. eigenvalues --  -19.15076 -19.07113 -19.00911 -18.94946 -18.94577
  Beta  occ. eigenvalues --  -14.32472 -14.29267 -14.25547 -14.22892 -14.18943
  Beta  occ. eigenvalues --  -10.21686 -10.20211 -10.17136 -10.14100 -10.13449
  Beta  occ. eigenvalues --  -10.13208 -10.09294 -10.07472 -10.06915 -10.04497
  Beta  occ. eigenvalues --   -1.09879  -1.02219  -1.01032  -0.91859  -0.88014
  Beta  occ. eigenvalues --   -0.86687  -0.85210  -0.81964  -0.79461  -0.69744
  Beta  occ. eigenvalues --   -0.69659  -0.67260  -0.63781  -0.56369  -0.55905
  Beta  occ. eigenvalues --   -0.54092  -0.52239  -0.51063  -0.45599  -0.45038
  Beta  occ. eigenvalues --   -0.43821  -0.42450  -0.40369  -0.39439  -0.38319
  Beta  occ. eigenvalues --   -0.37727  -0.37569  -0.36701  -0.36134  -0.35629
  Beta  occ. eigenvalues --   -0.35443  -0.34071  -0.32944  -0.32613  -0.31369
  Beta  occ. eigenvalues --   -0.30674  -0.28995  -0.28327  -0.27507  -0.26937
  Beta  occ. eigenvalues --   -0.25970  -0.23452  -0.22688  -0.21733  -0.19362
  Beta  occ. eigenvalues --   -0.18786  -0.16582  -0.15622  -0.12364  -0.11097
  Beta  occ. eigenvalues --   -0.10570  -0.10276
  Beta virt. eigenvalues --    0.03863   0.04142   0.06516   0.07386   0.08026
  Beta virt. eigenvalues --    0.08397   0.08736   0.09063   0.10398   0.10966
  Beta virt. eigenvalues --    0.11267   0.11665   0.12486   0.12919   0.13101

 Mulliken charges and spin densities:
               1          2
     1  C   -0.506042  -0.012194
     2  C    0.038888   0.029343
     3  N   -0.048334  -0.004571
     4  C   -0.105408   0.012036
     5  N   -0.462435   0.026815
     6  O    0.244505   0.006616
     7  C   -0.286996  -0.022121
     8  N   -0.018215   0.017489
     9  C   -1.693941   0.072680
    10  C    0.821393  -0.105659
    11  C    0.521499   0.438365
    12  C   -0.926786  -0.084228
    13  C    0.323440   0.024820
    14  N   -0.133578  -0.015032
    15  N   -0.250940   0.199210
    16  O   -0.199978   0.193668
    17  O   -0.176921   0.153549
    18  C    0.189495   0.054498
    19  O   -0.318413   0.002321
    20  O   -0.136257  -0.001185
    21  H    0.172112  -0.000268
    22  H    0.158474   0.012602
    23  H    0.175962   0.000668
    24  H    0.219199   0.015797
    25  H    0.258253   0.004129
    26  H    0.332261   0.000553
    27  H    0.287668  -0.021504
    28  H    0.257843   0.000474
    29  H    0.263251   0.001129
 Sum of Mulliken charges =  -1.00000   1.00000

 Dipole moment (field-independent basis, Debye):
    X=            -17.3160    Y=              3.7135    Z=             -0.2648  Tot=             17.7117
 Quadrupole moment (field-independent basis, Debye-Ang):
   XX=           -200.8545   YY=           -133.2792   ZZ=           -123.2704
   XY=             18.0848   XZ=             16.9248   YZ=             -1.0519

 Summary of Natural Population Analysis:

                                       Natural Population
                Natural  -----------------------------------------------
    Atom  No    Charge         Core      Valence    Rydberg      Total
 -----------------------------------------------------------------------
      C    1   -0.31625      0.99962     2.31233    0.00430     3.31625
      C    2    0.28590      0.99966     1.69573    0.01872     2.71410
      N    3   -0.26556      0.99967     2.75677    0.00913     3.76556
      C    4    0.17921      0.99966     1.80350    0.01763     2.82079
      N    5   -0.08768      0.99965     2.57605    0.01198     3.58768
      O    6   -0.17114      0.99985     3.16112    0.01017     4.17114
      C    7   -0.10411      0.99951     2.09481    0.00980     3.10411
      N    8   -0.29438      0.99965     2.78445    0.01028     3.79438
      C    9    0.25666      0.99953     1.72984    0.01398     2.74334
      C   10   -0.15124      0.99942     2.14158    0.01024     3.15124
      C   11    0.02611      0.99952     1.96456    0.00981     2.97389
      C   12    0.00069      0.99940     1.98890    0.01101     2.99931
      C   13    0.05541      0.99957     1.92999    0.01504     2.94459
      N   14   -0.27630      0.99967     2.76495    0.01167     3.77630
      N   15    0.30373      0.99972     2.16931    0.02725     3.19627
      O   16   -0.18953      0.99990     3.18187    0.00776     4.18953
      O   17   -0.20507      0.99990     3.19731    0.00786     4.20507
      C   18    0.39783      0.99965     1.57779    0.02473     2.60217
      O   19   -0.33057      0.99987     3.32242    0.00828     4.33057
      O   20   -0.34537      0.99988     3.33964    0.00586     4.34537
      H   21    0.11298      0.00000     0.38613    0.00089     0.38702
      H   22    0.11282      0.00000     0.38628    0.00090     0.38718
      H   23    0.11566      0.00000     0.38351    0.00083     0.38434
      H   24    0.10772      0.00000     0.39058    0.00170     0.39228
      H   25    0.12175      0.00000     0.37670    0.00154     0.37825
      H   26    0.20265      0.00000     0.29479    0.00256     0.29735
      H   27    0.11950      0.00000     0.37913    0.00137     0.38050
      H   28    0.10349      0.00000     0.39502    0.00149     0.39651
      H   29    0.23512      0.00000     0.26204    0.00284     0.26488
 =======================================================================
   * Total *    0.00000     19.99329    51.74708    0.25962    72.00000

 Normal termination of Gaussian 16 at Mon Dec 14 18:29:41 2020.
