 Gaussian 16, Revision A.03,

 -----------------------------------------------------------
 # opt freq B3LYP/6-31G(d) empiricaldispersion=gd3bj scf=xqc
 -----------------------------------------------------------

 -------------------------------
 CID_144024725_JID_2811_neutraal
 -------------------------------
 Symbolic Z-matrix:
 Charge =  0 Multiplicity = 1

 SCF Done:  E(RB3LYP) =  -517.496548004     A.U. after   14 cycles
 SCF Done:  E(RB3LYP) =  -517.501375558     A.U. after   12 cycles
 SCF Done:  E(RB3LYP) =  -517.502298986     A.U. after   11 cycles
 SCF Done:  E(RB3LYP) =  -517.502620688     A.U. after   10 cycles
 SCF Done:  E(RB3LYP) =  -517.502775980     A.U. after   10 cycles
 SCF Done:  E(RB3LYP) =  -517.502910637     A.U. after   10 cycles
 SCF Done:  E(RB3LYP) =  -517.502966984     A.U. after   10 cycles
 SCF Done:  E(RB3LYP) =  -517.503016030     A.U. after   10 cycles
 SCF Done:  E(RB3LYP) =  -517.503073250     A.U. after   10 cycles
 SCF Done:  E(RB3LYP) =  -517.503098038     A.U. after    9 cycles
 SCF Done:  E(RB3LYP) =  -517.503552307     A.U. after   10 cycles
 SCF Done:  E(RB3LYP) =  -517.503553371     A.U. after    9 cycles
 SCF Done:  E(RB3LYP) =  -517.503553443     A.U. after    8 cycles
 SCF Done:  E(RB3LYP) =  -517.503553471     A.U. after    7 cycles
 SCF Done:  E(RB3LYP) =  -517.503553477     A.U. after    7 cycles
 SCF Done:  E(RB3LYP) =  -517.503553455     A.U. after    6 cycles
 Optimization completed on the basis of negligible forces.
    -- Stationary point found.

 1\1\GINC-NODE118\FOpt\RB3LYP\6-31G(d)\C9H17N3\VSC10255\09-Dec-2020\0\\
 # opt freq B3LYP/6-31G(d) empiricaldispersion=gd3bj scf=xqc\\CID_14402
 4725_JID_2811_neutraal\\0,1\C,0.5231592071,-0.4021025458,-0.1605599257
 \C,0.8556545261,1.0147269583,-0.6314441151\C,4.4560390258,-0.244604517
 9,-2.8689395381\C,3.0545823779,-0.4337048446,-3.3365267206\C,2.2170136
 207,0.3305210534,-4.104722311\N,0.9765444007,-0.2711949872,-4.26493856
 5\C,1.0685979127,-1.3969467272,-3.5926233747\N,2.2935062682,-1.5615904
 555,-2.9989793374\C,2.7288855781,-2.7557353242,-2.2891872868\C,1.51320

 Normal termination of Gaussian 16 at Wed Dec  9 18:38:22 2020.

 --------------------------------------------------------------------
 #N Geom=AllCheck Guess=TCheck SCRF=Check GenChk RB3LYP/6-31G(d) Freq
 --------------------------------------------------------------------

 Structure from the checkpoint file:  "JID_2811.chk"
 -------------------------------
 CID_144024725_JID_2811_neutraal
 -------------------------------
 Charge =  0 Multiplicity = 1

 SCF Done:  E(RB3LYP) =  -517.503553455     A.U. after    1 cycles

  Exact polarizability: 124.307 -11.417  93.282  -2.204  -5.561 110.171
 Approx polarizability: 167.878 -18.498 129.719  -3.899 -11.396 176.841

                      1                      2                      3
                      A                      A                      A
 Frequencies --     27.5818                33.4519                55.4620
 Red. masses --      3.0445                 2.2528                 3.4077
 Frc consts  --      0.0014                 0.0015                 0.0062
 IR Inten    --      0.5583                 0.4782                 1.5949

                      4                      5                      6
                      A                      A                      A
 Frequencies --     89.4323                90.4109               110.4418
 Red. masses --      1.7830                 3.5961                 1.3440
 Frc consts  --      0.0084                 0.0173                 0.0097
 IR Inten    --      0.6537                 0.2580                 0.0443

                      7                      8                      9
                      A                      A                      A
 Frequencies --    113.9835               138.9465               176.3949
 Red. masses --      2.2875                 2.2955                 1.2281
 Frc consts  --      0.0175                 0.0261                 0.0225
 IR Inten    --      1.3681                 0.3276                 0.1165

                     10                     11                     12
                      A                      A                      A
 Frequencies --    224.9849               232.6124               297.6312
 Red. masses --      3.4559                 2.8090                 2.1024
 Frc consts  --      0.1031                 0.0896                 0.1097
 IR Inten    --      3.1405                 0.9018                 3.4918

                     13                     14                     15
                      A                      A                      A
 Frequencies --    333.8378               364.2533               449.6605
 Red. masses --      1.0146                 3.1223                 3.1647
 Frc consts  --      0.0666                 0.2441                 0.3770
 IR Inten    --      0.3596                 1.1674                 4.2809

                     16                     17                     18
                      A                      A                      A
 Frequencies --    460.7072               538.5620               586.3313
 Red. masses --      3.6254                 2.5790                 2.3493
 Frc consts  --      0.4534                 0.4407                 0.4759
 IR Inten    --     14.7953                 5.9755                65.3168

                     19                     20                     21
                      A                      A                      A
 Frequencies --    619.8090               677.6014               722.2217
 Red. masses --      3.8754                 2.5009                 8.6410
 Frc consts  --      0.8772                 0.6765                 2.6556
 IR Inten    --      2.2972                28.5813                29.2832

                     22                     23                     24
                      A                      A                      A
 Frequencies --    727.9299               786.3920               812.1230
 Red. masses --      3.3534                 2.4071                 1.2864
 Frc consts  --      1.0469                 0.8770                 0.4999
 IR Inten    --      2.6384                21.3334                15.2539

                     25                     26                     27
                      A                      A                      A
 Frequencies --    838.6234               845.3575               890.3876
 Red. masses --      1.0570                 1.0572                 2.3718
 Frc consts  --      0.4380                 0.4451                 1.1079
 IR Inten    --      6.8628                 6.9090                 0.7354

                     28                     29                     30
                      A                      A                      A
 Frequencies --    913.4178               961.1631              1005.8473
 Red. masses --      1.4253                 2.7126                 1.8538
 Frc consts  --      0.7006                 1.4765                 1.1051
 IR Inten    --      6.5615                10.1407                 6.2136

                     31                     32                     33
                      A                      A                      A
 Frequencies --   1013.9403              1024.9299              1079.5984
 Red. masses --      3.2878                 1.7007                 1.4149
 Frc consts  --      1.9915                 1.0526                 0.9716
 IR Inten    --      0.1576                 1.8551                 1.0166

                     34                     35                     36
                      A                      A                      A
 Frequencies --   1093.4519              1122.2057              1153.0108
 Red. masses --      3.0174                 2.1136                 2.0903
 Frc consts  --      2.1256                 1.5682                 1.6373
 IR Inten    --      6.0277                 8.4994                10.1742

                     37                     38                     39
                      A                      A                      A
 Frequencies --   1176.5692              1231.5399              1237.7553
 Red. masses --      2.0367                 1.6510                 1.3095
 Frc consts  --      1.6612                 1.4753                 1.1820
 IR Inten    --     21.3365                 4.0477                 2.4301

                     40                     41                     42
                      A                      A                      A
 Frequencies --   1239.9311              1242.8592              1266.3044
 Red. masses --      1.4004                 1.4022                 3.5770
 Frc consts  --      1.2685                 1.2761                 3.3794
 IR Inten    --      1.8151                 0.3145                 3.2173

                     43                     44                     45
                      A                      A                      A
 Frequencies --   1307.2173              1309.8408              1365.7210
 Red. masses --      1.9068                 1.2916                 2.0665
 Frc consts  --      1.9198                 1.3056                 2.2710
 IR Inten    --     36.5547                 1.3673                10.7506

                     46                     47                     48
                      A                      A                      A
 Frequencies --   1378.4708              1395.3420              1413.9874
 Red. masses --      2.0249                 1.4061                 1.7234
 Frc consts  --      2.2670                 1.6130                 2.0301
 IR Inten    --     17.1654                 8.8225                19.3505

                     49                     50                     51
                      A                      A                      A
 Frequencies --   1434.1917              1443.9947              1452.8041
 Red. masses --      1.1995                 1.4778                 1.3881
 Frc consts  --      1.4536                 1.8155                 1.7262
 IR Inten    --      1.2512                17.5219                15.9710

                     52                     53                     54
                      A                      A                      A
 Frequencies --   1456.3164              1507.1322              1508.8873
 Red. masses --      1.2659                 1.1451                 1.1070
 Frc consts  --      1.5819                 1.5325                 1.4850
 IR Inten    --      1.7914                13.6780                10.9966

                     55                     56                     57
                      A                      A                      A
 Frequencies --   1512.8356              1525.2348              1533.1596
 Red. masses --      1.3245                 1.1294                 1.0334
 Frc consts  --      1.7860                 1.5480                 1.4311
 IR Inten    --      6.0619                19.6048                 1.4151

                     58                     59                     60
                      A                      A                      A
 Frequencies --   1534.4706              1539.7158              1543.5522
 Red. masses --      1.0385                 1.0547                 1.0807
 Frc consts  --      1.4408                 1.4732                 1.5171
 IR Inten    --      1.6091                 5.2912                13.6414

                     61                     62                     63
                      A                      A                      A
 Frequencies --   1545.3731              1562.6692              1628.0430
 Red. masses --      1.1216                 1.6362                 5.2210
 Frc consts  --      1.5782                 2.3540                 8.1533
 IR Inten    --      6.6119                30.4398                39.4259

                     64                     65                     66
                      A                      A                      A
 Frequencies --   1641.6206              2969.4104              3021.1159
 Red. masses --      5.6547                 1.0736                 1.0414
 Frc consts  --      8.9785                 5.5773                 5.6000
 IR Inten    --    195.4981                84.5702                34.8358

                     67                     68                     69
                      A                      A                      A
 Frequencies --   3031.0528              3039.5825              3049.0352
 Red. masses --      1.0668                 1.0375                 1.0384
 Frc consts  --      5.7747                 5.6476                 5.6875
 IR Inten    --     56.2460                27.9808                38.4918

                     70                     71                     72
                      A                      A                      A
 Frequencies --   3061.3775              3078.9585              3088.2776
 Red. masses --      1.1013                 1.0697                 1.0891
 Frc consts  --      6.0812                 5.9749                 6.1197
 IR Inten    --     29.2330                 8.8138                39.2272

                     73                     74                     75
                      A                      A                      A
 Frequencies --   3090.0512              3103.9234              3105.9397
 Red. masses --      1.0997                 1.1001                 1.0894
 Frc consts  --      6.1867                 6.2444                 6.1918
 IR Inten    --     28.0320                25.6213                42.0681

                     76                     77                     78
                      A                      A                      A
 Frequencies --   3125.7880              3130.5067              3131.9836
 Red. masses --      1.1020                 1.1050                 1.0957
 Frc consts  --      6.3439                 6.3803                 6.3324
 IR Inten    --     36.3118                27.7341                13.6109

                     79                     80                     81
                      A                      A                      A
 Frequencies --   3139.0114              3252.0445              3580.0457
 Red. masses --      1.1013                 1.0966                 1.0755
 Frc consts  --      6.3937                 6.8327                 8.1217
 IR Inten    --     22.5150                12.9946                19.3381

 - Thermochemistry -
 -------------------
 Temperature   298.150 Kelvin.  Pressure   1.00000 Atm.
 Atom     1 has atomic number  6 and mass  12.00000

 Molecular mass:   167.14225 amu.
 Principal axes and moments of inertia in atomic units:
                           1         2         3
     Eigenvalues --  1859.949522231.772852649.31330
           X            0.99919   0.03939   0.00817
           Y           -0.03911   0.99870  -0.03277
           Z           -0.00945   0.03243   0.99943
 This molecule is an asymmetric top.
 Rotational symmetry number  1.
 Warning -- assumption of classical behavior for rotation
           may cause significant error
 Rotational temperatures (Kelvin)      0.04657     0.03881     0.03269
 Rotational constants (GHZ):           0.97032     0.80866     0.68121
 Zero-point vibrational energy     679157.9 (Joules/Mol)
                                  162.32264 (Kcal/Mol)
 Warning -- explicit consideration of  19 degrees of freedom as
           vibrations may cause significant error
 Vibrational temperatures:     39.68    48.13    79.80   128.67   130.08
          (Kelvin)            158.90   164.00   199.91   253.79   323.70
                              334.68   428.22   480.32   524.08   646.96
                              662.85   774.87   843.60   891.77   974.92
                             1039.12  1047.33  1131.44  1168.46  1206.59
                             1216.28  1281.07  1314.20  1382.90  1447.19
                             1458.83  1474.65  1553.30  1573.23  1614.60
                             1658.93  1692.82  1771.91  1780.85  1783.98
                             1788.20  1821.93  1880.79  1884.57  1964.97
                             1983.31  2007.59  2034.41  2063.48  2077.59
                             2090.26  2095.31  2168.43  2170.95  2176.63
                             2194.47  2205.87  2207.76  2215.31  2220.83
                             2223.45  2248.33  2342.39  2361.93  4272.32
                             4346.71  4361.01  4373.28  4386.88  4404.64
                             4429.93  4443.34  4445.89  4465.85  4468.75
                             4497.31  4504.10  4506.23  4516.34  4678.97
                             5150.89

 Zero-point correction=                           0.258678 (Hartree/Particle)
 Thermal correction to Energy=                    0.272679
 Thermal correction to Enthalpy=                  0.273624
 Thermal correction to Gibbs Free Energy=         0.216200
 Sum of electronic and zero-point Energies=           -517.244876
 Sum of electronic and thermal Energies=              -517.230874
 Sum of electronic and thermal Enthalpies=            -517.229930
 Sum of electronic and thermal Free Energies=         -517.287354

                     E (Thermal)             CV                S
                      KCal/Mol        Cal/Mol-Kelvin    Cal/Mol-Kelvin
 Total                  171.109             49.283            120.858
 Electronic               0.000              0.000              0.000
 Translational            0.889              2.981             41.249
 Rotational               0.889              2.981             30.776
 Vibrational            169.331             43.321             48.833
 Vibration     1          0.593              1.984              5.996
 Vibration     2          0.594              1.983              5.613
 Vibration     3          0.596              1.975              4.612
 Vibration     4          0.602              1.957              3.672
 Vibration     5          0.602              1.956              3.651
 Vibration     6          0.606              1.941              3.261
 Vibration     7          0.607              1.938              3.200
 Vibration     8          0.615              1.914              2.818
 Vibration     9          0.628              1.871              2.366
 Vibration    10          0.650              1.803              1.919
 Vibration    11          0.653              1.791              1.859
 Vibration    12          0.691              1.678              1.430
 Vibration    13          0.715              1.608              1.241
 Vibration    14          0.738              1.546              1.104
 Vibration    15          0.809              1.362              0.797
 Vibration    16          0.819              1.337              0.764
 Vibration    17          0.894              1.165              0.568
 Vibration    18          0.943              1.061              0.474
 Vibration    19          0.980              0.990              0.417

 Optimization completed on the basis of negligible forces.
    -- Stationary point found.

 1\1\GINC-NODE118\Freq\RB3LYP\6-31G(d)\C9H17N3\VSC10255\09-Dec-2020\0\\
 #N Geom=AllCheck Guess=TCheck SCRF=Check GenChk RB3LYP/6-31G(d) Freq\\
 CID_144024725_JID_2811_neutraal\\0,1\C,0.5231592071,-0.4021025458,-0.1
 605599257\C,0.8556545261,1.0147269583,-0.6314441151\C,4.4560390258,-0.
 2446045179,-2.8689395381\C,3.0545823779,-0.4337048446,-3.3365267206\C,
 2.2170136207,0.3305210534,-4.104722311\N,0.9765444007,-0.2711949872,-4
 .264938565\C,1.0685979127,-1.3969467272,-3.5926233747\N,2.2935062682,-
 1.5615904555,-2.9989793374\C,2.7288855781,-2.7557353242,-2.2891872868\

 Normal termination of Gaussian 16 at Wed Dec  9 18:46:04 2020.

 ----------------------------------------------------------------------
 # B3LYP/6-311++G(d,p) empiricaldispersion=gd3bj scf=xqc pop=npa geom=c
 heck
 ----------------------------------------------------------------------

 ---------------------------------------
 CID_144024725_JID_2811_Energie_neutraal
 ---------------------------------------
 Structure from the checkpoint file:  "JID_2811.chk"
 Charge =  0 Multiplicity = 1

 SCF Done:  E(RB3LYP) =  -517.648023734     A.U. after   14 cycles
 Normal termination of Gaussian 16 at Wed Dec  9 18:49:24 2020.

 ----------------------------------------------------------------------
 # B3LYP/6-311++G(d,p) empiricaldispersion=gd3bj scf=xqc pop=npa geom=c
 heck
 ----------------------------------------------------------------------

 -------------------------------------
 CID_144024725_JID_2811_Energie_kation
 -------------------------------------
 Structure from the checkpoint file:  "JID_2811.chk"
 Charge =  1 Multiplicity = 2

 SCF Done:  E(UB3LYP) =  -517.387766191     A.U. after   19 cycles
 Normal termination of Gaussian 16 at Wed Dec  9 18:55:47 2020.
 Gaussian 16:  ES64L-G16RevA.03 25-Dec-2016

 ------------------------------------
 CID_144024725_JID_2811_Energie_anion
 ------------------------------------
 Structure from the checkpoint file:  "JID_2811.chk"
 Charge = -1 Multiplicity = 2

                         Standard orientation:
 ---------------------------------------------------------------------
 Center     Atomic      Atomic             Coordinates (Angstroms)
 Number     Number       Type             X           Y           Z
 ---------------------------------------------------------------------
      1          6           0        0.680024    2.709874    0.575390
      2          6           0        2.048314    2.387050   -0.027320
      3          6           0        1.954116   -1.845011    1.251686
      4          6           0        1.199745   -1.289357    0.093822
      5          6           0        1.494846   -1.164526   -1.237726
      6          7           0        0.459250   -0.561575   -1.938074
      7          6           0       -0.458093   -0.323720   -1.027192
      8          7           0       -0.079154   -0.730594    0.226116
      9          6           0       -0.926765   -0.704578    1.409425
     10          6           0       -2.132973    0.210466    1.163615
     11          6           0       -2.710009   -0.002995   -0.239091
     12          7           0       -1.673798    0.322180   -1.217656
     13          1           0       -0.125407    2.446965   -0.118128
     14          1           0        0.586125    3.775791    0.815669
     15          1           0        0.516311    2.148726    1.504149
     16          1           0        2.132680    1.322371   -0.264936
     17          1           0        2.210537    2.945456   -0.956096
     18          1           0        2.859692    2.647933    0.662965
     19          1           0        2.145076   -1.089449    2.026536
     20          1           0        2.924102   -2.216642    0.909577
     21          1           0        1.431096   -2.681926    1.735147
     22          1           0        2.402637   -1.471040   -1.740436
     23          1           0       -0.343994   -0.347578    2.265372
     24          1           0       -1.260334   -1.725395    1.641143
     25          1           0       -1.827365    1.256725    1.257591
     26          1           0       -2.896377    0.010131    1.922203
     27          1           0       -3.072097   -1.041638   -0.337935
     28          1           0       -3.561043    0.664441   -0.402451
     29          1           0       -1.960948    0.281818   -2.188728
 ---------------------------------------------------------------------

 SCF Done:  E(UB3LYP) =  -517.636970938     A.U. after   31 cycles

 The electronic state is 2-A.
 Alpha  occ. eigenvalues --  -14.25255 -14.22267 -14.17540 -10.14529 -10.11037
 Alpha  occ. eigenvalues --  -10.10300 -10.09126 -10.07388 -10.07382 -10.07076
 Alpha  occ. eigenvalues --  -10.05496 -10.05473  -0.91913  -0.82018  -0.78218
 Alpha  occ. eigenvalues --   -0.67669  -0.66441  -0.65046  -0.60254  -0.56319
 Alpha  occ. eigenvalues --   -0.52132  -0.51364  -0.49412  -0.43252  -0.41368
 Alpha  occ. eigenvalues --   -0.39471  -0.37807  -0.36214  -0.34476  -0.33537
 Alpha  occ. eigenvalues --   -0.33125  -0.32322  -0.31492  -0.30442  -0.29963
 Alpha  occ. eigenvalues --   -0.29072  -0.26975  -0.26704  -0.24978  -0.24817
 Alpha  occ. eigenvalues --   -0.24320  -0.24177  -0.18563  -0.16793  -0.15835
 Alpha  occ. eigenvalues --   -0.08816   0.04351
 Alpha virt. eigenvalues --    0.06641   0.07508   0.07921   0.08990   0.09285
 Alpha virt. eigenvalues --    0.09785   0.10286   0.10654   0.11628   0.11929
 Alpha virt. eigenvalues --    0.12286   0.12855   0.13351   0.14012   0.14775

  Beta  occ. eigenvalues --  -14.25252 -14.22260 -14.17532 -10.14528 -10.10996
  Beta  occ. eigenvalues --  -10.10261 -10.09122 -10.07352 -10.07351 -10.07075
  Beta  occ. eigenvalues --  -10.05485 -10.05460  -0.91898  -0.81997  -0.78198
  Beta  occ. eigenvalues --   -0.67623  -0.66402  -0.65028  -0.60192  -0.56268
  Beta  occ. eigenvalues --   -0.52069  -0.51326  -0.49380  -0.43194  -0.41328
  Beta  occ. eigenvalues --   -0.39429  -0.37764  -0.36166  -0.34426  -0.33518
  Beta  occ. eigenvalues --   -0.33107  -0.32288  -0.31458  -0.30408  -0.29916
  Beta  occ. eigenvalues --   -0.29046  -0.26932  -0.26659  -0.24923  -0.24763
  Beta  occ. eigenvalues --   -0.24306  -0.24161  -0.18539  -0.16764  -0.15813
  Beta  occ. eigenvalues --   -0.08798
  Beta virt. eigenvalues --    0.06765   0.07626   0.07906   0.08593   0.09614
  Beta virt. eigenvalues --    0.09841   0.10143   0.10804   0.10875   0.12135
  Beta virt. eigenvalues --    0.12296   0.12736   0.13262   0.13692   0.14187

 Mulliken charges and spin densities:
               1          2
     1  C   -0.279835  -0.111242
     2  C   -0.200722  -0.291851
     3  C    1.537078  -2.141643
     4  C   -0.733263   1.185791
     5  C   -0.649230   0.045736
     6  N   -0.142067   0.009888
     7  C   -0.282359   0.091255
     8  N   -0.045030   0.179200
     9  C    2.050915  -2.252491
    10  C   -1.084477   0.731759
    11  C    1.412492  -1.733445
    12  N   -0.328805   0.221685
    13  H    0.114110   0.061789
    14  H   -0.034024   0.169819
    15  H   -0.049280   0.180994
    16  H    0.323126  -0.115149
    17  H    0.086872   0.022278
    18  H   -0.006102   0.118855
    19  H   -0.177040   0.336834
    20  H   -0.120627   0.270527
    21  H   -0.235187   0.403389
    22  H    0.044699   0.078657
    23  H   -0.337406   0.520706
    24  H   -0.186800   0.380567
    25  H    0.219859  -0.086165
    26  H   -1.031079   1.238116
    27  H   -0.061179   0.210558
    28  H   -0.901416   1.088126
    29  H    0.096775   0.185454
 Sum of Mulliken charges =  -1.00000   1.00000

 Dipole moment (field-independent basis, Debye):
    X=              4.5511    Y=              1.4967    Z=             -3.4302  Tot=              5.8923
 Quadrupole moment (field-independent basis, Debye-Ang):
   XX=           -133.5746   YY=           -113.4413   ZZ=           -122.2406
   XY=              0.1380   XZ=              5.7118   YZ=              5.6621

 Summary of Natural Population Analysis:

                                       Natural Population
                Natural  -----------------------------------------------
    Atom  No    Charge         Core      Valence    Rydberg      Total
 -----------------------------------------------------------------------
      C    1   -0.28906      0.99968     2.28487    0.00451     3.28906
      C    2   -0.28741      0.99968     2.28343    0.00430     3.28741
      C    3   -0.30074      0.99964     2.29557    0.00553     3.30074
      C    4    0.05160      0.99952     1.93565    0.01323     2.94840
      C    5   -0.03701      0.99949     2.02471    0.01281     3.03701
      N    6   -0.28472      0.99969     2.77569    0.00935     3.78472
      C    7    0.28639      0.99958     1.69482    0.01921     2.71361
      N    8   -0.22708      0.99959     2.71602    0.01147     3.72708
      C    9   -0.07920      0.99961     2.06778    0.01181     3.07920
      C   10   -0.19936      0.99963     2.19042    0.00931     3.19936
      C   11   -0.08419      0.99962     2.07331    0.01126     3.08419
      N   12   -0.32598      0.99968     2.81582    0.01048     3.82598
      H   13    0.10329      0.00000     0.39513    0.00158     0.39671
      H   14    0.08991      0.00000     0.40923    0.00086     0.41009
      H   15    0.09499      0.00000     0.40376    0.00125     0.40501
      H   16    0.10602      0.00000     0.39250    0.00149     0.39398
      H   17    0.09141      0.00000     0.40757    0.00101     0.40859
      H   18    0.08946      0.00000     0.40951    0.00104     0.41054
      H   19    0.10497      0.00000     0.39339    0.00164     0.39503
      H   20    0.10686      0.00000     0.39239    0.00076     0.39314
      H   21    0.10484      0.00000     0.39374    0.00142     0.39516
      H   22    0.09319      0.00000     0.40582    0.00099     0.40681
      H   23    0.10295      0.00000     0.39483    0.00222     0.39705
      H   24    0.09897      0.00000     0.39836    0.00267     0.40103
      H   25    0.10146      0.00000     0.39653    0.00202     0.39854
      H   26    0.11102      0.00000     0.38488    0.00410     0.38898
      H   27    0.08509      0.00000     0.41280    0.00210     0.41491
      H   28    0.10140      0.00000     0.39612    0.00249     0.39860
      H   29    0.19094      0.00000     0.30641    0.00266     0.30906
 =======================================================================
   * Total *    0.00000     11.99540    33.85106    0.15354    46.00000

 Normal termination of Gaussian 16 at Wed Dec  9 19:06:01 2020.
