 Gaussian 16, Revision A.03,

 -----------------------------------------------------------
 # opt freq B3LYP/6-31G(d) empiricaldispersion=gd3bj scf=xqc
 -----------------------------------------------------------

 ------------------------------
 CID_59676312_JID_2568_neutraal
 ------------------------------
 Symbolic Z-matrix:
 Charge =  0 Multiplicity = 1

 SCF Done:  E(RB3LYP) =  -609.375647066     A.U. after   15 cycles
 SCF Done:  E(RB3LYP) =  -609.390069472     A.U. after   13 cycles
 SCF Done:  E(RB3LYP) =  -609.390788374     A.U. after   11 cycles
 SCF Done:  E(RB3LYP) =  -609.390832285     A.U. after   10 cycles
 SCF Done:  E(RB3LYP) =  -609.390836580     A.U. after    9 cycles
 SCF Done:  E(RB3LYP) =  -609.390838738     A.U. after    7 cycles
 SCF Done:  E(RB3LYP) =  -609.390839112     A.U. after    7 cycles
 SCF Done:  E(RB3LYP) =  -609.390839284     A.U. after    7 cycles
 SCF Done:  E(RB3LYP) =  -609.390839324     A.U. after    6 cycles
 SCF Done:  E(RB3LYP) =  -609.390839346     A.U. after    6 cycles
 Optimization completed.
    -- Stationary point found.
 Normal termination of Gaussian 16 at Wed Dec  9 17:36:03 2020.

 --------------------------------------------------------------------
 #N Geom=AllCheck Guess=TCheck SCRF=Check GenChk RB3LYP/6-31G(d) Freq
 --------------------------------------------------------------------

 Structure from the checkpoint file:  "JID_2568.chk"
 ------------------------------
 CID_59676312_JID_2568_neutraal
 ------------------------------
 Charge =  0 Multiplicity = 1

 SCF Done:  E(RB3LYP) =  -609.390839346     A.U. after    1 cycles

  Exact polarizability: 133.775  -1.467  95.960  -0.001  -0.000  40.367
 Approx polarizability: 199.836  -2.379 171.795  -0.003   0.000  61.609

                      1                      2                      3
                      A                      A                      A
 Frequencies --     99.6637               155.2217               173.7324
 Red. masses --      5.4046                 1.1084                 4.4624
 Frc consts  --      0.0316                 0.0157                 0.0794
 IR Inten    --      0.1009                 2.0393                 0.0073

                      4                      5                      6
                      A                      A                      A
 Frequencies --    198.1724               233.2976               295.2403
 Red. masses --      6.3148                 7.2872                 1.2518
 Frc consts  --      0.1461                 0.2337                 0.0643
 IR Inten    --      0.5894                 0.4593                88.8398

                      7                      8                      9
                      A                      A                      A
 Frequencies --    301.0891               311.3734               365.1735
 Red. masses --      3.1535                 5.5669                 3.8118
 Frc consts  --      0.1684                 0.3180                 0.2995
 IR Inten    --      1.5063                 0.1248                17.3716

                     10                     11                     12
                      A                      A                      A
 Frequencies --    432.0240               454.8895               537.2485
 Red. masses --      6.6575                 7.5422                 4.1749
 Frc consts  --      0.7321                 0.9195                 0.7100
 IR Inten    --      2.9220                 6.7904                 0.1788

                     13                     14                     15
                      A                      A                      A
 Frequencies --    582.8063               616.1258               625.6174
 Red. masses --      6.2652                 5.5860                 5.5337
 Frc consts  --      1.2538                 1.2494                 1.2761
 IR Inten    --      0.7897                 4.4812                 0.6227

                     16                     17                     18
                      A                      A                      A
 Frequencies --    649.9349               689.0048               750.3257
 Red. masses --      7.8246                 8.6476                11.1681
 Frc consts  --      1.9474                 2.4188                 3.7045
 IR Inten    --      4.6826                 0.4542                17.8034

                     19                     20                     21
                      A                      A                      A
 Frequencies --    787.2641               798.4905               803.8339
 Red. masses --      5.9278                 1.3255                12.2560
 Frc consts  --      2.1646                 0.4979                 4.6659
 IR Inten    --      2.4365                36.7312                 3.8613

                     22                     23                     24
                      A                      A                      A
 Frequencies --    917.4876               920.7978               972.9432
 Red. masses --      8.1035                 1.2651                 2.7741
 Frc consts  --      4.0190                 0.6320                 1.5472
 IR Inten    --     29.1050                 0.0005                89.4787

                     25                     26                     27
                      A                      A                      A
 Frequencies --   1008.6979              1042.6108              1071.9530
 Red. masses --      6.5613                 2.2133                 1.4424
 Frc consts  --      3.9333                 1.4175                 0.9765
 IR Inten    --     49.4223                47.2661                 1.8530

                     28                     29                     30
                      A                      A                      A
 Frequencies --   1136.4697              1197.8280              1274.8403
 Red. masses --      1.6255                 3.7853                 2.1278
 Frc consts  --      1.2369                 3.1999                 2.0374
 IR Inten    --    121.7878               122.5782                37.9815

                     31                     32                     33
                      A                      A                      A
 Frequencies --   1294.2290              1312.2663              1332.3678
 Red. masses --      2.1874                 2.3981                 4.0261
 Frc consts  --      2.1587                 2.4332                 4.2110
 IR Inten    --     70.4164                79.5881               125.5753

                     34                     35                     36
                      A                      A                      A
 Frequencies --   1406.8374              1444.6551              1518.8274
 Red. masses --      5.3702                 1.2675                 1.7449
 Frc consts  --      6.2622                 1.5586                 2.3716
 IR Inten    --     58.1726                 2.5900                30.3847

                     37                     38                     39
                      A                      A                      A
 Frequencies --   1519.7894              1533.2359              1546.1187
 Red. masses --      1.0423                 3.0413                 1.9175
 Frc consts  --      1.4185                 4.2124                 2.7007
 IR Inten    --      7.9382               109.4201                61.1185

                     40                     41                     42
                      A                      A                      A
 Frequencies --   1678.3887              1714.7381              1956.8783
 Red. masses --      8.2314                 8.0540                13.0387
 Frc consts  --     13.6619                13.9527                29.4179
 IR Inten    --     17.6264                39.3778               843.8877

                     43                     44                     45
                      A                      A                      A
 Frequencies --   3022.7413              3066.9265              3138.4914
 Red. masses --      1.0418                 1.1014                 1.0952
 Frc consts  --      5.6084                 6.1038                 6.3559
 IR Inten    --     32.0051                21.6792                 8.5174

                     46                     47                     48
                      A                      A                      A
 Frequencies --   3199.9580              3245.4644              3764.5745
 Red. masses --      1.0896                 1.0941                 1.0655
 Frc consts  --      6.5739                 6.7896                 8.8967
 IR Inten    --      9.3264                 1.0230                65.0829

 - Thermochemistry -
 -------------------
 Temperature   298.150 Kelvin.  Pressure   1.00000 Atm.
 Atom     1 has atomic number  6 and mass  12.00000

 Molecular mass:   166.02661 amu.
 Principal axes and moments of inertia in atomic units:
                           1         2         3
     Eigenvalues --   844.635682559.392583392.69449
           X            0.99999   0.00441  -0.00000
           Y           -0.00441   0.99999  -0.00000
           Z            0.00000   0.00000   1.00000
 This molecule is an asymmetric top.
 Rotational symmetry number  1.
 Warning -- assumption of classical behavior for rotation
           may cause significant error
 Rotational temperatures (Kelvin)      0.10255     0.03384     0.02553
 Rotational constants (GHZ):           2.13671     0.70514     0.53195
 Zero-point vibrational energy     341537.7 (Joules/Mol)
                                   81.62947 (Kcal/Mol)
 Warning -- explicit consideration of  14 degrees of freedom as
           vibrations may cause significant error
 Vibrational temperatures:    143.39   223.33   249.96   285.13   335.66
          (Kelvin)            424.78   433.20   448.00   525.40   621.59
                              654.48   772.98   838.53   886.47   900.12
                              935.11   991.32  1079.55  1132.70  1148.85
                             1156.54  1320.06  1324.82  1399.85  1451.29
                             1500.08  1542.30  1635.13  1723.41  1834.21
                             1862.11  1888.06  1916.98  2024.13  2078.54
                             2185.25  2186.64  2205.98  2224.52  2414.83
                             2467.13  2815.51  4349.05  4412.62  4515.59
                             4604.03  4669.50  5416.38

 Zero-point correction=                           0.130085 (Hartree/Particle)
 Thermal correction to Energy=                    0.139703
 Thermal correction to Enthalpy=                  0.140647
 Thermal correction to Gibbs Free Energy=         0.095340
 Sum of electronic and zero-point Energies=           -609.260755
 Sum of electronic and thermal Energies=              -609.251136
 Sum of electronic and thermal Enthalpies=            -609.250192
 Sum of electronic and thermal Free Energies=         -609.295500

                     E (Thermal)             CV                S
                      KCal/Mol        Cal/Mol-Kelvin    Cal/Mol-Kelvin
 Total                   87.665             37.271             95.358
 Electronic               0.000              0.000              0.000
 Translational            0.889              2.981             41.229
 Rotational               0.889              2.981             30.373
 Vibrational             85.887             31.309             23.755
 Vibration     1          0.604              1.949              3.461
 Vibration     2          0.620              1.897              2.607
 Vibration     3          0.627              1.875              2.395
 Vibration     4          0.637              1.842              2.150
 Vibration     5          0.654              1.790              1.853
 Vibration     6          0.689              1.683              1.444
 Vibration     7          0.693              1.672              1.411
 Vibration     8          0.700              1.652              1.355
 Vibration     9          0.738              1.544              1.100
 Vibration    10          0.793              1.400              0.852
 Vibration    11          0.813              1.350              0.781
 Vibration    12          0.892              1.168              0.571
 Vibration    13          0.940              1.069              0.480
 Vibration    14          0.976              0.998              0.423

 Optimization completed.
    -- Stationary point found.
 Normal termination of Gaussian 16 at Wed Dec  9 17:40:09 2020.

 ----------------------------------------------------------------------
 # B3LYP/6-311++G(d,p) empiricaldispersion=gd3bj scf=xqc pop=npa geom=c
 heck
 ----------------------------------------------------------------------

 --------------------------------------
 CID_59676312_JID_2568_Energie_neutraal
 --------------------------------------
 Structure from the checkpoint file:  "JID_2568.chk"
 Charge =  0 Multiplicity = 1

 SCF Done:  E(RB3LYP) =  -609.567965856     A.U. after   15 cycles
 Normal termination of Gaussian 16 at Wed Dec  9 17:43:00 2020.

 ----------------------------------------------------------------------
 # B3LYP/6-311++G(d,p) empiricaldispersion=gd3bj scf=xqc pop=npa geom=c
 heck
 ----------------------------------------------------------------------

 ------------------------------------
 CID_59676312_JID_2568_Energie_kation
 ------------------------------------
 Structure from the checkpoint file:  "JID_2568.chk"
 Charge =  1 Multiplicity = 2

 SCF Done:  E(UB3LYP) =  -609.241522809     A.U. after   31 cycles
 Normal termination of Gaussian 16 at Wed Dec  9 17:49:23 2020.
 Gaussian 16:  ES64L-G16RevA.03 25-Dec-2016

 ----------------------------------------------------------------------
 # B3LYP/6-311++G(d,p) empiricaldispersion=gd3bj scf=xqc pop=npa geom=c
 heck
 ----------------------------------------------------------------------

 -----------------------------------
 CID_59676312_JID_2568_Energie_anion
 -----------------------------------
 Structure from the checkpoint file:  "JID_2568.chk"
 Charge = -1 Multiplicity = 2

                         Standard orientation:
 ---------------------------------------------------------------------
 Center     Atomic      Atomic             Coordinates (Angstroms)
 Number     Number       Type             X           Y           Z
 ---------------------------------------------------------------------
      1          6           0       -3.474848   -0.189175   -0.000028
      2          6           0       -2.021405    0.218894    0.000010
      3          6           0       -1.028206   -0.786176    0.000010
      4          6           0        0.290503   -0.359676    0.000005
      5          6           0        0.630436    0.981635   -0.000009
      6          6           0       -0.309604    1.993184    0.000001
      7          6           0       -1.645058    1.568904    0.000016
      8          8           0        2.009252    1.065852   -0.000009
      9          6           0        2.505281   -0.223039    0.000017
     10          8           0        3.658899   -0.518071   -0.000008
     11          8           0        1.450657   -1.109570    0.000010
     12          8           0       -1.290108   -2.120256   -0.000063
     13          1           0       -3.737649   -0.782394   -0.887389
     14          1           0       -4.123371    0.690391    0.000109
     15          1           0       -3.737663   -0.782612    0.887192
     16          1           0       -0.032479    3.039972   -0.000001
     17          1           0       -2.430969    2.318307    0.000022
     18          1           0       -2.250065   -2.254606    0.000484
 ---------------------------------------------------------------------

 SCF Done:  E(UB3LYP) =  -609.562523559     A.U. after   32 cycles

 The electronic state is 2-A.
 Alpha  occ. eigenvalues --  -19.12172 -19.11999 -19.06206 -19.04567 -10.27878
 Alpha  occ. eigenvalues --  -10.15732 -10.15604 -10.15140 -10.09568 -10.09435
 Alpha  occ. eigenvalues --  -10.08976 -10.06526  -1.09986  -0.99115  -0.98303
 Alpha  occ. eigenvalues --   -0.97276  -0.77864  -0.68993  -0.67177  -0.61015
 Alpha  occ. eigenvalues --   -0.56438  -0.55397  -0.53561  -0.48368  -0.44572
 Alpha  occ. eigenvalues --   -0.43719  -0.41966  -0.38835  -0.37653  -0.34288
 Alpha  occ. eigenvalues --   -0.34081  -0.32261  -0.31830  -0.31346  -0.30572
 Alpha  occ. eigenvalues --   -0.29512  -0.28129  -0.27718  -0.27070  -0.23595
 Alpha  occ. eigenvalues --   -0.23528  -0.14797  -0.13955   0.04265
 Alpha virt. eigenvalues --    0.06954   0.07825   0.08157   0.08402   0.09824
 Alpha virt. eigenvalues --    0.10085   0.10676   0.10892   0.12513   0.13478
 Alpha virt. eigenvalues --    0.13714   0.14637   0.15490   0.16116   0.16761

  Beta  occ. eigenvalues --  -19.12168 -19.11989 -19.06137 -19.04565 -10.27876
  Beta  occ. eigenvalues --  -10.15732 -10.15595 -10.15137 -10.09569 -10.09430
  Beta  occ. eigenvalues --  -10.08957 -10.06415  -1.09975  -0.99092  -0.98291
  Beta  occ. eigenvalues --   -0.97153  -0.77830  -0.68955  -0.67132  -0.60921
  Beta  occ. eigenvalues --   -0.56410  -0.55362  -0.53481  -0.48289  -0.44523
  Beta  occ. eigenvalues --   -0.43706  -0.41907  -0.38815  -0.37617  -0.34229
  Beta  occ. eigenvalues --   -0.34029  -0.32253  -0.31818  -0.31299  -0.30511
  Beta  occ. eigenvalues --   -0.29431  -0.28078  -0.27634  -0.27004  -0.23586
  Beta  occ. eigenvalues --   -0.23504  -0.14782  -0.13920
  Beta virt. eigenvalues --    0.07021   0.07835   0.08138   0.08492   0.08786
  Beta virt. eigenvalues --    0.10089   0.10664   0.11728   0.11839   0.13125
  Beta virt. eigenvalues --    0.13405   0.14128   0.14687   0.16072   0.16079

 Mulliken charges and spin densities:
               1          2
     1  C    5.961514  -6.433863
     2  C   -3.450164   4.512297
     3  C   -1.865834   1.160349
     4  C    1.494850  -1.264409
     5  C    1.274566  -0.863028
     6  C   -1.470406   0.673765
     7  C    0.841280  -1.382671
     8  O   -0.138824  -0.001109
     9  C    0.587744  -0.070617
    10  O   -0.359293  -0.008322
    11  O   -0.121603  -0.022949
    12  O   -0.260217   0.018721
    13  H   -0.599414   0.774471
    14  H   -0.918076   1.108646
    15  H   -0.600031   0.774984
    16  H   -0.238713   0.420248
    17  H   -0.552193   0.697486
    18  H   -0.585186   0.906002
 Sum of Mulliken charges =  -1.00000   1.00000

 Dipole moment (field-independent basis, Debye):
    X=              8.5804    Y=              3.0660    Z=             -0.0015  Tot=              9.1117
 Quadrupole moment (field-independent basis, Debye-Ang):
   XX=           -158.3643   YY=           -107.3706   ZZ=            -89.9306
   XY=             -3.7223   XZ=              0.0061   YZ=              0.0036

 Summary of Natural Population Analysis:

                                       Natural Population
                Natural  -----------------------------------------------
    Atom  No    Charge         Core      Valence    Rydberg      Total
 -----------------------------------------------------------------------
      C    1   -0.30638      0.99964     2.29887    0.00787     3.30638
      C    2   -0.04197      0.99951     2.03204    0.01043     3.04197
      C    3    0.15228      0.99930     1.83375    0.01466     2.84772
      C    4    0.10243      0.99928     1.88550    0.01280     2.89757
      C    5    0.12660      0.99934     1.86181    0.01225     2.87340
      C    6   -0.13394      0.99952     2.12512    0.00930     3.13394
      C    7   -0.08678      0.99954     2.07701    0.01023     3.08678
      O    8   -0.25280      0.99985     3.24683    0.00612     4.25280
      C    9    0.50221      0.99975     1.46921    0.02883     2.49779
      O   10   -0.28967      0.99985     3.28389    0.00592     4.28967
      O   11   -0.24347      0.99985     3.23688    0.00675     4.24347
      O   12   -0.33169      0.99987     3.32491    0.00690     4.33169
      H   13    0.11068      0.00000     0.38446    0.00486     0.38932
      H   14    0.11477      0.00000     0.38026    0.00497     0.38523
      H   15    0.11068      0.00000     0.38445    0.00486     0.38932
      H   16    0.10909      0.00000     0.38988    0.00103     0.39091
      H   17    0.10629      0.00000     0.39241    0.00129     0.39371
      H   18    0.25166      0.00000     0.23665    0.01170     0.24834
 =======================================================================
   * Total *    0.00000     11.99531    30.84393    0.16076    43.00000

 Normal termination of Gaussian 16 at Wed Dec  9 17:55:27 2020.
