 Gaussian 16, Revision A.03,

 -----------------------------------------------------------
 # opt freq B3LYP/6-31G(d) empiricaldispersion=gd3bj scf=xqc
 -----------------------------------------------------------

 -------------------------------
 CID_103560248_JID_4040_neutraal
 -------------------------------
 Symbolic Z-matrix:
 Charge =  0 Multiplicity = 1

 SCF Done:  E(RB3LYP) =  -619.680049565     A.U. after   14 cycles
 SCF Done:  E(RB3LYP) =  -619.704112132     A.U. after   12 cycles
 SCF Done:  E(RB3LYP) =  -619.706143234     A.U. after   12 cycles
 SCF Done:  E(RB3LYP) =  -619.705513486     A.U. after   13 cycles
 SCF Done:  E(RB3LYP) =  -619.705228640     A.U. after   12 cycles
 SCF Done:  E(RB3LYP) =  -619.704344345     A.U. after   12 cycles
 SCF Done:  E(RB3LYP) =  -619.706323182     A.U. after   10 cycles
 SCF Done:  E(RB3LYP) =  -619.706779686     A.U. after   10 cycles
 SCF Done:  E(RB3LYP) =  -619.706460561     A.U. after   11 cycles
 SCF Done:  E(RB3LYP) =  -619.706765165     A.U. after   11 cycles
 SCF Done:  E(RB3LYP) =  -619.706906143     A.U. after    9 cycles
 SCF Done:  E(RB3LYP) =  -619.706907641     A.U. after   11 cycles
 SCF Done:  E(RB3LYP) =  -619.706909633     A.U. after   10 cycles
 SCF Done:  E(RB3LYP) =  -619.706909628     A.U. after    9 cycles
 SCF Done:  E(RB3LYP) =  -619.706909661     A.U. after    7 cycles
 Optimization completed on the basis of negligible forces.
    -- Stationary point found.
 Normal termination of Gaussian 16 at Thu Dec 10 09:28:03 2020.

 --------------------------------------------------------------------
 #N Geom=AllCheck Guess=TCheck SCRF=Check GenChk RB3LYP/6-31G(d) Freq
 --------------------------------------------------------------------

 Structure from the checkpoint file:  "JID_4040.chk"
 -------------------------------
 CID_103560248_JID_4040_neutraal
 -------------------------------
 Charge =  0 Multiplicity = 1

 SCF Done:  E(RB3LYP) =  -619.706909661     A.U. after    1 cycles

  Exact polarizability: 161.208   8.851 113.591   7.954   5.852 111.428
 Approx polarizability: 199.062  18.040 166.011  16.446  10.026 164.788

                      1                      2                      3
                      A                      A                      A
 Frequencies --     18.6411                20.0014                50.2417
 Red. masses --      1.1222                 2.8923                 3.7540
 Frc consts  --      0.0002                 0.0007                 0.0056
 IR Inten    --      0.0109                 0.0835                 0.6465

                      4                      5                      6
                      A                      A                      A
 Frequencies --     60.4674                88.7404               114.4348
 Red. masses --      3.4394                 2.7685                 2.8546
 Frc consts  --      0.0074                 0.0128                 0.0220
 IR Inten    --      0.0762                 0.1957                 0.0884

                      7                      8                      9
                      A                      A                      A
 Frequencies --    126.0514               171.3524               192.9604
 Red. masses --      1.8881                 2.8905                 3.4070
 Frc consts  --      0.0177                 0.0500                 0.0747
 IR Inten    --      3.1128                 0.9974                 2.4446

                     10                     11                     12
                      A                      A                      A
 Frequencies --    206.5199               223.8693               233.0198
 Red. masses --      3.2405                 2.2721                 1.9142
 Frc consts  --      0.0814                 0.0671                 0.0612
 IR Inten    --      2.8861                 9.1513                 8.1448

                     13                     14                     15
                      A                      A                      A
 Frequencies --    291.4705               302.5054               313.0990
 Red. masses --      2.6941                 2.5883                 2.0133
 Frc consts  --      0.1348                 0.1395                 0.1163
 IR Inten    --      3.3131                 1.5473                26.5864

                     16                     17                     18
                      A                      A                      A
 Frequencies --    324.7716               360.4458               378.6962
 Red. masses --      1.3602                 2.6700                 3.6730
 Frc consts  --      0.0845                 0.2044                 0.3104
 IR Inten    --    116.8681                 0.8972                 0.0427

                     19                     20                     21
                      A                      A                      A
 Frequencies --    400.6039               425.3709               437.4719
 Red. masses --      2.6901                 2.9345                 3.0588
 Frc consts  --      0.2544                 0.3128                 0.3449
 IR Inten    --      5.9678                 0.4575                 6.1326

                     22                     23                     24
                      A                      A                      A
 Frequencies --    473.7785               559.3445               566.4575
 Red. masses --      2.9080                 3.7209                 3.4484
 Frc consts  --      0.3846                 0.6859                 0.6519
 IR Inten    --      1.5204                 6.1772                 8.6842

                     25                     26                     27
                      A                      A                      A
 Frequencies --    674.9686               726.2557               732.0975
 Red. masses --      2.6831                 1.9456                 1.8673
 Frc consts  --      0.7202                 0.6046                 0.5896
 IR Inten    --      0.9411                 0.1181                 3.5082

                     28                     29                     30
                      A                      A                      A
 Frequencies --    768.1415               788.1979               845.0351
 Red. masses --      1.3008                 2.3959                 2.3633
 Frc consts  --      0.4522                 0.8770                 0.9943
 IR Inten    --      0.2432                 6.7097                 7.7794

                     31                     32                     33
                      A                      A                      A
 Frequencies --    863.2994               872.4989               947.4550
 Red. masses --      2.3286                 1.9302                 2.0646
 Frc consts  --      1.0225                 0.8657                 1.0919
 IR Inten    --      8.9121                 6.8767                 6.6746

                     34                     35                     36
                      A                      A                      A
 Frequencies --    957.2597               963.4685               981.4902
 Red. masses --      2.5696                 2.3492                 2.7080
 Frc consts  --      1.3873                 1.2848                 1.5370
 IR Inten    --      1.5264                 5.9961                 2.7310

                     37                     38                     39
                      A                      A                      A
 Frequencies --   1007.9626              1048.3929              1061.2255
 Red. masses --      2.4339                 1.5390                 1.4666
 Frc consts  --      1.4569                 0.9966                 0.9732
 IR Inten    --     23.7551                 4.7320                 5.2848

                     40                     41                     42
                      A                      A                      A
 Frequencies --   1070.7525              1072.2771              1099.8467
 Red. masses --      1.3961                 1.4127                 2.6164
 Frc consts  --      0.9431                 0.9570                 1.8647
 IR Inten    --      1.2135                 1.8609                40.9917

                     43                     44                     45
                      A                      A                      A
 Frequencies --   1125.5641              1132.9186              1154.7500
 Red. masses --      2.8666                 3.3218                 2.5301
 Frc consts  --      2.1397                 2.5120                 1.9877
 IR Inten    --     54.2247                55.5400                47.8126

                     46                     47                     48
                      A                      A                      A
 Frequencies --   1178.0963              1190.2855              1207.5355
 Red. masses --      3.1730                 1.2755                 1.9817
 Frc consts  --      2.5947                 1.0647                 1.7025
 IR Inten    --      6.9606                 1.5241                38.8983

                     49                     50                     51
                      A                      A                      A
 Frequencies --   1214.5048              1217.9259              1236.6908
 Red. masses --      1.2720                 1.2741                 1.2496
 Frc consts  --      1.1054                 1.1135                 1.1260
 IR Inten    --      3.9520                 3.1874                 9.9691

                     52                     53                     54
                      A                      A                      A
 Frequencies --   1249.7655              1257.4306              1268.8902
 Red. masses --      1.6247                 1.4045                 1.2279
 Frc consts  --      1.4952                 1.3084                 1.1648
 IR Inten    --      2.8162                32.5069                 6.4051

                     55                     56                     57
                      A                      A                      A
 Frequencies --   1276.8834              1300.3858              1326.8174
 Red. masses --      1.3373                 1.4439                 1.2659
 Frc consts  --      1.2847                 1.4386                 1.3130
 IR Inten    --      7.2418                14.3403                13.9402

                     58                     59                     60
                      A                      A                      A
 Frequencies --   1336.2104              1364.4687              1382.0179
 Red. masses --      1.7916                 1.3759                 1.4456
 Frc consts  --      1.8847                 1.5093                 1.6268
 IR Inten    --     36.1768                 6.7958                15.9473

                     61                     62                     63
                      A                      A                      A
 Frequencies --   1392.0660              1431.3293              1445.2776
 Red. masses --      1.5657                 1.3289                 1.2435
 Frc consts  --      1.7876                 1.6040                 1.5303
 IR Inten    --     32.4491                 2.3014                 7.3868

                     64                     65                     66
                      A                      A                      A
 Frequencies --   1471.4715              1496.0138              1501.4357
 Red. masses --      1.5243                 1.1108                 1.1026
 Frc consts  --      1.9445                 1.4647                 1.4645
 IR Inten    --     11.0958                 1.7882                 2.0834

                     67                     68                     69
                      A                      A                      A
 Frequencies --   1502.9573              1509.6708              1509.9554
 Red. masses --      1.1190                 1.0404                 1.0405
 Frc consts  --      1.4893                 1.3970                 1.3977
 IR Inten    --      3.8471                 6.2285                 5.5921

                     70                     71                     72
                      A                      A                      A
 Frequencies --   1513.6686              1516.8656              1525.8868
 Red. masses --      1.0805                 1.0881                 1.0857
 Frc consts  --      1.4586                 1.4751                 1.4894
 IR Inten    --      0.4751                 2.9117                 2.2085

                     73                     74                     75
                      A                      A                      A
 Frequencies --   1536.1116              1541.2287              1548.5887
 Red. masses --      1.0687                 1.0567                 1.1137
 Frc consts  --      1.4858                 1.4789                 1.5736
 IR Inten    --      8.9529                 7.5148                15.0055

                     76                     77                     78
                      A                      A                      A
 Frequencies --   2374.3893              3003.4507              3015.5169
 Red. masses --     11.7984                 1.0816                 1.0353
 Frc consts  --     39.1901                 5.7488                 5.5470
 IR Inten    --      0.7293                33.5646                48.2450

                     79                     80                     81
                      A                      A                      A
 Frequencies --   3031.4514              3036.6682              3037.6693
 Red. masses --      1.0660                 1.0599                 1.0347
 Frc consts  --      5.7718                 5.7585                 5.6254
 IR Inten    --     48.1848                15.3859                37.7105

                     82                     83                     84
                      A                      A                      A
 Frequencies --   3060.8203              3062.4870              3070.3636
 Red. masses --      1.0928                 1.1028                 1.0928
 Frc consts  --      6.0322                 6.0939                 6.0698
 IR Inten    --     17.3707                31.6560                17.7244

                     85                     86                     87
                      A                      A                      A
 Frequencies --   3074.4184              3077.5160              3089.1882
 Red. masses --      1.0588                 1.0725                 1.0673
 Frc consts  --      5.8965                 5.9850                 6.0009
 IR Inten    --     42.2440                36.6440                56.3033

                     88                     89                     90
                      A                      A                      A
 Frequencies --   3096.3035              3097.7483              3098.2387
 Red. masses --      1.0678                 1.1015                 1.1014
 Frc consts  --      6.0317                 6.2277                 6.2293
 IR Inten    --     23.5327                14.2320                14.2513

                     91                     92                     93
                      A                      A                      A
 Frequencies --   3113.2680              3117.1336              3130.0952
 Red. masses --      1.1047                 1.1070                 1.0983
 Frc consts  --      6.3085                 6.3374                 6.3397
 IR Inten    --     37.8237                36.5990                35.0847

                     94                     95                     96
                      A                      A                      A
 Frequencies --   3159.0987              3165.0572              3737.8705
 Red. masses --      1.0989                 1.1001                 1.0660
 Frc consts  --      6.4615                 6.4929                 8.7751
 IR Inten    --     24.1114                11.3988                 8.7187

 - Thermochemistry -
 -------------------
 Temperature   298.150 Kelvin.  Pressure   1.00000 Atm.
 Atom     1 has atomic number  6 and mass  12.00000

 Molecular mass:   196.14633 amu.
 Principal axes and moments of inertia in atomic units:
                           1         2         3
     Eigenvalues --  1524.755025679.317065877.67546
           X            0.99995   0.00482   0.00905
           Y           -0.00557   0.99634   0.08525
           Z           -0.00860  -0.08530   0.99632
 This molecule is an asymmetric top.
 Rotational symmetry number  1.
 Warning -- assumption of classical behavior for rotation
           may cause significant error
 Rotational temperatures (Kelvin)      0.05681     0.01525     0.01474
 Rotational constants (GHZ):           1.18363     0.31777     0.30705
 Zero-point vibrational energy     791529.3 (Joules/Mol)
                                  189.18004 (Kcal/Mol)
 Warning -- explicit consideration of  24 degrees of freedom as
           vibrations may cause significant error
 Vibrational temperatures:     26.82    28.78    72.29    87.00   127.68
          (Kelvin)            164.65   181.36   246.54   277.63   297.14
                              322.10   335.26   419.36   435.24   450.48
                              467.27   518.60   544.86   576.38   612.01
                              629.42   681.66   804.77   815.01   971.13
                             1044.92  1053.33  1105.18  1134.04  1215.82
                             1242.10  1255.33  1363.18  1377.28  1386.22
                             1412.15  1450.23  1508.40  1526.87  1540.57
                             1542.77  1582.43  1619.44  1630.02  1661.43
                             1695.02  1712.56  1737.37  1747.40  1752.32
                             1779.32  1798.13  1809.16  1825.65  1837.15
                             1870.97  1908.99  1922.51  1963.17  1988.42
                             2002.87  2059.36  2079.43  2117.12  2152.43
                             2160.23  2162.42  2172.08  2172.49  2177.83
                             2182.43  2195.41  2210.12  2217.48  2228.07
                             3416.22  4321.30  4338.66  4361.58  4369.09
                             4370.53  4403.84  4406.24  4417.57  4423.40
                             4427.86  4444.65  4454.89  4456.97  4457.67
                             4479.30  4484.86  4503.51  4545.24  4553.81
                             5377.96

 Zero-point correction=                           0.301478 (Hartree/Particle)
 Thermal correction to Energy=                    0.317841
 Thermal correction to Enthalpy=                  0.318786
 Thermal correction to Gibbs Free Energy=         0.255748
 Sum of electronic and zero-point Energies=           -619.405432
 Sum of electronic and thermal Energies=              -619.389068
 Sum of electronic and thermal Enthalpies=            -619.388124
 Sum of electronic and thermal Free Energies=         -619.451162

                     E (Thermal)             CV                S
                      KCal/Mol        Cal/Mol-Kelvin    Cal/Mol-Kelvin
 Total                  199.448             59.841            132.674
 Electronic               0.000              0.000              0.000
 Translational            0.889              2.981             41.726
 Rotational               0.889              2.981             32.298
 Vibrational            197.671             53.879             58.650
 Vibration     1          0.593              1.986              6.774
 Vibration     2          0.593              1.986              6.634
 Vibration     3          0.595              1.977              4.808
 Vibration     4          0.597              1.973              4.442
 Vibration     5          0.602              1.957              3.688
 Vibration     6          0.607              1.937              3.192
 Vibration     7          0.611              1.927              3.005
 Vibration     8          0.626              1.878              2.421
 Vibration     9          0.635              1.850              2.199
 Vibration    10          0.641              1.831              2.074
 Vibration    11          0.649              1.805              1.928
 Vibration    12          0.654              1.790              1.856
 Vibration    13          0.687              1.690              1.465
 Vibration    14          0.694              1.669              1.403
 Vibration    15          0.701              1.649              1.346
 Vibration    16          0.709              1.626              1.286
 Vibration    17          0.735              1.554              1.120
 Vibration    18          0.749              1.516              1.044
 Vibration    19          0.766              1.469              0.960
 Vibration    20          0.787              1.415              0.874
 Vibration    21          0.798              1.389              0.835
 Vibration    22          0.831              1.308              0.727
 Vibration    23          0.915              1.119              0.525
 Vibration    24          0.922              1.104              0.511

 Optimization completed on the basis of negligible forces.
    -- Stationary point found.
 Normal termination of Gaussian 16 at Thu Dec 10 09:37:22 2020.

 ----------------------------------------------------------------------
 # B3LYP/6-311++G(d,p) empiricaldispersion=gd3bj scf=xqc pop=npa geom=c
 heck
 ----------------------------------------------------------------------

 ---------------------------------------
 CID_103560248_JID_4040_Energie_neutraal
 ---------------------------------------
 Structure from the checkpoint file:  "JID_4040.chk"
 Charge =  0 Multiplicity = 1

 SCF Done:  E(RB3LYP) =  -619.893132570     A.U. after   14 cycles
 Normal termination of Gaussian 16 at Thu Dec 10 09:41:19 2020.

 ----------------------------------------------------------------------
 # B3LYP/6-311++G(d,p) empiricaldispersion=gd3bj scf=xqc pop=npa geom=c
 heck
 ----------------------------------------------------------------------

 -------------------------------------
 CID_103560248_JID_4040_Energie_kation
 -------------------------------------
 Structure from the checkpoint file:  "JID_4040.chk"
 Charge =  1 Multiplicity = 2

 SCF Done:  E(UB3LYP) =  -619.582251357     A.U. after   29 cycles
 Normal termination of Gaussian 16 at Thu Dec 10 09:52:23 2020.
 Gaussian 16:  ES64L-G16RevA.03 25-Dec-2016

 ----------------------------------------------------------------------
 # B3LYP/6-311++G(d,p) empiricaldispersion=gd3bj scf=xqc pop=npa geom=c
 heck
 ----------------------------------------------------------------------

 ------------------------------------
 CID_103560248_JID_4040_Energie_anion
 ------------------------------------
 Structure from the checkpoint file:  "JID_4040.chk"
 Charge = -1 Multiplicity = 2

                         Standard orientation:
 ---------------------------------------------------------------------
 Center     Atomic      Atomic             Coordinates (Angstroms)
 Number     Number       Type             X           Y           Z
 ---------------------------------------------------------------------
      1          6           0        5.282472    1.192567    0.281743
      2          6           0        4.084561    0.588353   -0.295038
      3          6           0        3.096421    0.089208   -0.781919
      4          6           0        1.889416   -0.521739   -1.341855
      5          6           0        1.112136   -1.382990   -0.325622
      6          6           0        0.681382   -0.623957    0.928433
      7          6           0       -0.293473    0.551870    0.745970
      8          6           0       -1.679884    0.353980    0.119531
      9          6           0       -1.778220    0.071146   -1.413642
     10          6           0       -2.776568   -1.084343   -1.133974
     11          6           0       -2.465286   -0.970618    0.382061
     12          8           0       -2.363480    1.546573    0.529918
     13          6           0       -3.699488    1.728806    0.112942
     14          8           0        0.176675   -1.622013    1.826585
     15          1           0        5.089169    2.217377    0.621509
     16          1           0        6.099039    1.234569   -0.449355
     17          1           0        5.641142    0.619361    1.145297
     18          1           0        1.238472    0.266804   -1.741594
     19          1           0        2.159828   -1.151586   -2.199717
     20          1           0        0.243851   -1.833095   -0.817998
     21          1           0        1.750091   -2.209678    0.004661
     22          1           0        1.594099   -0.186003    1.360639
     23          1           0       -0.469204    0.976150    1.744734
     24          1           0        0.219579    1.345094    0.186505
     25          1           0       -2.138332    0.908921   -2.017856
     26          1           0       -0.837398   -0.268829   -1.847582
     27          1           0       -2.536746   -2.045161   -1.598662
     28          1           0       -3.810004   -0.830272   -1.388575
     29          1           0       -1.811310   -1.758934    0.754619
     30          1           0       -3.318455   -0.880992    1.061482
     31          1           0       -3.799129    1.795265   -0.979691
     32          1           0       -4.367816    0.935062    0.475081
     33          1           0       -4.025494    2.678431    0.545673
     34          1           0       -0.147765   -1.162666    2.617026
 ---------------------------------------------------------------------

 SCF Done:  E(UB3LYP) =  -619.878627711     A.U. after   33 cycles
 SCF Done:  E(UB3LYP) =  -619.878627711     a.u. after    1 cycles

 The electronic state is 2-A.
 Alpha  occ. eigenvalues --  -19.03063 -19.02801 -10.13462 -10.12891 -10.11288
 Alpha  occ. eigenvalues --  -10.10389 -10.09063 -10.08197 -10.07477 -10.07287
 Alpha  occ. eigenvalues --  -10.07215 -10.06936 -10.06493 -10.06490  -0.93961
 Alpha  occ. eigenvalues --   -0.93201  -0.74547  -0.72044  -0.67950  -0.66005
 Alpha  occ. eigenvalues --   -0.62071  -0.59227  -0.57344  -0.56365  -0.52867
 Alpha  occ. eigenvalues --   -0.48829  -0.44911  -0.42527  -0.40693  -0.39793
 Alpha  occ. eigenvalues --   -0.38303  -0.37157  -0.36781  -0.35664  -0.34891
 Alpha  occ. eigenvalues --   -0.33497  -0.33230  -0.33187  -0.32408  -0.30675
 Alpha  occ. eigenvalues --   -0.30060  -0.29482  -0.28295  -0.26679  -0.26215
 Alpha  occ. eigenvalues --   -0.24913  -0.24512  -0.22774  -0.22472  -0.19913
 Alpha  occ. eigenvalues --   -0.18111  -0.16251  -0.15962  -0.15787   0.04199
 Alpha virt. eigenvalues --    0.05506   0.06667   0.07092   0.07962   0.08480
 Alpha virt. eigenvalues --    0.09030   0.09341   0.09716   0.10184   0.10602
 Alpha virt. eigenvalues --    0.10910   0.11893   0.12236   0.12656   0.12827

  Beta  occ. eigenvalues --  -19.03049 -19.02791 -10.13463 -10.12884 -10.11248
  Beta  occ. eigenvalues --  -10.10379 -10.09004 -10.08190 -10.07463 -10.07280
  Beta  occ. eigenvalues --  -10.07201 -10.06933 -10.06489 -10.06476  -0.93937
  Beta  occ. eigenvalues --   -0.93171  -0.74530  -0.72027  -0.67907  -0.65972
  Beta  occ. eigenvalues --   -0.62027  -0.59174  -0.57309  -0.56318  -0.52822
  Beta  occ. eigenvalues --   -0.48794  -0.44874  -0.42490  -0.40652  -0.39766
  Beta  occ. eigenvalues --   -0.38285  -0.37126  -0.36747  -0.35634  -0.34857
  Beta  occ. eigenvalues --   -0.33463  -0.33180  -0.33127  -0.32375  -0.30651
  Beta  occ. eigenvalues --   -0.30041  -0.29457  -0.28275  -0.26647  -0.26199
  Beta  occ. eigenvalues --   -0.24892  -0.24491  -0.22747  -0.22445  -0.19881
  Beta  occ. eigenvalues --   -0.18091  -0.16230  -0.15944  -0.15769
  Beta virt. eigenvalues --    0.06203   0.06655   0.07029   0.07585   0.08257
  Beta virt. eigenvalues --    0.08942   0.09514   0.09769   0.10182   0.10574
  Beta virt. eigenvalues --    0.10799   0.11118   0.12026   0.12461   0.12989

 Mulliken charges and spin densities:
               1          2
     1  C    1.724047  -2.275079
     2  C   -0.702822   0.668031
     3  C    0.230892  -0.356371
     4  C   -0.907104   0.739531
     5  C    0.041106  -0.211602
     6  C    0.041278  -0.208211
     7  C   -0.183252  -0.324143
     8  C   -1.653398   1.614277
     9  C    0.527542  -0.896227
    10  C    0.173226  -0.309175
    11  C   -0.056207  -0.470850
    12  O   -0.073836   0.007877
    13  C    1.087114  -1.329040
    14  O   -0.199882   0.013697
    15  H   -0.289847   0.452904
    16  H   -0.355663   0.512619
    17  H   -0.385484   0.547802
    18  H    0.016846   0.107440
    19  H   -0.033160   0.209125
    20  H    0.142569   0.006250
    21  H    0.094398   0.111411
    22  H    0.193227   0.049031
    23  H   -0.005814   0.193803
    24  H    0.142162   0.038576
    25  H   -0.173039   0.343167
    26  H    0.247367  -0.169660
    27  H   -0.059361   0.212573
    28  H   -0.008813   0.141378
    29  H    0.321297  -0.164886
    30  H   -0.163743   0.321434
    31  H   -0.319081   0.463511
    32  H   -0.292507   0.438638
    33  H   -0.168776   0.317654
    34  H    0.048717   0.204515
 Sum of Mulliken charges =  -1.00000   1.00000

 Dipole moment (field-independent basis, Debye):
    X=             -2.3847    Y=             -3.0718    Z=             -1.1442  Tot=              4.0537
 Quadrupole moment (field-independent basis, Debye-Ang):
   XX=           -205.3363   YY=           -125.4456   ZZ=           -120.5795
   XY=             -0.7152   XZ=             -5.5598   YZ=              2.5665

 Summary of Natural Population Analysis:

                                       Natural Population
                Natural  -----------------------------------------------
    Atom  No    Charge         Core      Valence    Rydberg      Total
 -----------------------------------------------------------------------
      C    1   -0.31906      0.99961     2.31340    0.00604     3.31906
      C    2   -0.00195      0.99924     1.99652    0.00619     3.00195
      C    3   -0.02270      0.99925     2.01550    0.00794     3.02270
      C    4   -0.22378      0.99957     2.21652    0.00769     3.22378
      C    5   -0.18994      0.99960     2.18125    0.00910     3.18994
      C    6    0.06280      0.99954     1.92435    0.01332     2.93720
      C    7   -0.21215      0.99954     2.20040    0.01220     3.21215
      C    8    0.14686      0.99951     1.83569    0.01794     2.85314
      C    9   -0.20606      0.99959     2.19813    0.00833     3.20606
      C   10   -0.19585      0.99965     2.18824    0.00796     3.19585
      C   11   -0.21200      0.99959     2.20413    0.00828     3.21200
      O   12   -0.30575      0.99987     3.29502    0.01086     4.30575
      C   13   -0.09996      0.99959     2.09058    0.00978     3.09996
      O   14   -0.37460      0.99989     3.36858    0.00612     4.37460
      H   15    0.11226      0.00000     0.38614    0.00160     0.38774
      H   16    0.11162      0.00000     0.38672    0.00166     0.38838
      H   17    0.11332      0.00000     0.38469    0.00199     0.38668
      H   18    0.10859      0.00000     0.38977    0.00164     0.39141
      H   19    0.11008      0.00000     0.38884    0.00108     0.38992
      H   20    0.09853      0.00000     0.40013    0.00134     0.40147
      H   21    0.10559      0.00000     0.39329    0.00112     0.39441
      H   22    0.08792      0.00000     0.41010    0.00199     0.41208
      H   23    0.10652      0.00000     0.39188    0.00159     0.39348
      H   24    0.10872      0.00000     0.38976    0.00152     0.39128
      H   25    0.10274      0.00000     0.39619    0.00107     0.39726
      H   26    0.09970      0.00000     0.39875    0.00156     0.40030
      H   27    0.09424      0.00000     0.40487    0.00089     0.40576
      H   28    0.09835      0.00000     0.40016    0.00149     0.40165
      H   29    0.11526      0.00000     0.38315    0.00159     0.38474
      H   30    0.10086      0.00000     0.39813    0.00101     0.39914
      H   31    0.07946      0.00000     0.41862    0.00193     0.42054
      H   32    0.08004      0.00000     0.41799    0.00197     0.41996
      H   33    0.09146      0.00000     0.40747    0.00107     0.40854
      H   34    0.22886      0.00000     0.26826    0.00288     0.27114
 =======================================================================
   * Total *    0.00000     13.99406    39.84323    0.16272    54.00000

 Normal termination of Gaussian 16 at Thu Dec 10 10:05:03 2020.
