 Gaussian 16, Revision A.03,

 -----------------------------------------------------------
 # opt freq B3LYP/6-31G(d) empiricaldispersion=gd3bj scf=xqc
 -----------------------------------------------------------

 ------------------------------
 CID_69670995_JID_1364_neutraal
 ------------------------------
 Symbolic Z-matrix:
 Charge =  0 Multiplicity = 1

 SCF Done:  E(RB3LYP) =  -517.860187431     A.U. after   14 cycles
 SCF Done:  E(RB3LYP) =  -517.864283786     A.U. after   12 cycles
 SCF Done:  E(RB3LYP) =  -517.863903320     A.U. after   12 cycles
 SCF Done:  E(RB3LYP) =  -517.865218383     A.U. after   12 cycles
 SCF Done:  E(RB3LYP) =  -517.865726811     A.U. after   11 cycles
 SCF Done:  E(RB3LYP) =  -517.866291701     A.U. after   12 cycles
 SCF Done:  E(RB3LYP) =  -517.866517755     A.U. after   12 cycles
 SCF Done:  E(RB3LYP) =  -517.866677085     A.U. after   11 cycles
 SCF Done:  E(RB3LYP) =  -517.866750668     A.U. after   11 cycles
 SCF Done:  E(RB3LYP) =  -517.866784070     A.U. after   11 cycles
 SCF Done:  E(RB3LYP) =  -517.867981500     A.U. after   11 cycles
 SCF Done:  E(RB3LYP) =  -517.868104634     A.U. after   11 cycles
 SCF Done:  E(RB3LYP) =  -517.868119055     A.U. after   10 cycles
 SCF Done:  E(RB3LYP) =  -517.868121345     A.U. after    8 cycles
 SCF Done:  E(RB3LYP) =  -517.868122250     A.U. after    8 cycles
 Optimization completed.
    -- Stationary point found.
 Normal termination of Gaussian 16 at Tue Dec  8 20:09:00 2020.

 --------------------------------------------------------------------
 #N Geom=AllCheck Guess=TCheck SCRF=Check GenChk RB3LYP/6-31G(d) Freq
 --------------------------------------------------------------------

 Structure from the checkpoint file:  "JID_1364.chk"
 ------------------------------
 CID_69670995_JID_1364_neutraal
 ------------------------------
 Charge =  0 Multiplicity = 1

 SCF Done:  E(RB3LYP) =  -517.868122250     A.U. after    1 cycles

  Exact polarizability: 119.310   2.829  92.749  -9.442  -5.410  70.459
 Approx polarizability: 162.434   0.289 151.559 -14.715 -13.137 108.906

                      1                      2                      3
                      A                      A                      A
 Frequencies --     43.5303                83.3878               139.4260
 Red. masses --      4.0871                 3.0198                 4.4615
 Frc consts  --      0.0046                 0.0124                 0.0511
 IR Inten    --      0.3777                 1.0085                 1.0805

                      4                      5                      6
                      A                      A                      A
 Frequencies --    141.2965               226.6642               257.5648
 Red. masses --      4.8545                 4.2274                 1.8798
 Frc consts  --      0.0571                 0.1280                 0.0735
 IR Inten    --      0.4811                 5.2854                 2.3760

                      7                      8                      9
                      A                      A                      A
 Frequencies --    266.2332               298.4840               307.7249
 Red. masses --      1.4163                 2.3156                 1.2215
 Frc consts  --      0.0591                 0.1215                 0.0681
 IR Inten    --      0.1982                 5.1591                24.9241

                     10                     11                     12
                      A                      A                      A
 Frequencies --    376.5921               408.1476               424.1573
 Red. masses --      1.8810                 1.5884                 1.9734
 Frc consts  --      0.1572                 0.1559                 0.2092
 IR Inten    --      3.9050                44.4703                36.0624

                     13                     14                     15
                      A                      A                      A
 Frequencies --    459.7161               495.4615               526.9957
 Red. masses --      2.8839                 3.7441                 3.8582
 Frc consts  --      0.3591                 0.5415                 0.6313
 IR Inten    --     34.7840                14.9543                 7.1379

                     16                     17                     18
                      A                      A                      A
 Frequencies --    581.7658               651.6758               691.0624
 Red. masses --      5.0882                 3.9878                 3.7002
 Frc consts  --      1.0146                 0.9978                 1.0411
 IR Inten    --      1.0718                24.9029                 4.1494

                     19                     20                     21
                      A                      A                      A
 Frequencies --    775.3192               781.1352               829.9399
 Red. masses --      2.1228                 1.9057                 3.2114
 Frc consts  --      0.7518                 0.6851                 1.3033
 IR Inten    --     29.2386                 9.0608                10.3385

                     22                     23                     24
                      A                      A                      A
 Frequencies --    881.6619               918.4642               920.1075
 Red. masses --      1.5790                 1.3874                 1.4002
 Frc consts  --      0.7232                 0.6896                 0.6984
 IR Inten    --     15.2808                72.0849                 6.0145

                     25                     26                     27
                      A                      A                      A
 Frequencies --    933.9020               944.5693               970.9644
 Red. masses --      2.3710                 2.7112                 1.7131
 Frc consts  --      1.2184                 1.4252                 0.9515
 IR Inten    --    130.4369                33.7021                 0.5960

                     28                     29                     30
                      A                      A                      A
 Frequencies --    982.3759              1029.4851              1035.4262
 Red. masses --      3.3154                 3.6853                 1.8726
 Frc consts  --      1.8851                 2.3012                 1.1829
 IR Inten    --     39.3900               121.7798                68.9022

                     31                     32                     33
                      A                      A                      A
 Frequencies --   1055.7264              1098.4982              1110.4449
 Red. masses --      2.4083                 1.6484                 1.7057
 Frc consts  --      1.5815                 1.1720                 1.2392
 IR Inten    --      4.3696                41.4024                22.5975

                     34                     35                     36
                      A                      A                      A
 Frequencies --   1138.9062              1206.4256              1264.4135
 Red. masses --      1.6440                 2.1564                 1.3352
 Frc consts  --      1.2564                 1.8492                 1.2577
 IR Inten    --     11.0363                16.5168                19.1789

                     37                     38                     39
                      A                      A                      A
 Frequencies --   1267.1258              1278.1115              1289.5320
 Red. masses --      1.3688                 1.5746                 1.4794
 Frc consts  --      1.2949                 1.5155                 1.4494
 IR Inten    --     16.3097                14.1353                11.6142

                     40                     41                     42
                      A                      A                      A
 Frequencies --   1333.4194              1361.7794              1404.9431
 Red. masses --      1.4087                 1.2378                 1.3433
 Frc consts  --      1.4757                 1.3524                 1.5622
 IR Inten    --      4.0308                12.2391                12.4341

                     43                     44                     45
                      A                      A                      A
 Frequencies --   1417.9187              1429.9758              1448.4509
 Red. masses --      1.4595                 1.2882                 1.4215
 Frc consts  --      1.7288                 1.5520                 1.7571
 IR Inten    --      3.0430                 3.7307                61.5118

                     46                     47                     48
                      A                      A                      A
 Frequencies --   1451.4765              1459.5961              1503.9877
 Red. masses --      1.4075                 1.6005                 1.1003
 Frc consts  --      1.7470                 2.0090                 1.4663
 IR Inten    --     14.7613                11.8464                11.9726

                     49                     50                     51
                      A                      A                      A
 Frequencies --   1522.2046              1549.0529              1640.6158
 Red. masses --      1.0459                 1.0490                 6.2982
 Frc consts  --      1.4278                 1.4831                 9.9881
 IR Inten    --      3.1986                 3.4991                42.9280

                     52                     53                     54
                      A                      A                      A
 Frequencies --   1696.0838              1710.6572              3010.7373
 Red. masses --      1.1079                 5.2379                 1.0647
 Frc consts  --      1.8778                 9.0309                 5.6862
 IR Inten    --     15.3618                23.3809                17.7147

                     55                     56                     57
                      A                      A                      A
 Frequencies --   3030.4891              3058.8980              3062.6312
 Red. masses --      1.0852                 1.0384                 1.0965
 Frc consts  --      5.8718                 5.7245                 6.0596
 IR Inten    --     56.9152                23.5230                36.4830

                     58                     59                     60
                      A                      A                      A
 Frequencies --   3127.6882              3142.6846              3154.8361
 Red. masses --      1.1006                 1.1015                 1.0894
 Frc consts  --      6.3437                 6.4099                 6.3886
 IR Inten    --     26.3500                22.5145                21.5885

                     61                     62                     63
                      A                      A                      A
 Frequencies --   3178.3697              3222.0166              3241.8444
 Red. masses --      1.0901                 1.0874                 1.1001
 Frc consts  --      6.4883                 6.6514                 6.8120
 IR Inten    --     16.9436                 2.2966                17.4508

                     64                     65                     66
                      A                      A                      A
 Frequencies --   3454.3499              3543.0526              3712.1199
 Red. masses --      1.0493                 1.0913                 1.0656
 Frc consts  --      7.3768                 8.0712                 8.6512
 IR Inten    --      3.4639                 0.5941                12.1623

 - Thermochemistry -
 -------------------
 Temperature   298.150 Kelvin.  Pressure   1.00000 Atm.
 Atom     1 has atomic number  6 and mass  12.00000

 Molecular mass:   155.09463 amu.
 Principal axes and moments of inertia in atomic units:
                           1         2         3
     Eigenvalues --   860.384242350.919852663.94425
           X            0.99976   0.01670  -0.01446
           Y           -0.01702   0.99960  -0.02255
           Z            0.01408   0.02279   0.99964
 This molecule is an asymmetric top.
 Rotational symmetry number  1.
 Warning -- assumption of classical behavior for rotation
           may cause significant error
 Rotational temperatures (Kelvin)      0.10067     0.03684     0.03251
 Rotational constants (GHZ):           2.09760     0.76767     0.67747
 Zero-point vibrational energy     544075.4 (Joules/Mol)
                                  130.03714 (Kcal/Mol)
 Warning -- explicit consideration of  16 degrees of freedom as
           vibrations may cause significant error
 Vibrational temperatures:     62.63   119.98   200.60   203.29   326.12
          (Kelvin)            370.58   383.05   429.45   442.75   541.83
                              587.23   610.27   661.43   712.86   758.23
                              837.03   937.62   994.28  1115.51  1123.88
                             1194.10  1268.51  1321.47  1323.83  1343.68
                             1359.02  1397.00  1413.42  1481.20  1489.75
                             1518.95  1580.49  1597.68  1638.63  1735.78
                             1819.21  1823.11  1838.92  1855.35  1918.49
                             1959.30  2021.40  2040.07  2057.42  2084.00
                             2088.35  2100.03  2163.90  2190.11  2228.74
                             2360.48  2440.29  2461.25  4331.78  4360.20
                             4401.07  4406.44  4500.05  4521.62  4539.11
                             4572.97  4635.76  4664.29  4970.04  5097.66
                             5340.91

 Zero-point correction=                           0.207227 (Hartree/Particle)
 Thermal correction to Energy=                    0.218198
 Thermal correction to Enthalpy=                  0.219142
 Thermal correction to Gibbs Free Energy=         0.170722
 Sum of electronic and zero-point Energies=           -517.660895
 Sum of electronic and thermal Energies=              -517.649924
 Sum of electronic and thermal Enthalpies=            -517.648980
 Sum of electronic and thermal Free Energies=         -517.697400

                     E (Thermal)             CV                S
                      KCal/Mol        Cal/Mol-Kelvin    Cal/Mol-Kelvin
 Total                  136.921             42.319            101.910
 Electronic               0.000              0.000              0.000
 Translational            0.889              2.981             41.026
 Rotational               0.889              2.981             30.067
 Vibrational            135.144             36.358             30.817
 Vibration     1          0.595              1.980              5.092
 Vibration     2          0.600              1.961              3.810
 Vibration     3          0.615              1.914              2.812
 Vibration     4          0.615              1.912              2.786
 Vibration     5          0.650              1.800              1.905
 Vibration     6          0.667              1.750              1.678
 Vibration     7          0.672              1.735              1.621
 Vibration     8          0.692              1.677              1.425
 Vibration     9          0.698              1.659              1.375
 Vibration    10          0.747              1.520              1.053
 Vibration    11          0.773              1.453              0.933
 Vibration    12          0.786              1.418              0.878
 Vibration    13          0.818              1.339              0.767
 Vibration    14          0.851              1.260              0.670
 Vibration    15          0.882              1.190              0.594
 Vibration    16          0.939              1.071              0.482

                           ! Non-Optimized Parameters !
 Normal termination of Gaussian 16 at Tue Dec  8 20:14:50 2020.

 ----------------------------------------------------------------------
 # B3LYP/6-311++G(d,p) empiricaldispersion=gd3bj scf=xqc pop=npa geom=c
 heck
 ----------------------------------------------------------------------

 --------------------------------------
 CID_69670995_JID_1364_Energie_neutraal
 --------------------------------------
 Structure from the checkpoint file:  "JID_1364.chk"
 Charge =  0 Multiplicity = 1

 SCF Done:  E(RB3LYP) =  -518.031588159     A.U. after   15 cycles
 Normal termination of Gaussian 16 at Tue Dec  8 20:17:56 2020.

 ----------------------------------------------------------------------
 # B3LYP/6-311++G(d,p) empiricaldispersion=gd3bj scf=xqc pop=npa geom=c
 heck
 ----------------------------------------------------------------------

 ------------------------------------
 CID_69670995_JID_1364_Energie_kation
 ------------------------------------
 Structure from the checkpoint file:  "JID_1364.chk"
 Charge =  1 Multiplicity = 2

 SCF Done:  E(UB3LYP) =  -517.735679927     A.U. after   23 cycles
 Normal termination of Gaussian 16 at Tue Dec  8 20:23:29 2020.
 Gaussian 16:  ES64L-G16RevA.03 25-Dec-2016

 ----------------------------------------------------------------------
 # B3LYP/6-311++G(d,p) empiricaldispersion=gd3bj scf=xqc pop=npa geom=c
 heck
 ----------------------------------------------------------------------

 -----------------------------------
 CID_69670995_JID_1364_Energie_anion
 -----------------------------------
 Structure from the checkpoint file:  "JID_1364.chk"
 Charge = -1 Multiplicity = 2

                         Standard orientation:
 ---------------------------------------------------------------------
 Center     Atomic      Atomic             Coordinates (Angstroms)
 Number     Number       Type             X           Y           Z
 ---------------------------------------------------------------------
      1          6           0       -2.726067   -1.082630    0.344778
      2          6           0       -2.383996    0.401861    0.198185
      3          6           0       -1.131978    0.840963    1.022131
      4          6           0        0.223209    0.513655    0.457177
      5          6           0        1.102761    1.451620    0.039472
      6          6           0        2.455456    1.084848   -0.331358
      7          6           0        2.879786   -0.157238   -0.026346
      8          8           0        2.061190   -1.099182    0.504014
      9          6           0        0.650763   -0.923047    0.289632
     10          8           0        0.301016   -1.425374   -0.986295
     11          7           0       -2.324754    0.735652   -1.227648
     12          1           0       -1.964593   -1.713913   -0.122697
     13          1           0       -3.679916   -1.289878   -0.149466
     14          1           0       -2.812062   -1.363306    1.400622
     15          1           0       -3.221436    0.973877    0.620823
     16          1           0       -1.179369    1.930687    1.145741
     17          1           0       -1.219303    0.415969    2.033899
     18          1           0        0.828736    2.504276    0.053822
     19          1           0        3.147448    1.812305   -0.738284
     20          1           0        3.900324   -0.511395   -0.123116
     21          1           0        0.181641   -1.597598    1.005011
     22          1           0        0.602482   -0.766732   -1.635327
     23          1           0       -2.032185    1.705759   -1.344577
     24          1           0       -1.595736    0.166640   -1.656694
 ---------------------------------------------------------------------

 SCF Done:  E(UB3LYP) =  -518.021519598     A.U. after   33 cycles
 SCF Done:  E(UB3LYP) =  -518.021519598     a.u. after    1 cycles

 The electronic state is 2-A.
 Alpha  occ. eigenvalues --  -19.03735 -19.02181 -14.17735 -10.16150 -10.09925
 Alpha  occ. eigenvalues --  -10.08385 -10.05185 -10.04649 -10.04574 -10.04374
 Alpha  occ. eigenvalues --  -10.04245  -0.97281  -0.90782  -0.77515  -0.69680
 Alpha  occ. eigenvalues --   -0.65735  -0.62525  -0.58018  -0.53760  -0.50317
 Alpha  occ. eigenvalues --   -0.45952  -0.44308  -0.39200  -0.38695  -0.37299
 Alpha  occ. eigenvalues --   -0.35110  -0.34177  -0.32377  -0.31268  -0.29795
 Alpha  occ. eigenvalues --   -0.29236  -0.27356  -0.26359  -0.25875  -0.25288
 Alpha  occ. eigenvalues --   -0.23027  -0.22162  -0.21341  -0.18091  -0.17337
 Alpha  occ. eigenvalues --   -0.13166  -0.09529   0.04901
 Alpha virt. eigenvalues --    0.07469   0.07789   0.08719   0.09348   0.09845
 Alpha virt. eigenvalues --    0.10191   0.11119   0.11816   0.12531   0.12875
 Alpha virt. eigenvalues --    0.13565   0.15669   0.15877   0.16737   0.17031

  Beta  occ. eigenvalues --  -19.03645 -19.02154 -14.17720 -10.16140 -10.09745
  Beta  occ. eigenvalues --  -10.08361 -10.05180 -10.04523 -10.04434 -10.04387
  Beta  occ. eigenvalues --  -10.04224  -0.97139  -0.90672  -0.77476  -0.69426
  Beta  occ. eigenvalues --   -0.65535  -0.62427  -0.57929  -0.53621  -0.50052
  Beta  occ. eigenvalues --   -0.45868  -0.44181  -0.39097  -0.38563  -0.37211
  Beta  occ. eigenvalues --   -0.34959  -0.34063  -0.32291  -0.31159  -0.29674
  Beta  occ. eigenvalues --   -0.29119  -0.27159  -0.26130  -0.25816  -0.25200
  Beta  occ. eigenvalues --   -0.22900  -0.22077  -0.21193  -0.17972  -0.16767
  Beta  occ. eigenvalues --   -0.13120  -0.08800
  Beta virt. eigenvalues --    0.07488   0.08238   0.08833   0.09435   0.09775
  Beta virt. eigenvalues --    0.10424   0.10519   0.11563   0.12159   0.12828
  Beta virt. eigenvalues --    0.13010   0.14017   0.15715   0.16048   0.16737

 Mulliken charges and spin densities:
               1          2
     1  C    0.307362  -1.005055
     2  C   -0.274048   0.267867
     3  C    1.260513  -1.876642
     4  C   -0.932540   1.819266
     5  C   -0.129628  -0.152095
     6  C    0.962364  -1.234163
     7  C    0.192172  -0.357469
     8  O   -0.046332   0.038674
     9  C   -0.469475  -0.256218
    10  O   -0.157735   0.004335
    11  N   -0.159927  -0.101800
    12  H    0.024484   0.139385
    13  H    0.028057   0.123311
    14  H   -0.093666   0.222060
    15  H   -0.405061   0.593792
    16  H   -0.380437   0.557971
    17  H   -0.286580   0.440724
    18  H   -0.298061   0.447758
    19  H   -0.437048   0.591459
    20  H   -0.270622   0.418270
    21  H    0.162892   0.075198
    22  H    0.156722   0.088819
    23  H    0.070909   0.150462
    24  H    0.175686   0.004090
 Sum of Mulliken charges =  -1.00000   1.00000

 Dipole moment (field-independent basis, Debye):
    X=              0.3684    Y=             -2.2199    Z=             -1.4620  Tot=              2.6835
 Quadrupole moment (field-independent basis, Debye-Ang):
   XX=           -124.3642   YY=           -100.8235   ZZ=            -93.1477
   XY=              1.4441   XZ=              4.2596   YZ=             -5.0488

 Summary of Natural Population Analysis:

                                       Natural Population
                Natural  -----------------------------------------------
    Atom  No    Charge         Core      Valence    Rydberg      Total
 -----------------------------------------------------------------------
      C    1   -0.29341      0.99964     2.28690    0.00686     3.29341
      C    2   -0.01039      0.99962     1.99802    0.01275     3.01039
      C    3   -0.20869      0.99958     2.19699    0.01212     3.20869
      C    4   -0.02463      0.99947     2.01175    0.01341     3.02463
      C    5   -0.08990      0.99946     2.07918    0.01126     3.08990
      C    6   -0.18405      0.99955     2.17367    0.01083     3.18405
      C    7    0.12029      0.99947     1.86468    0.01557     2.87971
      O    8   -0.26739      0.99987     3.25785    0.00967     4.26739
      C    9    0.20574      0.99951     1.77648    0.01827     2.79426
      O   10   -0.36953      0.99989     3.36348    0.00616     4.36953
      N   11   -0.42466      0.99977     2.91519    0.00970     3.92466
      H   12    0.10418      0.00000     0.39452    0.00130     0.39582
      H   13    0.09940      0.00000     0.39971    0.00089     0.40060
      H   14    0.09740      0.00000     0.40155    0.00105     0.40260
      H   15    0.08726      0.00000     0.41023    0.00251     0.41274
      H   16    0.10190      0.00000     0.39586    0.00224     0.39810
      H   17    0.10411      0.00000     0.39372    0.00217     0.39589
      H   18    0.09801      0.00000     0.40071    0.00128     0.40199
      H   19    0.10485      0.00000     0.39384    0.00130     0.39515
      H   20    0.08561      0.00000     0.41314    0.00124     0.41439
      H   21    0.08683      0.00000     0.41157    0.00160     0.41317
      H   22    0.23120      0.00000     0.26578    0.00302     0.26880
      H   23    0.17247      0.00000     0.32568    0.00186     0.32753
      H   24    0.17339      0.00000     0.32428    0.00233     0.32661
 =======================================================================
   * Total *    0.00000     10.99582    30.85478    0.14940    42.00000

 Normal termination of Gaussian 16 at Tue Dec  8 20:32:27 2020.
