 Gaussian 16, Revision A.03,

 -----------------------------------------------------------
 # opt freq B3LYP/6-31G(d) empiricaldispersion=gd3bj scf=xqc
 -----------------------------------------------------------

 -------------------------------
 CID_135518609_JID_4234_neutraal
 -------------------------------
 Symbolic Z-matrix:
 Charge =  0 Multiplicity = 1

 SCF Done:  E(RB3LYP) =  -681.676187480     A.U. after   15 cycles
 SCF Done:  E(RB3LYP) =  -681.682288112     A.U. after   15 cycles
 SCF Done:  E(RB3LYP) =  -681.672840840     A.U. after   17 cycles
 SCF Done:  E(RB3LYP) =  -681.685380532     A.U. after   15 cycles
 SCF Done:  E(RB3LYP) =  -681.686053662     A.U. after   14 cycles
 SCF Done:  E(RB3LYP) =  -681.686257747     A.U. after   13 cycles
 SCF Done:  E(RB3LYP) =  -681.686293724     A.U. after   13 cycles
 SCF Done:  E(RB3LYP) =  -681.686325107     A.U. after   12 cycles
 SCF Done:  E(RB3LYP) =  -681.686328521     A.U. after   10 cycles
 SCF Done:  E(RB3LYP) =  -681.686330286     A.U. after   11 cycles
 SCF Done:  E(RB3LYP) =  -681.686330594     A.U. after   10 cycles
 SCF Done:  E(RB3LYP) =  -681.686330716     A.U. after    9 cycles
 SCF Done:  E(RB3LYP) =  -681.686330727     A.U. after    7 cycles
 Optimization completed.
    -- Stationary point found.
 Normal termination of Gaussian 16 at Thu Dec 10 10:13:11 2020.

 --------------------------------------------------------------------
 #N Geom=AllCheck Guess=TCheck SCRF=Check GenChk RB3LYP/6-31G(d) Freq
 --------------------------------------------------------------------

 Structure from the checkpoint file:  "JID_4234.chk"
 -------------------------------
 CID_135518609_JID_4234_neutraal
 -------------------------------
 Charge =  0 Multiplicity = 1

 SCF Done:  E(RB3LYP) =  -681.686330727     A.U. after    1 cycles

  Exact polarizability: 157.002  -3.116 156.115  -0.622   0.643  39.863
 Approx polarizability: 288.061  -8.891 296.635  -2.349   4.931  64.452

                      1                      2                      3
                      A                      A                      A
 Frequencies --     25.4220                91.6746               134.7205
 Red. masses --     14.0820                 6.4230                 5.1691
 Frc consts  --      0.0054                 0.0318                 0.0553
 IR Inten    --      0.0969                 4.5413                 0.3012

                      4                      5                      6
                      A                      A                      A
 Frequencies --    185.7271               239.1137               295.4223
 Red. masses --      4.5861                 9.2988                 6.4633
 Frc consts  --      0.0932                 0.3132                 0.3323
 IR Inten    --      0.5987                 2.7332                 3.8579

                      7                      8                      9
                      A                      A                      A
 Frequencies --    323.7412               353.9054               394.3883
 Red. masses --      6.5963                10.6619                 1.9829
 Frc consts  --      0.4073                 0.7868                 0.1817
 IR Inten    --      1.2104                 0.4404                42.9548

                     10                     11                     12
                      A                      A                      A
 Frequencies --    413.7753               437.5653               480.4718
 Red. masses --      9.0894                 1.4206                 3.8597
 Frc consts  --      0.9169                 0.1603                 0.5250
 IR Inten    --      1.3475                63.8207                18.5172

                     13                     14                     15
                      A                      A                      A
 Frequencies --    496.3691               564.6664               586.5025
 Red. masses --      7.5644                 5.7261                 4.0600
 Frc consts  --      1.0981                 1.0757                 0.8228
 IR Inten    --      3.0056                 5.8752                 3.4611

                     16                     17                     18
                      A                      A                      A
 Frequencies --    614.1243               663.9844               673.7731
 Red. masses --      4.7382                 8.2581                 4.2823
 Frc consts  --      1.0529                 2.1451                 1.1454
 IR Inten    --      1.9423                17.5943                 3.5955

                     19                     20                     21
                      A                      A                      A
 Frequencies --    743.9251               757.2036               796.6669
 Red. masses --      5.7456                 6.2757                 5.4797
 Frc consts  --      1.8735                 2.1200                 2.0491
 IR Inten    --     15.8787                 4.9149                 7.6057

                     22                     23                     24
                      A                      A                      A
 Frequencies --    808.0947               827.1980               845.3415
 Red. masses --      6.7336                 1.5432                 8.3674
 Frc consts  --      2.5907                 0.6221                 3.5229
 IR Inten    --      6.8636                32.5288                13.8738

                     25                     26                     27
                      A                      A                      A
 Frequencies --    860.4993               961.7003               977.8156
 Red. masses --      1.4286                 1.4015                 1.3566
 Frc consts  --      0.6232                 0.7637                 0.7642
 IR Inten    --     16.6862                 0.5093                 3.0415

                     28                     29                     30
                      A                      A                      A
 Frequencies --   1002.8318              1025.7137              1067.4741
 Red. masses --      1.3914                 4.9180                 3.9713
 Frc consts  --      0.8244                 3.0486                 2.6663
 IR Inten    --      0.2702                87.0883                20.0071

                     31                     32                     33
                      A                      A                      A
 Frequencies --   1119.9191              1183.3883              1210.2066
 Red. masses --      2.2709                 1.8615                 1.7569
 Frc consts  --      1.6781                 1.5359                 1.5161
 IR Inten    --     59.7607                25.6453                47.6145

                     34                     35                     36
                      A                      A                      A
 Frequencies --   1235.3847              1248.3849              1301.9984
 Red. masses --      1.6727                 1.7426                 1.7434
 Frc consts  --      1.5041                 1.6001                 1.7413
 IR Inten    --     36.7309                29.6464                 2.1732

                     37                     38                     39
                      A                      A                      A
 Frequencies --   1322.5171              1369.0075              1384.3557
 Red. masses --      2.9145                 6.4843                 4.5494
 Frc consts  --      3.0035                 7.1602                 5.1369
 IR Inten    --     60.4814               535.5181                91.4200

                     40                     41                     42
                      A                      A                      A
 Frequencies --   1424.2835              1432.3412              1471.5585
 Red. masses --      7.0525                 2.0851                 2.1990
 Frc consts  --      8.4292                 2.5204                 2.8057
 IR Inten    --      4.2130                30.7708                16.5693

                     43                     44                     45
                      A                      A                      A
 Frequencies --   1514.7447              1552.2328              1613.6390
 Red. masses --      2.5131                 4.2834                 9.1888
 Frc consts  --      3.3973                 6.0807                14.0969
 IR Inten    --     20.7885                 0.7564               129.4211

                     46                     47                     48
                      A                      A                      A
 Frequencies --   1623.8165              1645.6577              1682.9778
 Red. masses --      6.8650                 5.8626                 7.3263
 Frc consts  --     10.6651                 9.3545                12.2261
 IR Inten    --    229.9908                 8.4312               162.4944

                     49                     50                     51
                      A                      A                      A
 Frequencies --   3190.9547              3191.3705              3203.8921
 Red. masses --      1.0911                 1.0906                 1.0910
 Frc consts  --      6.5456                 6.5442                 6.5982
 IR Inten    --     22.6469                15.8523                 4.8117

                     52                     53                     54
                      A                      A                      A
 Frequencies --   3257.0788              3300.4502              3745.3329
 Red. masses --      1.0914                 1.0918                 1.0661
 Frc consts  --      6.8216                 7.0069                 8.8107
 IR Inten    --      2.7627                 5.7031                85.9418

 - Thermochemistry -
 -------------------
 Temperature   298.150 Kelvin.  Pressure   1.00000 Atm.
 Atom     1 has atomic number  6 and mass  12.00000

 Molecular mass:   190.03784 amu.
 Principal axes and moments of inertia in atomic units:
                           1         2         3
     Eigenvalues --  1693.670632775.671254460.52750
           X            0.99999   0.00547  -0.00005
           Y           -0.00547   0.99998  -0.00115
           Z            0.00004   0.00115   1.00000
 This molecule is an asymmetric top.
 Rotational symmetry number  1.
 Warning -- assumption of classical behavior for rotation
           may cause significant error
 Rotational temperatures (Kelvin)      0.05114     0.03120     0.01942
 Rotational constants (GHZ):           1.06558     0.65020     0.40460
 Zero-point vibrational energy     376077.8 (Joules/Mol)
                                   89.88476 (Kcal/Mol)
 Warning -- explicit consideration of  16 degrees of freedom as
           vibrations may cause significant error
 Vibrational temperatures:     36.58   131.90   193.83   267.22   344.03
          (Kelvin)            425.05   465.79   509.19   567.44   595.33
                              629.56   691.29   714.16   812.43   843.85
                              883.59   955.33   969.41  1070.34  1089.45
                             1146.23  1162.67  1190.15  1216.26  1238.07
                             1383.67  1406.86  1442.85  1475.77  1535.86
                             1611.31  1702.63  1741.22  1777.44  1796.15
                             1873.29  1902.81  1969.70  1991.78  2049.23
                             2060.82  2117.24  2179.38  2233.32  2321.67
                             2336.31  2367.73  2421.43  4591.07  4591.67
                             4609.69  4686.21  4748.61  5388.70

 Zero-point correction=                           0.143240 (Hartree/Particle)
 Thermal correction to Energy=                    0.153630
 Thermal correction to Enthalpy=                  0.154574
 Thermal correction to Gibbs Free Energy=         0.106028
 Sum of electronic and zero-point Energies=           -681.543090
 Sum of electronic and thermal Energies=              -681.532701
 Sum of electronic and thermal Enthalpies=            -681.531757
 Sum of electronic and thermal Free Energies=         -681.580302

                     E (Thermal)             CV                S
                      KCal/Mol        Cal/Mol-Kelvin    Cal/Mol-Kelvin
 Total                   96.404             40.653            102.173
 Electronic               0.000              0.000              0.000
 Translational            0.889              2.981             41.632
 Rotational               0.889              2.981             31.417
 Vibrational             94.627             34.692             29.124
 Vibration     1          0.593              1.985              6.158
 Vibration     2          0.602              1.955              3.624
 Vibration     3          0.613              1.919              2.878
 Vibration     4          0.632              1.859              2.270
 Vibration     5          0.657              1.781              1.809
 Vibration     6          0.690              1.682              1.443
 Vibration     7          0.708              1.628              1.291
 Vibration     8          0.730              1.567              1.149
 Vibration     9          0.761              1.482              0.984
 Vibration    10          0.777              1.440              0.913
 Vibration    11          0.798              1.388              0.834
 Vibration    12          0.837              1.293              0.709
 Vibration    13          0.852              1.258              0.667
 Vibration    14          0.920              1.108              0.515
 Vibration    15          0.944              1.061              0.473
 Vibration    16          0.974              1.002              0.426

 Optimization completed.
    -- Stationary point found.
 Normal termination of Gaussian 16 at Thu Dec 10 10:18:03 2020.

 ----------------------------------------------------------------------
 # B3LYP/6-311++G(d,p) empiricaldispersion=gd3bj scf=xqc pop=npa geom=c
 heck
 ----------------------------------------------------------------------

 ---------------------------------------
 CID_135518609_JID_4234_Energie_neutraal
 ---------------------------------------
 Structure from the checkpoint file:  "JID_4234.chk"
 Charge =  0 Multiplicity = 1

 SCF Done:  E(RB3LYP) =  -681.878165503     A.U. after   16 cycles
 Normal termination of Gaussian 16 at Thu Dec 10 10:20:03 2020.

 ----------------------------------------------------------------------
 # B3LYP/6-311++G(d,p) empiricaldispersion=gd3bj scf=xqc pop=npa geom=c
 heck
 ----------------------------------------------------------------------

 -------------------------------------
 CID_135518609_JID_4234_Energie_kation
 -------------------------------------
 Structure from the checkpoint file:  "JID_4234.chk"
 Charge =  1 Multiplicity = 2

 SCF Done:  E(UB3LYP) =  -681.556331984     A.U. after   29 cycles
 Normal termination of Gaussian 16 at Thu Dec 10 10:25:00 2020.
 Gaussian 16:  ES64L-G16RevA.03 25-Dec-2016

 ----------------------------------------------------------------------
 # B3LYP/6-311++G(d,p) empiricaldispersion=gd3bj scf=xqc pop=npa geom=c
 heck
 ----------------------------------------------------------------------

 ------------------------------------
 CID_135518609_JID_4234_Energie_anion
 ------------------------------------
 Structure from the checkpoint file:  "JID_4234.chk"
 Charge = -1 Multiplicity = 2

                         Standard orientation:
 ---------------------------------------------------------------------
 Center     Atomic      Atomic             Coordinates (Angstroms)
 Number     Number       Type             X           Y           Z
 ---------------------------------------------------------------------
      1          6           0        1.031581   -1.722573    0.004631
      2          6           0       -0.229600   -2.327818    0.017009
      3          6           0       -1.365399   -1.538229    0.018503
      4          6           0       -1.257654   -0.116422    0.003650
      5          6           0       -2.419949    0.697608   -0.011573
      6          7           0       -2.401719    2.014681   -0.034800
      7          6           0       -1.179843    2.604631   -0.046041
      8          6           0        0.022254    1.931452   -0.029184
      9          6           0        0.029088    0.513371   -0.001098
     10          6           0        1.174428   -0.347720    0.002392
     11          7           0        2.550193    0.150212    0.007617
     12          8           0        2.749448    1.351689    0.203245
     13          8           0        3.456469   -0.666870   -0.174404
     14          8           0       -2.617044   -2.052787    0.031808
     15          1           0        1.927612   -2.329407   -0.000168
     16          1           0       -0.309957   -3.411553    0.027741
     17          1           0       -3.394735    0.217757   -0.006425
     18          1           0       -1.186741    3.691779   -0.068677
     19          1           0        0.951963    2.477179   -0.034906
     20          1           0       -2.567884   -3.022074    0.037776
 ---------------------------------------------------------------------

 SCF Done:  E(UB3LYP) =  -681.929075354     A.U. after   22 cycles

 The electronic state is 2-A.
 Alpha  occ. eigenvalues --  -19.04898 -18.96352 -18.96255 -14.34763 -14.17797
 Alpha  occ. eigenvalues --  -10.10667 -10.07352 -10.07268 -10.06983 -10.06956
 Alpha  occ. eigenvalues --  -10.06076 -10.05376 -10.04313 -10.03922  -1.04281
 Alpha  occ. eigenvalues --   -0.96363  -0.86942  -0.81266  -0.73690  -0.66089
 Alpha  occ. eigenvalues --   -0.65318  -0.62259  -0.55203  -0.51472  -0.50938
 Alpha  occ. eigenvalues --   -0.47268  -0.42760  -0.39765  -0.39173  -0.37109
 Alpha  occ. eigenvalues --   -0.36188  -0.33724  -0.33200  -0.32517  -0.31314
 Alpha  occ. eigenvalues --   -0.30978  -0.29049  -0.27301  -0.26706  -0.24507
 Alpha  occ. eigenvalues --   -0.23193  -0.21670  -0.16022  -0.14800  -0.14255
 Alpha  occ. eigenvalues --   -0.14012  -0.13041  -0.11536  -0.09943   0.01163
 Alpha virt. eigenvalues --    0.06978   0.08652   0.09564   0.09945   0.10177
 Alpha virt. eigenvalues --    0.11650   0.13321   0.14276   0.14853   0.15300
 Alpha virt. eigenvalues --    0.15637   0.16940   0.17353   0.17955   0.18506

  Beta  occ. eigenvalues --  -19.04797 -18.95989 -18.95929 -14.34300 -14.17838
  Beta  occ. eigenvalues --  -10.10234 -10.07326 -10.07070 -10.06947 -10.06855
  Beta  occ. eigenvalues --  -10.06177 -10.05508 -10.04011 -10.03897  -1.03513
  Beta  occ. eigenvalues --   -0.96084  -0.86285  -0.81149  -0.73433  -0.65782
  Beta  occ. eigenvalues --   -0.65004  -0.61948  -0.54524  -0.51196  -0.50638
  Beta  occ. eigenvalues --   -0.47020  -0.42549  -0.39578  -0.38696  -0.36869
  Beta  occ. eigenvalues --   -0.34057  -0.33338  -0.33037  -0.32258  -0.30875
  Beta  occ. eigenvalues --   -0.30268  -0.28937  -0.27157  -0.26187  -0.24362
  Beta  occ. eigenvalues --   -0.23082  -0.20922  -0.15309  -0.13999  -0.13580
  Beta  occ. eigenvalues --   -0.12918  -0.12338  -0.11195  -0.08786
  Beta virt. eigenvalues --    0.06971   0.07047   0.09557   0.09931   0.10167
  Beta virt. eigenvalues --    0.11331   0.11653   0.13316   0.14266   0.15004
  Beta virt. eigenvalues --    0.15644   0.16413   0.16940   0.17359   0.18137

 Mulliken charges and spin densities:
               1          2
     1  C   -0.086519   0.322001
     2  C    0.001607  -0.099112
     3  C   -1.745933   0.265119
     4  C    0.795061  -0.070473
     5  C   -0.295308   0.143507
     6  N   -0.054414  -0.025353
     7  C   -0.737605   0.071024
     8  C    0.843510   0.019109
     9  C    1.528866   0.006578
    10  C   -1.626537  -0.055662
    11  N   -0.218208   0.160576
    12  O   -0.165577   0.139016
    13  O   -0.138608   0.126525
    14  O   -0.250819   0.026646
    15  H    0.231469  -0.016026
    16  H    0.096933   0.005427
    17  H    0.186506  -0.010313
    18  H    0.144008  -0.005256
    19  H    0.247588  -0.002549
    20  H    0.243981  -0.000783
 Sum of Mulliken charges =  -1.00000   1.00000

 Dipole moment (field-independent basis, Debye):
    X=             -4.9559    Y=             -4.0576    Z=             -0.0063  Tot=              6.4051
 Quadrupole moment (field-independent basis, Debye-Ang):
   XX=           -131.7111   YY=            -87.4406   ZZ=            -86.4573
   XY=              8.4350   XZ=              0.0361   YZ=             -1.0109

 Summary of Natural Population Analysis:

                                       Natural Population
                Natural  -----------------------------------------------
    Atom  No    Charge         Core      Valence    Rydberg      Total
 -----------------------------------------------------------------------
      C    1   -0.01399      0.99955     2.00528    0.00916     3.01399
      C    2   -0.18689      0.99953     2.17826    0.00910     3.18689
      C    3    0.25440      0.99938     1.73453    0.01170     2.74560
      C    4   -0.09082      0.99947     2.08386    0.00750     3.09082
      C    5    0.08236      0.99958     1.90313    0.01493     2.91764
      N    6   -0.25743      0.99972     2.74479    0.01293     3.75743
      C    7    0.03229      0.99958     1.95314    0.01499     2.96771
      C    8   -0.11687      0.99953     2.10866    0.00868     3.11687
      C    9   -0.00300      0.99948     1.99512    0.00839     3.00300
      C   10    0.02435      0.99937     1.96305    0.01324     2.97565
      N   11    0.28953      0.99972     2.18213    0.02863     3.21047
      O   12   -0.20020      0.99990     3.19225    0.00806     4.20020
      O   13   -0.20745      0.99990     3.20009    0.00746     4.20745
      O   14   -0.33210      0.99987     3.32634    0.00589     4.33210
      H   15    0.11252      0.00000     0.38632    0.00116     0.38748
      H   16    0.09133      0.00000     0.40742    0.00125     0.40867
      H   17    0.08884      0.00000     0.40968    0.00148     0.41116
      H   18    0.08146      0.00000     0.41729    0.00126     0.41854
      H   19    0.12239      0.00000     0.37647    0.00114     0.37761
      H   20    0.22934      0.00000     0.26875    0.00191     0.27066
 =======================================================================
   * Total *    0.00003     13.99457    34.83654    0.16886    48.99997

 Normal termination of Gaussian 16 at Thu Dec 10 10:28:48 2020.
