 Gaussian 16, Revision A.03,

 -----------------------------------------------------------
 # opt freq B3LYP/6-31G(d) empiricaldispersion=gd3bj scf=xqc
 -----------------------------------------------------------

 ------------------------------
 CID_19767037_JID_3879_neutraal
 ------------------------------
 Symbolic Z-matrix:
 Charge =  0 Multiplicity = 1

 SCF Done:  E(RB3LYP) =  -576.881393793     A.U. after   14 cycles
 SCF Done:  E(RB3LYP) =  -576.883957233     A.U. after   12 cycles
 SCF Done:  E(RB3LYP) =  -576.884089467     A.U. after   10 cycles
 SCF Done:  E(RB3LYP) =  -576.884097889     A.U. after    8 cycles
 SCF Done:  E(RB3LYP) =  -576.884099801     A.U. after    8 cycles
 SCF Done:  E(RB3LYP) =  -576.884100842     A.U. after    8 cycles
 SCF Done:  E(RB3LYP) =  -576.884101729     A.U. after    8 cycles
 SCF Done:  E(RB3LYP) =  -576.884102640     A.U. after    8 cycles
 SCF Done:  E(RB3LYP) =  -576.884103353     A.U. after    8 cycles
 SCF Done:  E(RB3LYP) =  -576.884104448     A.U. after    9 cycles
 SCF Done:  E(RB3LYP) =  -576.884548683     A.U. after   11 cycles
 SCF Done:  E(RB3LYP) =  -576.884558692     A.U. after   10 cycles
 SCF Done:  E(RB3LYP) =  -576.884573032     A.U. after   10 cycles
 SCF Done:  E(RB3LYP) =  -576.884574320     A.U. after    8 cycles
 SCF Done:  E(RB3LYP) =  -576.884574415     A.U. after    7 cycles
 Optimization completed.
    -- Stationary point found.
 Normal termination of Gaussian 16 at Sun Dec 13 20:17:04 2020.

 --------------------------------------------------------------------
 #N Geom=AllCheck Guess=TCheck SCRF=Check GenChk RB3LYP/6-31G(d) Freq
 --------------------------------------------------------------------

 Structure from the checkpoint file:  "JID_3879.chk"
 ------------------------------
 CID_19767037_JID_3879_neutraal
 ------------------------------
 Charge =  0 Multiplicity = 1

 SCF Done:  E(RB3LYP) =  -576.884574415     A.U. after    1 cycles

  Exact polarizability: 180.369   3.077 124.146   0.001  -0.002  58.933
 Approx polarizability: 248.763   9.982 216.776   0.003  -0.004  89.362

                      1                      2                      3
                      A                      A                      A
 Frequencies --     49.3857                57.4139                98.7599
 Red. masses --      2.4599                 1.0802                 2.4044
 Frc consts  --      0.0035                 0.0021                 0.0138
 IR Inten    --      0.1622                 0.1843                 2.6193

                      4                      5                      6
                      A                      A                      A
 Frequencies --    139.0731               180.7181               203.0000
 Red. masses --      3.4825                 3.8564                 3.1540
 Frc consts  --      0.0397                 0.0742                 0.0766
 IR Inten    --      1.4103                 2.0512                 1.3567

                      7                      8                      9
                      A                      A                      A
 Frequencies --    243.1255               254.0220               289.2754
 Red. masses --      1.7369                 4.5676                 2.0779
 Frc consts  --      0.0605                 0.1737                 0.1024
 IR Inten    --      0.9902                 4.9728                 0.0109

                     10                     11                     12
                      A                      A                      A
 Frequencies --    290.0825               340.5097               385.0601
 Red. masses --      2.8231                 1.3103                 2.8128
 Frc consts  --      0.1400                 0.0895                 0.2457
 IR Inten    --      0.1951                73.4317                40.5714

                     13                     14                     15
                      A                      A                      A
 Frequencies --    397.5202               477.7874               517.2016
 Red. masses --      4.9963                 3.9806                 5.1806
 Frc consts  --      0.4652                 0.5354                 0.8165
 IR Inten    --      0.7258                 0.2512                 4.1373

                     16                     17                     18
                      A                      A                      A
 Frequencies --    576.3738               577.0937               596.3561
 Red. masses --      5.0829                 6.4768                 3.2530
 Frc consts  --      0.9949                 1.2709                 0.6816
 IR Inten    --      0.4609                 0.7251                 1.5757

                     19                     20                     21
                      A                      A                      A
 Frequencies --    632.1677               641.2639               700.4264
 Red. masses --      4.0138                 3.8851                 3.9064
 Frc consts  --      0.9451                 0.9413                 1.1292
 IR Inten    --      0.0005                 6.9672                 1.6861

                     22                     23                     24
                      A                      A                      A
 Frequencies --    735.0927               795.9779               807.8365
 Red. masses --      4.6235                 1.2381                 1.3516
 Frc consts  --      1.4720                 0.4622                 0.5197
 IR Inten    --      2.0748                 0.0869                20.1303

                     25                     26                     27
                      A                      A                      A
 Frequencies --    822.2099               839.4718               853.1727
 Red. masses --      1.2927                 5.5651                 1.3928
 Frc consts  --      0.5149                 2.3107                 0.5973
 IR Inten    --     18.0926                 9.8340                17.8158

                     28                     29                     30
                      A                      A                      A
 Frequencies --    953.0055               992.7068              1019.1849
 Red. masses --      3.4288                 4.2613                 2.2540
 Frc consts  --      1.8348                 2.4742                 1.3795
 IR Inten    --     20.4082                 2.9469                 6.6019

                     31                     32                     33
                      A                      A                      A
 Frequencies --   1028.0407              1074.4033              1094.1289
 Red. masses --      1.4605                 1.4782                 2.0091
 Frc consts  --      0.9094                 1.0054                 1.4171
 IR Inten    --     11.8959                 3.5270                 1.7869

                     34                     35                     36
                      A                      A                      A
 Frequencies --   1110.1134              1127.1200              1168.3061
 Red. masses --      3.4472                 1.5266                 1.7163
 Frc consts  --      2.5030                 1.1427                 1.3802
 IR Inten    --     66.9751                 0.0018                44.1327

                     37                     38                     39
                      A                      A                      A
 Frequencies --   1178.9403              1217.7783              1266.2628
 Red. masses --      2.7524                 1.5745                 2.3925
 Frc consts  --      2.2539                 1.3757                 2.2602
 IR Inten    --     53.2287                50.2857                 0.6656

                     40                     41                     42
                      A                      A                      A
 Frequencies --   1271.6810              1294.8004              1326.4601
 Red. masses --      2.1159                 1.1621                 1.5812
 Frc consts  --      2.0160                 1.1479                 1.6392
 IR Inten    --     49.1958                 0.0102                70.1507

                     43                     44                     45
                      A                      A                      A
 Frequencies --   1387.7298              1398.5045              1414.1706
 Red. masses --      4.5531                 4.1072                 2.4666
 Frc consts  --      5.1661                 4.7329                 2.9064
 IR Inten    --     92.3612                 0.5139                 8.0830

                     46                     47                     48
                      A                      A                      A
 Frequencies --   1442.1519              1443.6116              1488.2399
 Red. masses --      1.2903                 1.2867                 3.2292
 Frc consts  --      1.5812                 1.5799                 4.2140
 IR Inten    --      4.0414                 0.8728                42.8282

                     49                     50                     51
                      A                      A                      A
 Frequencies --   1510.7744              1515.2201              1521.8650
 Red. masses --      1.1580                 1.0445                 1.4880
 Frc consts  --      1.5573                 1.4128                 2.0305
 IR Inten    --      2.8707                 5.3106                21.5741

                     52                     53                     54
                      A                      A                      A
 Frequencies --   1528.1336              1539.1305              1545.7097
 Red. masses --      1.0395                 1.0977                 1.8949
 Frc consts  --      1.4302                 1.5321                 2.6675
 IR Inten    --      6.6444                 3.0754                36.5389

                     55                     56                     57
                      A                      A                      A
 Frequencies --   1652.8321              1657.1955              1694.6749
 Red. masses --      6.4199                 7.0376                 7.2185
 Frc consts  --     10.3332                11.3873                12.2144
 IR Inten    --     10.1572                95.7939                30.1092

                     58                     59                     60
                      A                      A                      A
 Frequencies --   3033.6217              3041.0831              3058.0467
 Red. masses --      1.0600                 1.0378                 1.1019
 Frc consts  --      5.7473                 5.6550                 6.0711
 IR Inten    --     26.5605                43.7616                11.5535

                     61                     62                     63
                      A                      A                      A
 Frequencies --   3058.6375              3090.9022              3125.4880
 Red. masses --      1.0353                 1.1010                 1.1031
 Frc consts  --      5.7067                 6.1974                 6.3487
 IR Inten    --     23.5045                24.4335                31.2175

                     64                     65                     66
                      A                      A                      A
 Frequencies --   3126.9101              3132.9979              3157.9729
 Red. masses --      1.1002                 1.1026                 1.0894
 Frc consts  --      6.3378                 6.3764                 6.4010
 IR Inten    --     17.3604                33.6730                20.8853

                     67                     68                     69
                      A                      A                      A
 Frequencies --   3197.3347              3273.4962              3750.9600
 Red. masses --      1.0906                 1.0962                 1.0658
 Frc consts  --      6.5691                 6.9207                 8.8354
 IR Inten    --     12.9672                 5.4753                43.4316

 - Thermochemistry -
 -------------------
 Temperature   298.150 Kelvin.  Pressure   1.00000 Atm.
 Atom     1 has atomic number  6 and mass  12.00000

 Molecular mass:   176.08373 amu.
 Principal axes and moments of inertia in atomic units:
                           1         2         3
     Eigenvalues --  1100.317093651.561674718.33966
           X            1.00000   0.00179   0.00000
           Y           -0.00179   1.00000   0.00000
           Z           -0.00000  -0.00000   1.00000
 This molecule is an asymmetric top.
 Rotational symmetry number  1.
 Warning -- assumption of classical behavior for rotation
           may cause significant error
 Rotational temperatures (Kelvin)      0.07872     0.02372     0.01836
 Rotational constants (GHZ):           1.64020     0.49424     0.38249
 Zero-point vibrational energy     540776.1 (Joules/Mol)
                                  129.24859 (Kcal/Mol)
 Warning -- explicit consideration of  18 degrees of freedom as
           vibrations may cause significant error
 Vibrational temperatures:     71.06    82.61   142.09   200.10   260.01
          (Kelvin)            292.07   349.80   365.48   416.20   417.36
                              489.92   554.02   571.94   687.43   744.14
                              829.27   830.31   858.02   909.55   922.64
                             1007.76  1057.63  1145.23  1162.30  1182.98
                             1207.81  1227.53  1371.16  1428.28  1466.38
                             1479.12  1545.83  1574.21  1597.21  1621.67
                             1680.93  1696.23  1752.11  1821.87  1829.67
                             1862.93  1908.48  1996.63  2012.14  2034.68
                             2074.93  2077.04  2141.25  2173.67  2180.06
                             2189.62  2198.64  2214.47  2223.93  2378.06
                             2384.33  2438.26  4364.71  4375.44  4399.85
                             4400.70  4447.12  4496.88  4498.93  4507.69
                             4543.62  4600.25  4709.83  5396.79

 Zero-point correction=                           0.205971 (Hartree/Particle)
 Thermal correction to Energy=                    0.218094
 Thermal correction to Enthalpy=                  0.219038
 Thermal correction to Gibbs Free Energy=         0.167445
 Sum of electronic and zero-point Energies=           -576.678604
 Sum of electronic and thermal Energies=              -576.666480
 Sum of electronic and thermal Enthalpies=            -576.665536
 Sum of electronic and thermal Free Energies=         -576.717129

                     E (Thermal)             CV                S
                      KCal/Mol        Cal/Mol-Kelvin    Cal/Mol-Kelvin
 Total                  136.856             46.253            108.587
 Electronic               0.000              0.000              0.000
 Translational            0.889              2.981             41.405
 Rotational               0.889              2.981             31.317
 Vibrational            135.079             40.291             35.865
 Vibration     1          0.595              1.978              4.842
 Vibration     2          0.596              1.975              4.544
 Vibration     3          0.604              1.950              3.479
 Vibration     4          0.615              1.914              2.817
 Vibration     5          0.630              1.866              2.321
 Vibration     6          0.639              1.836              2.106
 Vibration     7          0.659              1.774              1.780
 Vibration     8          0.665              1.756              1.702
 Vibration     9          0.686              1.694              1.478
 Vibration    10          0.686              1.692              1.473
 Vibration    11          0.720              1.595              1.210
 Vibration    12          0.754              1.502              1.019
 Vibration    13          0.764              1.475              0.972
 Vibration    14          0.834              1.299              0.716
 Vibration    15          0.872              1.212              0.616
 Vibration    16          0.933              1.082              0.492
 Vibration    17          0.934              1.081              0.491
 Vibration    18          0.954              1.040              0.456

 Optimization completed.
    -- Stationary point found.
 Normal termination of Gaussian 16 at Sun Dec 13 20:22:34 2020.

 ----------------------------------------------------------------------
 # B3LYP/6-311++G(d,p) empiricaldispersion=gd3bj scf=xqc pop=npa geom=c
 heck
 ----------------------------------------------------------------------

 --------------------------------------
 CID_19767037_JID_3879_Energie_neutraal
 --------------------------------------
 Structure from the checkpoint file:  "JID_3879.chk"
 Charge =  0 Multiplicity = 1

 SCF Done:  E(RB3LYP) =  -577.046107674     A.U. after   14 cycles
 Normal termination of Gaussian 16 at Sun Dec 13 20:24:52 2020.

 ----------------------------------------------------------------------
 # B3LYP/6-311++G(d,p) empiricaldispersion=gd3bj scf=xqc pop=npa geom=c
 heck
 ----------------------------------------------------------------------

 ------------------------------------
 CID_19767037_JID_3879_Energie_kation
 ------------------------------------
 Structure from the checkpoint file:  "JID_3879.chk"
 Charge =  1 Multiplicity = 2

 SCF Done:  E(UB3LYP) =  -576.765782638     A.U. after   23 cycles
 Normal termination of Gaussian 16 at Sun Dec 13 20:30:15 2020.
 Gaussian 16:  ES64L-G16RevA.03 25-Dec-2016

 ----------------------------------------------------------------------
 # B3LYP/6-311++G(d,p) empiricaldispersion=gd3bj scf=xqc pop=npa geom=c
 heck
 ----------------------------------------------------------------------

 -----------------------------------
 CID_19767037_JID_3879_Energie_anion
 -----------------------------------
 Structure from the checkpoint file:  "JID_3879.chk"
 Charge = -1 Multiplicity = 2

                         Standard orientation:
 ---------------------------------------------------------------------
 Center     Atomic      Atomic             Coordinates (Angstroms)
 Number     Number       Type             X           Y           Z
 ---------------------------------------------------------------------
      1          6           0        4.353853   -0.898413   -0.000150
      2          6           0        3.463750    0.346282   -0.000010
      3          6           0        2.008929    0.021343    0.000045
      4          6           0        1.312622   -1.148081    0.000092
      5          6           0       -0.089625   -0.802507    0.000123
      6          6           0       -0.114229    0.599352    0.000095
      7          8           0        1.158184    1.107733    0.000007
      8          6           0       -1.301485    1.331286    0.000016
      9          6           0       -2.487053    0.598392   -0.000005
     10          6           0       -2.497240   -0.814443   -0.000008
     11          6           0       -1.297244   -1.520050    0.000105
     12          6           0       -3.822250   -1.539883   -0.000141
     13          8           0       -1.238158    2.694974   -0.000033
     14          1           0        4.168577   -1.515182    0.885761
     15          1           0        5.410485   -0.614477   -0.000368
     16          1           0        4.168232   -1.515204   -0.885977
     17          1           0        3.687239    0.971496    0.875491
     18          1           0        3.687135    0.971608   -0.875460
     19          1           0        1.737465   -2.141432    0.000226
     20          1           0       -3.434629    1.135462   -0.000075
     21          1           0       -1.299013   -2.605996    0.000179
     22          1           0       -3.679194   -2.624576   -0.000371
     23          1           0       -4.421187   -1.282040    0.882260
     24          1           0       -4.421183   -1.281599   -0.882421
     25          1           0       -2.144302    3.040610   -0.000006
 ---------------------------------------------------------------------

 SCF Done:  E(UB3LYP) =  -577.032667510     A.U. after   33 cycles
 SCF Done:  E(UB3LYP) =  -577.032667510     a.u. after    1 cycles

 The electronic state is 2-A.
 Alpha  occ. eigenvalues --  -19.08569 -19.05360 -10.14119 -10.13857 -10.12372
 Alpha  occ. eigenvalues --  -10.09161 -10.08617 -10.08407 -10.07482 -10.07374
 Alpha  occ. eigenvalues --  -10.07367 -10.07025 -10.06942  -1.01108  -0.96305
 Alpha  occ. eigenvalues --   -0.76073  -0.71759  -0.69095  -0.66484  -0.62161
 Alpha  occ. eigenvalues --   -0.59971  -0.55793  -0.51739  -0.49338  -0.47479
 Alpha  occ. eigenvalues --   -0.44020  -0.42321  -0.39226  -0.38119  -0.35824
 Alpha  occ. eigenvalues --   -0.34777  -0.34511  -0.32448  -0.31525  -0.31155
 Alpha  occ. eigenvalues --   -0.30243  -0.29694  -0.28806  -0.27820  -0.26943
 Alpha  occ. eigenvalues --   -0.26530  -0.25614  -0.25319  -0.23283  -0.17938
 Alpha  occ. eigenvalues --   -0.12818  -0.11631   0.04239
 Alpha virt. eigenvalues --    0.05521   0.06730   0.07568   0.07833   0.08818
 Alpha virt. eigenvalues --    0.09149   0.09369   0.09551   0.10659   0.11479
 Alpha virt. eigenvalues --    0.12271   0.12340   0.12587   0.13452   0.14810

  Beta  occ. eigenvalues --  -19.08567 -19.05306 -10.14119 -10.13859 -10.12367
  Beta  occ. eigenvalues --  -10.09146 -10.08617 -10.08407 -10.07469 -10.07353
  Beta  occ. eigenvalues --  -10.07325 -10.07015 -10.06912  -1.01105  -0.96199
  Beta  occ. eigenvalues --   -0.76057  -0.71738  -0.69076  -0.66448  -0.62127
  Beta  occ. eigenvalues --   -0.59938  -0.55719  -0.51676  -0.49308  -0.47443
  Beta  occ. eigenvalues --   -0.43944  -0.42299  -0.39186  -0.38104  -0.35787
  Beta  occ. eigenvalues --   -0.34758  -0.34485  -0.32426  -0.31474  -0.31115
  Beta  occ. eigenvalues --   -0.30215  -0.29658  -0.28746  -0.27796  -0.26903
  Beta  occ. eigenvalues --   -0.26498  -0.25574  -0.25300  -0.23268  -0.17918
  Beta  occ. eigenvalues --   -0.12807  -0.11612
  Beta virt. eigenvalues --    0.06367   0.06798   0.07600   0.07924   0.08427
  Beta virt. eigenvalues --    0.09103   0.09362   0.09512   0.10181   0.11170
  Beta virt. eigenvalues --    0.11553   0.12438   0.12667   0.12957   0.13473

 Mulliken charges and spin densities:
               1          2
     1  C    0.830503  -1.281601
     2  C   -2.128149   1.752489
     3  C    0.500906  -0.403832
     4  C    0.026237   0.276520
     5  C    0.413147  -0.033669
     6  C    1.488677  -2.527716
     7  O   -0.067323   0.014856
     8  C    0.253627  -0.672123
     9  C   -0.249688   0.412491
    10  C    0.687311   0.037606
    11  C   -1.847684   1.173368
    12  C    2.262798  -2.614794
    13  O   -0.311385   0.070328
    14  H   -0.084318   0.220829
    15  H   -0.877745   1.052317
    16  H   -0.084400   0.220907
    17  H    0.036788   0.125454
    18  H    0.036909   0.125312
    19  H   -0.137089   0.308243
    20  H   -0.991433   1.149410
    21  H   -0.131746   0.222414
    22  H   -0.147183   0.295825
    23  H    0.002192   0.152051
    24  H    0.002081   0.152144
    25  H   -0.483031   0.771170
 Sum of Mulliken charges =  -1.00000   1.00000

 Dipole moment (field-independent basis, Debye):
    X=              0.0399    Y=             -3.0979    Z=              0.0005  Tot=              3.0982
 Quadrupole moment (field-independent basis, Debye-Ang):
   XX=           -174.2932   YY=           -122.8507   ZZ=           -100.7622
   XY=             17.7265   XZ=              0.0014   YZ=             -0.0005

 Summary of Natural Population Analysis:

                                       Natural Population
                Natural  -----------------------------------------------
    Atom  No    Charge         Core      Valence    Rydberg      Total
 -----------------------------------------------------------------------
      C    1   -0.28438      0.99967     2.27988    0.00483     3.28438
      C    2   -0.21333      0.99960     2.20451    0.00922     3.21333
      C    3    0.17066      0.99946     1.81594    0.01394     2.82934
      C    4   -0.15074      0.99945     2.14352    0.00778     3.15074
      C    5   -0.04375      0.99951     2.03523    0.00901     3.04375
      C    6    0.12802      0.99931     1.85951    0.01316     2.87198
      O    7   -0.23718      0.99985     3.22997    0.00737     4.23718
      C    8    0.14929      0.99934     1.83755    0.01382     2.85071
      C    9   -0.14161      0.99949     2.13185    0.01026     3.14161
      C   10   -0.01511      0.99954     2.00550    0.01007     3.01511
      C   11   -0.11407      0.99948     2.10615    0.00843     3.11407
      C   12   -0.28949      0.99964     2.28486    0.00500     3.28949
      O   13   -0.33348      0.99988     3.32638    0.00722     4.33348
      H   14    0.09910      0.00000     0.39947    0.00143     0.40090
      H   15    0.10375      0.00000     0.39443    0.00182     0.39625
      H   16    0.09910      0.00000     0.39947    0.00143     0.40090
      H   17    0.10678      0.00000     0.39180    0.00142     0.39322
      H   18    0.10678      0.00000     0.39180    0.00142     0.39322
      H   19    0.11131      0.00000     0.38779    0.00090     0.38869
      H   20    0.10363      0.00000     0.39322    0.00315     0.39637
      H   21    0.09852      0.00000     0.40018    0.00130     0.40148
      H   22    0.09949      0.00000     0.39955    0.00096     0.40051
      H   23    0.10297      0.00000     0.39571    0.00133     0.39703
      H   24    0.10297      0.00000     0.39571    0.00133     0.39703
      H   25    0.24077      0.00000     0.24678    0.01245     0.25923
 =======================================================================
   * Total *    0.00000     12.99420    33.85676    0.14904    47.00000

 Normal termination of Gaussian 16 at Sun Dec 13 20:37:56 2020.
