 Gaussian 16, Revision A.03,

 -----------------------------------------------------------
 # opt freq B3LYP/6-31G(d) empiricaldispersion=gd3bj scf=xqc
 -----------------------------------------------------------

 -------------------------------
 CID_114809617_JID_6910_neutraal
 -------------------------------
 Symbolic Z-matrix:
 Charge =  0 Multiplicity = 1

 SCF Done:  E(RB3LYP) =  -1127.62991717     A.U. after   14 cycles
 SCF Done:  E(RB3LYP) =  -1127.64121235     A.U. after   12 cycles
 SCF Done:  E(RB3LYP) =  -1127.64271715     A.U. after   11 cycles
 SCF Done:  E(RB3LYP) =  -1127.64344096     A.U. after   11 cycles
 SCF Done:  E(RB3LYP) =  -1127.64406016     A.U. after   12 cycles
 SCF Done:  E(RB3LYP) =  -1127.64502570     A.U. after   14 cycles
 SCF Done:  E(RB3LYP) =  -1127.64619316     A.U. after   12 cycles
 SCF Done:  E(RB3LYP) =  -1127.64630000     A.U. after   11 cycles
 SCF Done:  E(RB3LYP) =  -1127.64491687     A.U. after   13 cycles
 SCF Done:  E(RB3LYP) =  -1127.64684785     A.U. after   14 cycles
 SCF Done:  E(RB3LYP) =  -1127.65442283     A.U. after   10 cycles
 SCF Done:  E(RB3LYP) =  -1127.65444217     A.U. after   10 cycles
 SCF Done:  E(RB3LYP) =  -1127.65444943     A.U. after   10 cycles
 SCF Done:  E(RB3LYP) =  -1127.65444991     A.U. after    7 cycles
 SCF Done:  E(RB3LYP) =  -1127.65445011     A.U. after    7 cycles
 SCF Done:  E(RB3LYP) =  -1127.65445014     A.U. after    6 cycles
 Optimization completed.
    -- Stationary point found.
 Normal termination of Gaussian 16 at Fri Dec 11 00:36:33 2020.

 --------------------------------------------------------------------
 #N Geom=AllCheck Guess=TCheck SCRF=Check GenChk RB3LYP/6-31G(d) Freq
 --------------------------------------------------------------------

 Structure from the checkpoint file:  "JID_6910.chk"
 -------------------------------
 CID_114809617_JID_6910_neutraal
 -------------------------------
 Charge =  0 Multiplicity = 1

 SCF Done:  E(RB3LYP) =  -1127.65445014     A.U. after    1 cycles

  Exact polarizability: 171.542   2.837 135.957   1.990   1.434 119.871
 Approx polarizability: 202.736   1.197 200.052   2.189   3.810 196.554

                      1                      2                      3
                      A                      A                      A
 Frequencies --     28.2749                38.5768                57.7829
 Red. masses --      4.1617                 2.9889                 2.8894
 Frc consts  --      0.0020                 0.0026                 0.0057
 IR Inten    --      0.6882                 0.2459                 0.3046

                      4                      5                      6
                      A                      A                      A
 Frequencies --     85.7733                92.8370               101.9399
 Red. masses --      4.4067                 3.9935                 3.1783
 Frc consts  --      0.0191                 0.0203                 0.0195
 IR Inten    --      1.3662                 1.5874                 0.5856

                      7                      8                      9
                      A                      A                      A
 Frequencies --    136.0902               181.0026               209.1142
 Red. masses --      3.3483                 3.3883                 3.5468
 Frc consts  --      0.0365                 0.0654                 0.0914
 IR Inten    --      1.4037                 3.4426                 0.6338

                     10                     11                     12
                      A                      A                      A
 Frequencies --    229.9468               234.8728               240.1204
 Red. masses --      1.0706                 2.9448                 2.9745
 Frc consts  --      0.0334                 0.0957                 0.1010
 IR Inten    --      0.3842                14.2004                 1.1773

                     13                     14                     15
                      A                      A                      A
 Frequencies --    270.3574               273.1898               291.3490
 Red. masses --      3.7272                 1.2007                 1.3462
 Frc consts  --      0.1605                 0.0528                 0.0673
 IR Inten    --      1.8139                 0.5085                 1.6922

                     16                     17                     18
                      A                      A                      A
 Frequencies --    297.5625               308.8014               315.8972
 Red. masses --      1.1273                 2.2561                 2.8531
 Frc consts  --      0.0588                 0.1268                 0.1678
 IR Inten    --      0.3404                 3.0844                 0.2082

                     19                     20                     21
                      A                      A                      A
 Frequencies --    361.9922               383.4045               397.5942
 Red. masses --      2.3913                 2.5909                 2.6228
 Frc consts  --      0.1846                 0.2244                 0.2443
 IR Inten    --      2.8198                 3.4636                 0.8696

                     22                     23                     24
                      A                      A                      A
 Frequencies --    412.4353               422.9329               446.7247
 Red. masses --      2.4333                 2.5933                 2.6583
 Frc consts  --      0.2439                 0.2733                 0.3126
 IR Inten    --      7.2982                 4.5691                20.0072

                     25                     26                     27
                      A                      A                      A
 Frequencies --    462.1514               468.1739               508.3102
 Red. masses --      3.2830                 2.5760                 2.8041
 Frc consts  --      0.4131                 0.3327                 0.4269
 IR Inten    --      1.8771                 8.0853                 3.6768

                     28                     29                     30
                      A                      A                      A
 Frequencies --    518.2042               564.6451               588.4494
 Red. masses --      3.6600                 3.6170                 1.1746
 Frc consts  --      0.5791                 0.6794                 0.2396
 IR Inten    --      4.9674                18.3718                60.8447

                     31                     32                     33
                      A                      A                      A
 Frequencies --    645.0361               657.5815               703.4032
 Red. masses --      3.3636                 4.0081                 3.2922
 Frc consts  --      0.8246                 1.0211                 0.9597
 IR Inten    --     84.6215                63.8959                49.3479

                     34                     35                     36
                      A                      A                      A
 Frequencies --    776.2278               782.9325               856.4129
 Red. masses --      2.9413                 1.4372                 2.8416
 Frc consts  --      1.0442                 0.5191                 1.2279
 IR Inten    --     11.0348                 9.0992                 0.1325

                     37                     38                     39
                      A                      A                      A
 Frequencies --    866.9312               878.1589               897.6200
 Red. masses --      2.0155                 3.1191                 1.9169
 Frc consts  --      0.8925                 1.4172                 0.9100
 IR Inten    --     19.4904                90.9930                 5.6124

                     40                     41                     42
                      A                      A                      A
 Frequencies --    913.5689               939.5934               942.7519
 Red. masses --      1.5155                 1.7253                 2.1589
 Frc consts  --      0.7452                 0.8974                 1.1305
 IR Inten    --      0.7577                 4.2950                42.5740

                     43                     44                     45
                      A                      A                      A
 Frequencies --    947.2813               959.7270               984.1310
 Red. masses --      1.8253                 2.6398                 1.4200
 Frc consts  --      0.9650                 1.4326                 0.8103
 IR Inten    --     18.2492               212.8509                30.9824

                     46                     47                     48
                      A                      A                      A
 Frequencies --    988.4266              1016.0554              1039.2403
 Red. masses --      2.4943                 3.7801                 2.6165
 Frc consts  --      1.4358                 2.2993                 1.6650
 IR Inten    --     29.9645                35.1362                 1.7270

                     49                     50                     51
                      A                      A                      A
 Frequencies --   1065.8537              1070.3108              1073.1752
 Red. masses --      1.7402                 1.4859                 1.3983
 Frc consts  --      1.1648                 1.0029                 0.9489
 IR Inten    --      7.2780                 4.8741                 0.4584

                     52                     53                     54
                      A                      A                      A
 Frequencies --   1087.7199              1110.1406              1137.3415
 Red. masses --      2.1350                 7.5969                 2.1280
 Frc consts  --      1.4883                 5.5163                 1.6218
 IR Inten    --     24.9162               124.1896                 2.4105

                     55                     56                     57
                      A                      A                      A
 Frequencies --   1153.6208              1170.2834              1217.1444
 Red. masses --      1.1561                 2.1272                 1.9156
 Frc consts  --      0.9065                 1.7165                 1.6720
 IR Inten    --      6.7795                12.9348                23.0178

                     58                     59                     60
                      A                      A                      A
 Frequencies --   1241.6578              1255.1176              1261.3599
 Red. masses --      2.2311                 1.5915                 2.5915
 Frc consts  --      2.0266                 1.4771                 2.4293
 IR Inten    --     29.6980                47.9259                67.8443

                     61                     62                     63
                      A                      A                      A
 Frequencies --   1277.1966              1281.3455              1297.4297
 Red. masses --      2.7290                 1.4484                 4.5450
 Frc consts  --      2.6228                 1.4011                 4.5077
 IR Inten    --     40.0802                 2.0413               157.1832

                     64                     65                     66
                      A                      A                      A
 Frequencies --   1313.4372              1321.9231              1337.5846
 Red. masses --      1.4294                 1.2705                 1.6173
 Frc consts  --      1.4528                 1.3081                 1.7048
 IR Inten    --     22.0520                 4.7727                 9.6148

                     67                     68                     69
                      A                      A                      A
 Frequencies --   1393.6154              1404.6698              1426.4323
 Red. masses --      1.3220                 1.4063                 1.2121
 Frc consts  --      1.5128                 1.6348                 1.4531
 IR Inten    --     16.4859                 3.1892                18.3880

                     70                     71                     72
                      A                      A                      A
 Frequencies --   1430.2985              1440.8588              1444.6734
 Red. masses --      1.2515                 1.2704                 1.2926
 Frc consts  --      1.5085                 1.5540                 1.5895
 IR Inten    --     16.0638                 5.2568                39.9905

                     73                     74                     75
                      A                      A                      A
 Frequencies --   1466.0282              1480.4301              1504.7521
 Red. masses --      1.2485                 1.6246                 1.0552
 Frc consts  --      1.5809                 2.0979                 1.4077
 IR Inten    --      1.9198                63.3626                 0.2619

                     76                     77                     78
                      A                      A                      A
 Frequencies --   1504.8595              1510.9586              1517.2587
 Red. masses --      1.0817                 1.0781                 1.0499
 Frc consts  --      1.4432                 1.4501                 1.4241
 IR Inten    --      3.3467                 1.5140                 0.1744

                     79                     80                     81
                      A                      A                      A
 Frequencies --   1519.9649              1522.3017              1529.5469
 Red. masses --      1.0895                 1.0469                 1.0787
 Frc consts  --      1.4830                 1.4294                 1.4869
 IR Inten    --      7.8855                 0.7991                 1.0657

                     82                     83                     84
                      A                      A                      A
 Frequencies --   1531.0292              1531.6403              1541.5167
 Red. masses --      1.0580                 1.0749                 1.0638
 Frc consts  --      1.4612                 1.4857                 1.4894
 IR Inten    --      6.7972                 4.4070                 3.1230

                     85                     86                     87
                      A                      A                      A
 Frequencies --   1542.8906              1553.6059              3033.7596
 Red. masses --      1.0543                 1.0542                 1.0608
 Frc consts  --      1.4788                 1.4992                 5.7522
 IR Inten    --     11.2868                10.3127                19.2756

                     88                     89                     90
                      A                      A                      A
 Frequencies --   3043.6963              3047.7082              3050.4281
 Red. masses --      1.0392                 1.0375                 1.0670
 Frc consts  --      5.6723                 5.6778                 5.8496
 IR Inten    --     22.1875                18.2273                37.8677

                     91                     92                     93
                      A                      A                      A
 Frequencies --   3058.9685              3065.3288              3072.2055
 Red. masses --      1.0365                 1.0384                 1.1023
 Frc consts  --      5.7146                 5.7485                 6.1297
 IR Inten    --     19.1928                16.0617                27.3889

                     94                     95                     96
                      A                      A                      A
 Frequencies --   3089.9610              3097.1147              3100.9286
 Red. masses --      1.0570                 1.0955                 1.0601
 Frc consts  --      5.9462                 6.1913                 6.0060
 IR Inten    --     27.0179                 3.7219                27.4279

                     97                     98                     99
                      A                      A                      A
 Frequencies --   3114.3353              3116.2406              3124.3772
 Red. masses --      1.0978                 1.1000                 1.1019
 Frc consts  --      6.2735                 6.2936                 6.3373
 IR Inten    --     44.5836                17.3547                54.8783

                    100                    101                    102
                      A                      A                      A
 Frequencies --   3125.9057              3128.4312              3139.5131
 Red. masses --      1.1025                 1.1027                 1.1022
 Frc consts  --      6.3471                 6.3588                 6.4009
 IR Inten    --     12.1929                24.9951                41.0453

                    103                    104                    105
                      A                      A                      A
 Frequencies --   3147.1890              3151.5724              3162.8465
 Red. masses --      1.1023                 1.1116                 1.1111
 Frc consts  --      6.4328                 6.5051                 6.5490
 IR Inten    --     12.7064                10.1037                 8.2600

                    106                    107                    108
                      A                      A                      A
 Frequencies --   3171.6769              3515.3676              3620.6802
 Red. masses --      1.0996                 1.0746                 1.0664
 Frc consts  --      6.5171                 7.8238                 8.2367
 IR Inten    --      6.1344                19.4896               163.5971

 - Thermochemistry -
 -------------------
 Temperature   298.150 Kelvin.  Pressure   1.00000 Atm.
 Atom     1 has atomic number  6 and mass  12.00000

 Molecular mass:   250.13511 amu.
 Principal axes and moments of inertia in atomic units:
                           1         2         3
     Eigenvalues --  1927.711876799.287247576.51808
           X            0.99998   0.00400   0.00389
           Y           -0.00399   0.99999  -0.00105
           Z           -0.00389   0.00104   0.99999
 This molecule is an asymmetric top.
 Rotational symmetry number  1.
 Warning -- assumption of classical behavior for rotation
           may cause significant error
 Rotational temperatures (Kelvin)      0.04493     0.01274     0.01143
 Rotational constants (GHZ):           0.93621     0.26543     0.23820
 Zero-point vibrational energy     869516.4 (Joules/Mol)
                                  207.81942 (Kcal/Mol)
 Warning -- explicit consideration of  30 degrees of freedom as
           vibrations may cause significant error
 Vibrational temperatures:     40.68    55.50    83.14   123.41   133.57
          (Kelvin)            146.67   195.80   260.42   300.87   330.84
                              337.93   345.48   388.98   393.06   419.19
                              428.13   444.30   454.51   520.83   551.63
                              572.05   593.40   608.51   642.74   664.93
                              673.60   731.34   745.58   812.40   846.65
                              928.06   946.11  1012.04  1116.82  1126.47
                             1232.19  1247.32  1263.47  1291.47  1314.42
                             1351.87  1356.41  1362.93  1380.83  1415.95
                             1422.13  1461.88  1495.23  1533.53  1539.94
                             1544.06  1564.99  1597.24  1636.38  1659.80
                             1683.78  1751.20  1786.47  1805.83  1814.82
                             1837.60  1843.57  1866.71  1889.74  1901.95
                             1924.49  2005.10  2021.01  2052.32  2057.88
                             2073.07  2078.56  2109.29  2130.01  2165.00
                             2165.16  2173.93  2183.00  2186.89  2190.25
                             2200.68  2202.81  2203.69  2217.90  2219.88
                             2235.29  4364.90  4379.20  4384.97  4388.89
                             4401.17  4410.32  4420.22  4445.76  4456.06
                             4461.54  4480.83  4483.58  4495.28  4497.48
                             4501.11  4517.06  4528.10  4534.41  4550.63
                             4563.34  5057.83  5209.35

 Zero-point correction=                           0.331181 (Hartree/Particle)
 Thermal correction to Energy=                    0.349421
 Thermal correction to Enthalpy=                  0.350365
 Thermal correction to Gibbs Free Energy=         0.285238
 Sum of electronic and zero-point Energies=          -1127.323269
 Sum of electronic and thermal Energies=             -1127.305029
 Sum of electronic and thermal Enthalpies=           -1127.304085
 Sum of electronic and thermal Free Energies=        -1127.369213

                     E (Thermal)             CV                S
                      KCal/Mol        Cal/Mol-Kelvin    Cal/Mol-Kelvin
 Total                  219.265             70.139            137.072
 Electronic               0.000              0.000              0.000
 Translational            0.889              2.981             42.451
 Rotational               0.889              2.981             32.962
 Vibrational            217.487             64.178             61.659
 Vibration     1          0.593              1.984              5.947
 Vibration     2          0.594              1.981              5.331
 Vibration     3          0.596              1.974              4.532
 Vibration     4          0.601              1.959              3.754
 Vibration     5          0.602              1.954              3.599
 Vibration     6          0.604              1.948              3.417
 Vibration     7          0.614              1.917              2.858
 Vibration     8          0.630              1.866              2.318
 Vibration     9          0.642              1.827              2.051
 Vibration    10          0.652              1.795              1.879
 Vibration    11          0.655              1.787              1.841
 Vibration    12          0.657              1.779              1.802
 Vibration    13          0.674              1.728              1.594
 Vibration    14          0.676              1.723              1.576
 Vibration    15          0.687              1.690              1.466
 Vibration    16          0.691              1.678              1.431
 Vibration    17          0.698              1.657              1.369
 Vibration    18          0.703              1.643              1.331
 Vibration    19          0.736              1.551              1.114
 Vibration    20          0.753              1.506              1.026
 Vibration    21          0.764              1.475              0.972
 Vibration    22          0.776              1.443              0.918
 Vibration    23          0.785              1.420              0.882
 Vibration    24          0.806              1.368              0.806
 Vibration    25          0.820              1.334              0.760
 Vibration    26          0.825              1.321              0.743
 Vibration    27          0.863              1.232              0.638
 Vibration    28          0.873              1.210              0.614
 Vibration    29          0.920              1.108              0.515
 Vibration    30          0.946              1.056              0.470

 Optimization completed.
    -- Stationary point found.
 Normal termination of Gaussian 16 at Fri Dec 11 00:49:47 2020.

 ----------------------------------------------------------------------
 # B3LYP/6-311++G(d,p) empiricaldispersion=gd3bj scf=xqc pop=npa geom=c
 heck
 ----------------------------------------------------------------------

 ---------------------------------------
 CID_114809617_JID_6910_Energie_neutraal
 ---------------------------------------
 Structure from the checkpoint file:  "JID_6910.chk"
 Charge =  0 Multiplicity = 1

 SCF Done:  E(RB3LYP) =  -1127.90192331     A.U. after   14 cycles
 Normal termination of Gaussian 16 at Fri Dec 11 00:55:57 2020.

 ----------------------------------------------------------------------
 # B3LYP/6-311++G(d,p) empiricaldispersion=gd3bj scf=xqc pop=npa geom=c
 heck
 ----------------------------------------------------------------------

 -------------------------------------
 CID_114809617_JID_6910_Energie_kation
 -------------------------------------
 Structure from the checkpoint file:  "JID_6910.chk"
 Charge =  1 Multiplicity = 2

 SCF Done:  E(UB3LYP) =  -1127.57023165     A.U. after   27 cycles
 Normal termination of Gaussian 16 at Fri Dec 11 01:12:12 2020.
 Gaussian 16:  ES64L-G16RevA.03 25-Dec-2016

 ----------------------------------------------------------------------
 # B3LYP/6-311++G(d,p) empiricaldispersion=gd3bj scf=xqc pop=npa geom=c
 heck
 ----------------------------------------------------------------------

 ------------------------------------
 CID_114809617_JID_6910_Energie_anion
 ------------------------------------
 Structure from the checkpoint file:  "JID_6910.chk"
 Charge = -1 Multiplicity = 2

                         Standard orientation:
 ---------------------------------------------------------------------
 Center     Atomic      Atomic             Coordinates (Angstroms)
 Number     Number       Type             X           Y           Z
 ---------------------------------------------------------------------
      1          6           0       -3.913102    2.213615   -0.190864
      2          6           0       -4.508552    0.858485    0.200713
      3          6           0       -3.772541   -0.350146   -0.391715
      4          6           0       -2.313642   -0.473037    0.024769
      5          6           0       -1.534407   -1.690719   -0.551789
      6          7           0       -0.399577   -0.786486   -0.970564
      7          6           0       -1.249547    0.422241   -0.680108
      8         16           0        0.958611   -0.945351    0.004880
      9          8           0        0.697202   -0.492298    1.388368
     10          8           0        1.457201   -2.307444   -0.190357
     11          7           0        1.889620    0.233351   -0.733490
     12          6           0        3.075022    0.832850   -0.033254
     13          6           0        3.934196   -0.224339    0.677767
     14          6           0        3.882984    1.499159   -1.155096
     15          6           0        2.581943    1.898979    0.952489
     16          8           0       -2.251166   -0.394009    1.431955
     17          1           0       -2.910944    2.343278    0.231064
     18          1           0       -4.532842    3.035909    0.183221
     19          1           0       -3.840327    2.322307   -1.280562
     20          1           0       -4.509499    0.764265    1.291357
     21          1           0       -5.556166    0.813277   -0.123612
     22          1           0       -4.284324   -1.269117   -0.076768
     23          1           0       -3.817556   -0.322686   -1.488995
     24          1           0       -1.270297   -2.466340    0.171098
     25          1           0       -1.977867   -2.149656   -1.439139
     26          1           0       -1.567939    0.875125   -1.621559
     27          1           0       -0.770413    1.172784   -0.048938
     28          1           0        2.129181   -0.117360   -1.659776
     29          1           0        4.244922   -1.010751   -0.017601
     30          1           0        4.832165    0.244928    1.093956
     31          1           0        3.383806   -0.690637    1.499182
     32          1           0        3.268653    2.222603   -1.701217
     33          1           0        4.741541    2.027456   -0.729897
     34          1           0        4.265808    0.755425   -1.865058
     35          1           0        1.973454    2.644036    0.429827
     36          1           0        1.980782    1.451021    1.744941
     37          1           0        3.440205    2.406484    1.406074
     38          1           0       -1.310439   -0.427321    1.695500
 ---------------------------------------------------------------------

 SCF Done:  E(UB3LYP) =  -1127.89245232     A.U. after   27 cycles

 The electronic state is 2-A.
 Alpha  occ. eigenvalues --  -88.98979 -19.03460 -19.03290 -19.03057 -14.25985
 Alpha  occ. eigenvalues --  -14.25365 -10.15083 -10.14018 -10.12489 -10.11992
 Alpha  occ. eigenvalues --  -10.08206 -10.07799 -10.07387 -10.07109 -10.06976
 Alpha  occ. eigenvalues --  -10.06466  -8.04982  -6.01236  -6.01213  -6.01161
 Alpha  occ. eigenvalues --   -1.04217  -0.94672  -0.92264  -0.86810  -0.84273
 Alpha  occ. eigenvalues --   -0.71967  -0.70706  -0.65894  -0.61603  -0.60978
 Alpha  occ. eigenvalues --   -0.60467  -0.60159  -0.54377  -0.50277  -0.48481
 Alpha  occ. eigenvalues --   -0.47586  -0.45599  -0.43280  -0.41853  -0.40280
 Alpha  occ. eigenvalues --   -0.38950  -0.37505  -0.36977  -0.36135  -0.35727
 Alpha  occ. eigenvalues --   -0.34581  -0.33938  -0.33022  -0.31490  -0.30886
 Alpha  occ. eigenvalues --   -0.30351  -0.29514  -0.29140  -0.28758  -0.28129
 Alpha  occ. eigenvalues --   -0.27625  -0.26974  -0.26538  -0.26004  -0.24977
 Alpha  occ. eigenvalues --   -0.24792  -0.24517  -0.24144  -0.23465  -0.21772
 Alpha  occ. eigenvalues --   -0.18891  -0.18363  -0.17118   0.03898
 Alpha virt. eigenvalues --    0.05576   0.07028   0.07444   0.07924   0.08400
 Alpha virt. eigenvalues --    0.08654   0.09396   0.09783   0.10237   0.10472
 Alpha virt. eigenvalues --    0.10724   0.10901   0.11675   0.12199   0.12585

  Beta  occ. eigenvalues --  -88.98976 -19.03446 -19.03282 -19.03049 -14.25983
  Beta  occ. eigenvalues --  -14.25341 -10.15083 -10.14018 -10.12477 -10.11971
  Beta  occ. eigenvalues --  -10.08188 -10.07790 -10.07335 -10.07087 -10.06954
  Beta  occ. eigenvalues --  -10.06439  -8.04978  -6.01232  -6.01210  -6.01158
  Beta  occ. eigenvalues --   -1.04191  -0.94654  -0.92237  -0.86796  -0.84240
  Beta  occ. eigenvalues --   -0.71943  -0.70678  -0.65870  -0.61567  -0.60927
  Beta  occ. eigenvalues --   -0.60419  -0.60106  -0.54340  -0.50229  -0.48434
  Beta  occ. eigenvalues --   -0.47534  -0.45562  -0.43254  -0.41832  -0.40250
  Beta  occ. eigenvalues --   -0.38921  -0.37484  -0.36957  -0.36110  -0.35699
  Beta  occ. eigenvalues --   -0.34543  -0.33913  -0.32993  -0.31460  -0.30852
  Beta  occ. eigenvalues --   -0.30309  -0.29488  -0.29108  -0.28737  -0.28096
  Beta  occ. eigenvalues --   -0.27603  -0.26950  -0.26508  -0.25972  -0.24953
  Beta  occ. eigenvalues --   -0.24766  -0.24491  -0.24117  -0.23446  -0.21750
  Beta  occ. eigenvalues --   -0.18872  -0.18345  -0.17105
  Beta virt. eigenvalues --    0.05978   0.06460   0.07494   0.08008   0.08438
  Beta virt. eigenvalues --    0.08849   0.08973   0.09734   0.10091   0.10509
  Beta virt. eigenvalues --    0.10774   0.10853   0.11273   0.11846   0.12409

 Mulliken charges and spin densities:
               1          2
     1  C    0.387682  -0.947749
     2  C   -0.726019   0.412962
     3  C    0.695281  -0.931519
     4  C   -0.698710   0.663069
     5  C    0.736716  -0.943225
     6  N   -0.063999   0.039641
     7  C   -0.859301   0.146266
     8  S    0.725265  -0.793545
     9  O   -0.209855   0.016237
    10  O    0.013501   0.043467
    11  N   -0.148973   0.002685
    12  C   -1.626301   1.450257
    13  C    0.448390  -0.888142
    14  C    0.830200  -1.270421
    15  C    0.567451  -1.077223
    16  O   -0.133716   0.017838
    17  H   -0.205501   0.362475
    18  H   -0.094948   0.237316
    19  H    0.053356   0.083735
    20  H    0.191265  -0.038874
    21  H   -0.211679   0.365642
    22  H    0.052594   0.105191
    23  H   -0.179567   0.345214
    24  H    0.261885  -0.036515
    25  H   -0.210418   0.423608
    26  H   -0.728301   0.958284
    27  H    0.955574  -0.681022
    28  H    0.032353   0.309182
    29  H    0.104158   0.059349
    30  H   -0.083515   0.246544
    31  H    0.084522   0.115244
    32  H   -0.332386   0.501564
    33  H   -0.177134   0.332115
    34  H   -0.414533   0.566080
    35  H   -0.071329   0.231723
    36  H    0.032110   0.150716
    37  H   -0.148824   0.290240
    38  H    0.152704   0.131589
 Sum of Mulliken charges =  -1.00000   1.00000

 Dipole moment (field-independent basis, Debye):
    X=             -2.0013    Y=             -2.5539    Z=              3.0612  Tot=              4.4607
 Quadrupole moment (field-independent basis, Debye-Ang):
   XX=           -193.5822   YY=           -152.3379   ZZ=           -151.2304
   XY=             -1.5789   XZ=              0.1944   YZ=              3.6015

 Summary of Natural Population Analysis:

                                       Natural Population
                Natural  -----------------------------------------------
    Atom  No    Charge         Core      Valence    Rydberg      Total
 -----------------------------------------------------------------------
      C    1   -0.28806      0.99967     2.28371    0.00468     3.28806
      C    2   -0.19109      0.99964     2.18284    0.00861     3.19109
      C    3   -0.19567      0.99957     2.18600    0.01010     3.19567
      C    4    0.12281      0.99951     1.86057    0.01712     2.87719
      C    5   -0.09267      0.99959     2.08108    0.01200     3.09267
      N    6   -0.36722      0.99976     2.85256    0.01489     3.86722
      C    7   -0.09670      0.99958     2.08333    0.01379     3.09670
      S    8    1.16776      4.99925     1.73017    0.10282     6.83224
      O    9   -0.48079      0.99990     3.47555    0.00534     4.48079
      O   10   -0.45531      0.99990     3.45033    0.00508     4.45531
      N   11   -0.43671      0.99971     2.92287    0.01413     3.93671
      C   12    0.05530      0.99959     1.93106    0.01405     2.94470
      C   13   -0.29728      0.99961     2.29043    0.00724     3.29728
      C   14   -0.28816      0.99961     2.28073    0.00783     3.28816
      C   15   -0.29172      0.99960     2.28446    0.00766     3.29172
      O   16   -0.38017      0.99988     3.37435    0.00595     4.38017
      H   17    0.09815      0.00000     0.40067    0.00118     0.40185
      H   18    0.09830      0.00000     0.40095    0.00074     0.40170
      H   19    0.09710      0.00000     0.40172    0.00118     0.40290
      H   20    0.10206      0.00000     0.39669    0.00125     0.39794
      H   21    0.09429      0.00000     0.40476    0.00094     0.40571
      H   22    0.10178      0.00000     0.39719    0.00104     0.39822
      H   23    0.10066      0.00000     0.39775    0.00159     0.39934
      H   24    0.10655      0.00000     0.39232    0.00113     0.39345
      H   25    0.10397      0.00000     0.39473    0.00130     0.39603
      H   26    0.10809      0.00000     0.39010    0.00181     0.39191
      H   27    0.10978      0.00000     0.38855    0.00167     0.39022
      H   28    0.20197      0.00000     0.29468    0.00335     0.29803
      H   29    0.10482      0.00000     0.39430    0.00088     0.39518
      H   30    0.10301      0.00000     0.39611    0.00088     0.39699
      H   31    0.10768      0.00000     0.39139    0.00093     0.39232
      H   32    0.10714      0.00000     0.39122    0.00164     0.39286
      H   33    0.10695      0.00000     0.39149    0.00155     0.39305
      H   34    0.10155      0.00000     0.39677    0.00168     0.39845
      H   35    0.10367      0.00000     0.39505    0.00128     0.39633
      H   36    0.11292      0.00000     0.38596    0.00113     0.38708
      H   37    0.10050      0.00000     0.39855    0.00094     0.39950
      H   38    0.24474      0.00000     0.25234    0.00292     0.25526
 =======================================================================
   * Total *   -0.00000     19.99436    47.72334    0.28230    68.00000

 Normal termination of Gaussian 16 at Fri Dec 11 01:27:59 2020.
