 Gaussian 16, Revision A.03,

 -----------------------------------------------------------
 # opt freq B3LYP/6-31G(d) empiricaldispersion=gd3bj scf=xqc
 -----------------------------------------------------------

 ------------------------------
 CID_61588665_JID_6468_neutraal
 ------------------------------
 Symbolic Z-matrix:
 Charge =  0 Multiplicity = 1

 SCF Done:  E(RB3LYP) =  -659.895553696     A.U. after   12 cycles
 SCF Done:  E(RB3LYP) =  -659.901373640     A.U. after   11 cycles
 SCF Done:  E(RB3LYP) =  -659.902421875     A.U. after   11 cycles
 SCF Done:  E(RB3LYP) =  -659.902664471     A.U. after   11 cycles
 SCF Done:  E(RB3LYP) =  -659.903754933     A.U. after   10 cycles
 SCF Done:  E(RB3LYP) =  -659.903825884     A.U. after    9 cycles
 SCF Done:  E(RB3LYP) =  -659.903782893     A.U. after   10 cycles
 SCF Done:  E(RB3LYP) =  -659.903822636     A.U. after    9 cycles
 SCF Done:  E(RB3LYP) =  -659.903833664     A.U. after    9 cycles
 SCF Done:  E(RB3LYP) =  -659.903836851     A.U. after    9 cycles
 SCF Done:  E(RB3LYP) =  -659.903838981     A.U. after    7 cycles
 SCF Done:  E(RB3LYP) =  -659.903839021     A.U. after    6 cycles
 SCF Done:  E(RB3LYP) =  -659.903839111     A.U. after    6 cycles
 Optimization completed.
    -- Stationary point found.
 Normal termination of Gaussian 16 at Thu Dec 10 23:11:28 2020.

 --------------------------------------------------------------------
 #N Geom=AllCheck Guess=TCheck SCRF=Check GenChk RB3LYP/6-31G(d) Freq
 --------------------------------------------------------------------

 Structure from the checkpoint file:  "JID_6468.chk"
 ------------------------------
 CID_61588665_JID_6468_neutraal
 ------------------------------
 Charge =  0 Multiplicity = 1

 SCF Done:  E(RB3LYP) =  -659.903839111     A.U. after    1 cycles

  Exact polarizability: 181.426  -0.669 152.246  -0.024  -0.825 136.659
 Approx polarizability: 221.739   2.306 217.838  -1.003  -3.283 209.516

                      1                      2                      3
                      A                      A                      A
 Frequencies --     40.7074                68.9303                75.2281
 Red. masses --      3.6551                 3.4155                 2.6750
 Frc consts  --      0.0036                 0.0096                 0.0089
 IR Inten    --      0.1449                 0.2874                 0.0547

                      4                      5                      6
                      A                      A                      A
 Frequencies --     94.5968                99.5387               120.9790
 Red. masses --      2.6374                 2.8001                 3.3344
 Frc consts  --      0.0139                 0.0163                 0.0288
 IR Inten    --      0.2113                 0.0757                 0.1219

                      7                      8                      9
                      A                      A                      A
 Frequencies --    156.5673               169.7779               230.5722
 Red. masses --      2.7766                 3.0351                 2.6070
 Frc consts  --      0.0401                 0.0515                 0.0817
 IR Inten    --      0.3859                 0.1050                 0.7061

                     10                     11                     12
                      A                      A                      A
 Frequencies --    231.5296               240.9555               251.8667
 Red. masses --      1.0939                 2.4432                 1.6413
 Frc consts  --      0.0345                 0.0836                 0.0613
 IR Inten    --      0.0689                 0.4949                 1.1847

                     13                     14                     15
                      A                      A                      A
 Frequencies --    273.8263               300.3531               318.4313
 Red. masses --      1.4387                 2.0661                 2.1810
 Frc consts  --      0.0636                 0.1098                 0.1303
 IR Inten    --      1.5392                 0.6183                12.7587

                     16                     17                     18
                      A                      A                      A
 Frequencies --    329.8854               349.7962               369.2023
 Red. masses --      2.3341                 2.3023                 1.3944
 Frc consts  --      0.1497                 0.1660                 0.1120
 IR Inten    --      1.7803                 3.1526                57.8448

                     19                     20                     21
                      A                      A                      A
 Frequencies --    380.4762               417.7793               424.0576
 Red. masses --      2.0019                 2.3160                 1.9945
 Frc consts  --      0.1707                 0.2382                 0.2113
 IR Inten    --      3.2778                 6.1129                 4.8924

                     22                     23                     24
                      A                      A                      A
 Frequencies --    433.5760               445.7070               463.1184
 Red. masses --      2.3455                 2.4385                 3.1144
 Frc consts  --      0.2598                 0.2854                 0.3936
 IR Inten    --      1.0523                 2.1893                 3.6626

                     25                     26                     27
                      A                      A                      A
 Frequencies --    499.2186               521.2864               559.0437
 Red. masses --      2.3510                 2.2658                 1.7692
 Frc consts  --      0.3452                 0.3628                 0.3258
 IR Inten    --      5.4140                 5.3770                 2.8130

                     28                     29                     30
                      A                      A                      A
 Frequencies --    605.6798               738.6967               770.6977
 Red. masses --      3.1066                 3.1615                 1.4501
 Frc consts  --      0.6715                 1.0164                 0.5075
 IR Inten    --      0.6933                 0.9289                 5.8407

                     31                     32                     33
                      A                      A                      A
 Frequencies --    798.0046               821.9181               835.2265
 Red. masses --      1.4511                 1.5333                 2.1632
 Frc consts  --      0.5444                 0.6103                 0.8891
 IR Inten    --      0.3083                 5.9756                 2.8051

                     34                     35                     36
                      A                      A                      A
 Frequencies --    839.4624               845.0592               866.8314
 Red. masses --      1.8614                 1.8214                 1.7472
 Frc consts  --      0.7729                 0.7664                 0.7735
 IR Inten    --      1.6349                 6.4668                 6.0693

                     37                     38                     39
                      A                      A                      A
 Frequencies --    898.3887               914.1879               938.4419
 Red. masses --      2.0915                 2.2624                 1.5389
 Frc consts  --      0.9946                 1.1140                 0.7985
 IR Inten    --      0.9097                17.3646                11.0314

                     40                     41                     42
                      A                      A                      A
 Frequencies --    938.9484               942.8466               954.4809
 Red. masses --      1.6428                 1.4749                 1.6504
 Frc consts  --      0.8533                 0.7725                 0.8859
 IR Inten    --     53.8690                 3.8521                 4.2470

                     43                     44                     45
                      A                      A                      A
 Frequencies --    965.5839               976.3091               978.9870
 Red. masses --      1.5809                 1.6965                 2.2217
 Frc consts  --      0.8685                 0.9527                 1.2545
 IR Inten    --      8.9031                14.2203                 9.1563

                     46                     47                     48
                      A                      A                      A
 Frequencies --    983.3384               992.9197              1010.9506
 Red. masses --      1.9179                 1.9628                 1.7923
 Frc consts  --      1.0927                 1.1401                 1.0793
 IR Inten    --      1.2180                30.5129                20.1341

                     49                     50                     51
                      A                      A                      A
 Frequencies --   1048.9679              1061.2767              1069.4665
 Red. masses --      1.7752                 1.5300                 1.9076
 Frc consts  --      1.1509                 1.0153                 1.2855
 IR Inten    --      1.7336                 0.4868                35.2383

                     52                     53                     54
                      A                      A                      A
 Frequencies --   1084.8880              1093.5653              1110.6526
 Red. masses --      1.4113                 1.6092                 1.7754
 Frc consts  --      0.9787                 1.1338                 1.2903
 IR Inten    --      0.0969                 4.4041                19.2216

                     55                     56                     57
                      A                      A                      A
 Frequencies --   1121.9750              1137.9120              1147.5714
 Red. masses --      2.1647                 1.6728                 1.2403
 Frc consts  --      1.6055                 1.2762                 0.9624
 IR Inten    --     31.1182                32.1125                 0.7645

                     58                     59                     60
                      A                      A                      A
 Frequencies --   1154.8282              1170.1731              1176.5441
 Red. masses --      1.7513                 1.7880                 1.4513
 Frc consts  --      1.3761                 1.4425                 1.1836
 IR Inten    --      3.6485                 9.2598                 1.5885

                     61                     62                     63
                      A                      A                      A
 Frequencies --   1208.4945              1212.8214              1214.0071
 Red. masses --      1.6164                 1.7167                 2.1956
 Frc consts  --      1.3909                 1.4878                 1.9065
 IR Inten    --      2.1496                 1.2038                 2.4267

                     64                     65                     66
                      A                      A                      A
 Frequencies --   1237.4404              1238.1363              1262.2495
 Red. masses --      2.0172                 2.1968                 1.7544
 Frc consts  --      1.8199                 1.9842                 1.6469
 IR Inten    --      6.9500                 2.7536                 9.1644

                     67                     68                     69
                      A                      A                      A
 Frequencies --   1283.4764              1303.7999              1312.9864
 Red. masses --      1.5773                 1.3453                 1.2411
 Frc consts  --      1.5309                 1.3474                 1.2606
 IR Inten    --      2.0657                 1.0113                 1.0709

                     70                     71                     72
                      A                      A                      A
 Frequencies --   1337.2945              1346.8231              1358.0267
 Red. masses --      1.2612                 1.2378                 1.4453
 Frc consts  --      1.3289                 1.3229                 1.5705
 IR Inten    --      5.1505                19.5872                 5.2769

                     73                     74                     75
                      A                      A                      A
 Frequencies --   1366.1843              1377.3645              1388.6051
 Red. masses --      1.4804                 1.4806                 1.3986
 Frc consts  --      1.6279                 1.6550                 1.5889
 IR Inten    --      3.2513                 3.2743                 2.1815

                     76                     77                     78
                      A                      A                      A
 Frequencies --   1394.5535              1399.8047              1407.0598
 Red. masses --      1.3305                 1.4330                 1.4470
 Frc consts  --      1.5246                 1.6543                 1.6878
 IR Inten    --      7.2753                 0.9347                 9.8263

                     79                     80                     81
                      A                      A                      A
 Frequencies --   1410.8605              1416.8714              1425.4196
 Red. masses --      1.4970                 1.4225                 1.3230
 Frc consts  --      1.7556                 1.6825                 1.5838
 IR Inten    --      0.7442                17.9786                 8.1331

                     82                     83                     84
                      A                      A                      A
 Frequencies --   1434.5811              1441.6992              1460.9417
 Red. masses --      1.4311                 1.3104                 1.3646
 Frc consts  --      1.7353                 1.6047                 1.7161
 IR Inten    --      1.7800                 5.7192                 4.7696

                     85                     86                     87
                      A                      A                      A
 Frequencies --   1482.9625              1508.7570              1512.7294
 Red. masses --      1.0928                 1.0899                 1.1107
 Frc consts  --      1.4160                 1.4618                 1.4975
 IR Inten    --      0.4082                 0.7579                 1.5322

                     88                     89                     90
                      A                      A                      A
 Frequencies --   1515.5233              1518.1347              1522.7600
 Red. masses --      1.0962                 1.0543                 1.0510
 Frc consts  --      1.4834                 1.4317                 1.4359
 IR Inten    --      1.6905                 0.8733                 0.4612

                     91                     92                     93
                      A                      A                      A
 Frequencies --   1523.7323              1527.8377              1532.4301
 Red. masses --      1.0974                 1.1401                 1.0534
 Frc consts  --      1.5011                 1.5679                 1.4575
 IR Inten    --     11.4095                 4.9242                 3.7976

                     94                     95                     96
                      A                      A                      A
 Frequencies --   1533.2466              1539.1037              1541.6851
 Red. masses --      1.1703                 1.1102                 1.1595
 Frc consts  --      1.6209                 1.5495                 1.6237
 IR Inten    --      4.9001                 5.1476                10.2259

                     97                     98                     99
                      A                      A                      A
 Frequencies --   1547.4411              1686.7327              2927.5416
 Red. masses --      1.0554                 1.0911                 1.0734
 Frc consts  --      1.4891                 1.8289                 5.4203
 IR Inten    --     11.5456                35.4309                75.5973

                    100                    101                    102
                      A                      A                      A
 Frequencies --   3006.6825              3011.6208              3019.6428
 Red. masses --      1.0719                 1.0694                 1.0668
 Frc consts  --      5.7094                 5.7147                 5.7314
 IR Inten    --     36.3948                16.8016                22.2795

                    103                    104                    105
                      A                      A                      A
 Frequencies --   3022.4511              3033.2339              3035.7620
 Red. masses --      1.0687                 1.0848                 1.0379
 Frc consts  --      5.7520                 5.8805                 5.6354
 IR Inten    --     44.0334                54.3501                33.6238

                    106                    107                    108
                      A                      A                      A
 Frequencies --   3037.2791              3039.5108              3040.0385
 Red. masses --      1.0622                 1.0614                 1.0393
 Frc consts  --      5.7736                 5.7776                 5.6589
 IR Inten    --     26.0262                18.2577                24.1051

                    109                    110                    111
                      A                      A                      A
 Frequencies --   3054.1598              3071.1145              3072.8189
 Red. masses --      1.0808                 1.0944                 1.0959
 Frc consts  --      5.9399                 6.0818                 6.0964
 IR Inten    --     13.5141                73.1868                75.1871

                    112                    113                    114
                      A                      A                      A
 Frequencies --   3075.8026              3079.1608              3083.5736
 Red. masses --      1.0991                 1.0965                 1.1018
 Frc consts  --      6.1267                 6.1251                 6.1725
 IR Inten    --      5.1168                26.9833               105.6026

                    115                    116                    117
                      A                      A                      A
 Frequencies --   3097.5574              3102.6073              3110.5292
 Red. masses --      1.1000                 1.0968                 1.1007
 Frc consts  --      6.2186                 6.2208                 6.2748
 IR Inten    --     11.3932                32.5221                32.2638

                    118                    119                    120
                      A                      A                      A
 Frequencies --   3112.6908              3125.1114              3125.9879
 Red. masses --      1.0930                 1.1003                 1.0900
 Frc consts  --      6.2394                 6.3316                 6.2755
 IR Inten    --     47.8948                38.9620                29.4193

                    121                    122                    123
                      A                      A                      A
 Frequencies --   3155.0117              3160.8292              3237.8682
 Red. masses --      1.0529                 1.0594                 1.1175
 Frc consts  --      6.1751                 6.2360                 6.9025
 IR Inten    --     17.1205                10.6133                 0.5172

                    124                    125                    126
                      A                      A                      A
 Frequencies --   3250.7187              3452.2209              3540.2912
 Red. masses --      1.1147                 1.0504                 1.0901
 Frc consts  --      6.9404                 7.3759                 8.0502
 IR Inten    --     19.6432                 6.0531                 0.3723

 - Thermochemistry -
 -------------------
 Temperature   298.150 Kelvin.  Pressure   1.00000 Atm.
 Atom     1 has atomic number  6 and mass  12.00000

 Molecular mass:   224.22525 amu.
 Principal axes and moments of inertia in atomic units:
                           1         2         3
     Eigenvalues --  2153.295895495.762936519.45320
           X            0.99995  -0.00986   0.00186
           Y            0.00986   0.99995   0.00011
           Z           -0.00186  -0.00009   1.00000
 This molecule is an asymmetric top.
 Rotational symmetry number  1.
 Warning -- assumption of classical behavior for rotation
           may cause significant error
 Rotational temperatures (Kelvin)      0.04022     0.01576     0.01329
 Rotational constants (GHZ):           0.83813     0.32839     0.27682
 Zero-point vibrational energy    1080683.6 (Joules/Mol)
                                  258.28957 (Kcal/Mol)
 Warning -- explicit consideration of  28 degrees of freedom as
           vibrations may cause significant error
 Vibrational temperatures:     58.57    99.18   108.24   136.10   143.21
          (Kelvin)            174.06   225.27   244.27   331.74   333.12
                              346.68   362.38   393.98   432.14   458.15
                              474.63   503.28   531.20   547.42   601.09
                              610.12   623.82   641.27   666.32   718.26
                              750.01   804.34   871.44  1062.82  1108.86
                             1148.15  1182.56  1201.70  1207.80  1215.85
                             1247.18  1292.58  1315.31  1350.21  1350.94
                             1356.55  1373.29  1389.26  1404.69  1408.54
                             1414.80  1428.59  1454.53  1509.23  1526.94
                             1538.72  1560.91  1573.40  1597.98  1614.27
                             1637.20  1651.10  1661.54  1683.62  1692.78
                             1738.75  1744.98  1746.69  1780.40  1781.40
                             1816.10  1846.64  1875.88  1889.09  1924.07
                             1937.78  1953.90  1965.63  1981.72  1997.89
                             2006.45  2014.01  2024.45  2029.91  2038.56
                             2050.86  2064.04  2074.28  2101.97  2133.65
                             2170.76  2176.48  2180.50  2184.26  2190.91
                             2192.31  2198.22  2204.83  2206.00  2214.43
                             2218.14  2226.42  2426.83  4212.08  4325.95
                             4333.05  4344.59  4348.63  4364.15  4367.78
                             4369.97  4373.18  4373.94  4394.25  4418.65
                             4421.10  4425.39  4430.23  4436.57  4456.69
                             4463.96  4475.36  4478.47  4496.34  4497.60
                             4539.36  4547.73  4658.57  4677.06  4966.98
                             5093.69

 Zero-point correction=                           0.411611 (Hartree/Particle)
 Thermal correction to Energy=                    0.428850
 Thermal correction to Enthalpy=                  0.429794
 Thermal correction to Gibbs Free Energy=         0.367890
 Sum of electronic and zero-point Energies=           -659.492228
 Sum of electronic and thermal Energies=              -659.474989
 Sum of electronic and thermal Enthalpies=            -659.474045
 Sum of electronic and thermal Free Energies=         -659.535949

                     E (Thermal)             CV                S
                      KCal/Mol        Cal/Mol-Kelvin    Cal/Mol-Kelvin
 Total                  269.108             68.933            130.289
 Electronic               0.000              0.000              0.000
 Translational            0.889              2.981             42.125
 Rotational               0.889              2.981             32.712
 Vibrational            267.330             62.972             55.453
 Vibration     1          0.594              1.981              5.224
 Vibration     2          0.598              1.969              4.184
 Vibration     3          0.599              1.966              4.012
 Vibration     4          0.603              1.953              3.563
 Vibration     5          0.604              1.949              3.463
 Vibration     6          0.609              1.932              3.085
 Vibration     7          0.620              1.895              2.591
 Vibration     8          0.625              1.880              2.438
 Vibration     9          0.652              1.794              1.874
 Vibration    10          0.653              1.793              1.867
 Vibration    11          0.658              1.778              1.796
 Vibration    12          0.664              1.760              1.717
 Vibration    13          0.676              1.722              1.572
 Vibration    14          0.693              1.673              1.415
 Vibration    15          0.705              1.638              1.318
 Vibration    16          0.713              1.616              1.261
 Vibration    17          0.727              1.576              1.167
 Vibration    18          0.742              1.536              1.083
 Vibration    19          0.750              1.512              1.037
 Vibration    20          0.781              1.432              0.900
 Vibration    21          0.786              1.418              0.878
 Vibration    22          0.794              1.397              0.847
 Vibration    23          0.805              1.370              0.809
 Vibration    24          0.821              1.332              0.757
 Vibration    25          0.855              1.252              0.660
 Vibration    26          0.876              1.203              0.607
 Vibration    27          0.915              1.120              0.526
 Vibration    28          0.964              1.020              0.440

 Optimization completed.
    -- Stationary point found.
 Normal termination of Gaussian 16 at Thu Dec 10 23:32:27 2020.

 ----------------------------------------------------------------------
 # B3LYP/6-311++G(d,p) empiricaldispersion=gd3bj scf=xqc pop=npa geom=c
 heck
 ----------------------------------------------------------------------

 --------------------------------------
 CID_61588665_JID_6468_Energie_neutraal
 --------------------------------------
 Structure from the checkpoint file:  "JID_6468.chk"
 Charge =  0 Multiplicity = 1

 SCF Done:  E(RB3LYP) =  -660.089528327     A.U. after   13 cycles
 Normal termination of Gaussian 16 at Thu Dec 10 23:42:46 2020.

 ----------------------------------------------------------------------
 # B3LYP/6-311++G(d,p) empiricaldispersion=gd3bj scf=xqc pop=npa geom=c
 heck
 ----------------------------------------------------------------------

 ------------------------------------
 CID_61588665_JID_6468_Energie_kation
 ------------------------------------
 Structure from the checkpoint file:  "JID_6468.chk"
 Charge =  1 Multiplicity = 2

 SCF Done:  E(UB3LYP) =  -659.807850880     A.U. after   19 cycles
 Normal termination of Gaussian 16 at Fri Dec 11 00:03:40 2020.
 Gaussian 16:  ES64L-G16RevA.03 25-Dec-2016

 ----------------------------------------------------------------------
 # B3LYP/6-311++G(d,p) empiricaldispersion=gd3bj scf=xqc pop=npa geom=c
 heck
 ----------------------------------------------------------------------

 -----------------------------------
 CID_61588665_JID_6468_Energie_anion
 -----------------------------------
 Structure from the checkpoint file:  "JID_6468.chk"
 Charge = -1 Multiplicity = 2

                         Standard orientation:
 ---------------------------------------------------------------------
 Center     Atomic      Atomic             Coordinates (Angstroms)
 Number     Number       Type             X           Y           Z
 ---------------------------------------------------------------------
      1          6           0        2.924727   -0.774635    1.509509
      2          6           0        3.201157   -0.447566    0.038574
      3          6           0        4.280290   -1.372755   -0.536683
      4          6           0        1.928897   -0.556233   -0.813917
      5          7           0        0.834810    0.338591   -0.402910
      6          6           0       -0.467399   -0.118637   -0.920217
      7          6           0       -1.294145   -0.916953    0.114875
      8          6           0       -2.506413   -1.566969   -0.578887
      9          6           0       -3.575860   -0.559116   -1.020505
     10          6           0       -4.050489    0.298597    0.159465
     11          6           0       -2.870718    1.004639    0.839442
     12          6           0       -1.786738    0.000676    1.258628
     13          7           0       -0.437792   -2.004378    0.621156
     14          6           0        1.116464    1.708928   -0.746650
     15          6           0        0.380293    2.812256   -0.035356
     16          6           0        1.848430    2.591520    0.232447
     17          1           0        2.611971   -1.821692    1.618815
     18          1           0        2.128434   -0.139848    1.910098
     19          1           0        3.821848   -0.632700    2.123224
     20          1           0        3.573044    0.582553   -0.022258
     21          1           0        3.952441   -2.419934   -0.508637
     22          1           0        4.508744   -1.122240   -1.579384
     23          1           0        5.210188   -1.299631    0.038668
     24          1           0        2.191584   -0.373634   -1.874651
     25          1           0        1.550953   -1.580637   -0.752110
     26          1           0       -1.036792    0.758462   -1.234353
     27          1           0       -0.330188   -0.746435   -1.813806
     28          1           0       -2.154611   -2.168387   -1.425447
     29          1           0       -2.965650   -2.270468    0.132384
     30          1           0       -4.423144   -1.094450   -1.466416
     31          1           0       -3.176025    0.093160   -1.808736
     32          1           0       -4.554073   -0.348849    0.892501
     33          1           0       -4.794077    1.032462   -0.175304
     34          1           0       -3.216283    1.564866    1.717479
     35          1           0       -2.449235    1.746858    0.149102
     36          1           0       -2.194527   -0.644500    2.050964
     37          1           0       -0.919131    0.516407    1.688592
     38          1           0        0.312274   -1.584099    1.169106
     39          1           0       -0.980220   -2.568216    1.276480
     40          1           0        1.339106    1.891355   -1.805947
     41          1           0        0.077078    3.681123   -0.612383
     42          1           0       -0.313740    2.524225    0.746610
     43          1           0        2.112937    2.154284    1.189094
     44          1           0        2.566995    3.307963   -0.155748
 ---------------------------------------------------------------------

 SCF Done:  E(UB3LYP) =  -660.073295981     A.U. after   32 cycles

 The electronic state is 2-A.
 Alpha  occ. eigenvalues --  -14.21327 -14.19325 -10.10890 -10.10546 -10.09285
 Alpha  occ. eigenvalues --  -10.09118 -10.07892 -10.07857 -10.07812 -10.06942
 Alpha  occ. eigenvalues --  -10.06772 -10.06714 -10.06712 -10.06651 -10.06321
 Alpha  occ. eigenvalues --  -10.06269  -0.84249  -0.79726  -0.74819  -0.72035
 Alpha  occ. eigenvalues --   -0.70468  -0.64749  -0.63765  -0.59255  -0.59039
 Alpha  occ. eigenvalues --   -0.56142  -0.51913  -0.51324  -0.49574  -0.48536
 Alpha  occ. eigenvalues --   -0.46434  -0.43969  -0.40944  -0.40660  -0.38737
 Alpha  occ. eigenvalues --   -0.38038  -0.37466  -0.36126  -0.35442  -0.34504
 Alpha  occ. eigenvalues --   -0.33626  -0.32537  -0.31369  -0.31266  -0.29698
 Alpha  occ. eigenvalues --   -0.29410  -0.28445  -0.28386  -0.27637  -0.27416
 Alpha  occ. eigenvalues --   -0.26882  -0.25949  -0.24619  -0.24467  -0.24100
 Alpha  occ. eigenvalues --   -0.22994  -0.22531  -0.22181  -0.20963  -0.20479
 Alpha  occ. eigenvalues --   -0.19401  -0.14982  -0.12723   0.04290
 Alpha virt. eigenvalues --    0.05720   0.06409   0.07033   0.07536   0.07982
 Alpha virt. eigenvalues --    0.08104   0.09076   0.09193   0.09669   0.10175
 Alpha virt. eigenvalues --    0.10401   0.10713   0.11217   0.11960   0.12177

  Beta  occ. eigenvalues --  -14.21316 -14.19313 -10.10883 -10.10546 -10.09279
  Beta  occ. eigenvalues --  -10.09113 -10.07880 -10.07843 -10.07807 -10.06927
  Beta  occ. eigenvalues --  -10.06760 -10.06701 -10.06691 -10.06629 -10.06307
  Beta  occ. eigenvalues --  -10.06250  -0.84231  -0.79709  -0.74802  -0.72007
  Beta  occ. eigenvalues --   -0.70447  -0.64721  -0.63737  -0.59216  -0.59012
  Beta  occ. eigenvalues --   -0.56116  -0.51873  -0.51287  -0.49535  -0.48496
  Beta  occ. eigenvalues --   -0.46404  -0.43931  -0.40920  -0.40626  -0.38700
  Beta  occ. eigenvalues --   -0.38012  -0.37437  -0.36098  -0.35418  -0.34483
  Beta  occ. eigenvalues --   -0.33604  -0.32510  -0.31342  -0.31243  -0.29674
  Beta  occ. eigenvalues --   -0.29389  -0.28422  -0.28357  -0.27617  -0.27395
  Beta  occ. eigenvalues --   -0.26863  -0.25919  -0.24589  -0.24445  -0.24074
  Beta  occ. eigenvalues --   -0.22973  -0.22503  -0.22152  -0.20937  -0.20461
  Beta  occ. eigenvalues --   -0.19383  -0.14961  -0.12673
  Beta virt. eigenvalues --    0.06156   0.06619   0.06978   0.07442   0.08085
  Beta virt. eigenvalues --    0.08382   0.08528   0.09337   0.09380   0.10096
  Beta virt. eigenvalues --    0.10543   0.10630   0.11007   0.11458   0.12165

 Mulliken charges and spin densities:
               1          2
     1  C    0.474052  -1.024379
     2  C   -1.338778   1.813522
     3  C    0.149148  -0.891342
     4  C    0.443141  -1.173344
     5  N    0.522594   0.106097
     6  C    0.479180  -1.429579
     7  C   -1.678385   1.534873
     8  C   -0.392896   0.098773
     9  C    0.153568  -0.414827
    10  C    0.730645  -1.346493
    11  C   -0.433104   0.268069
    12  C    0.857375  -0.843665
    13  N   -0.015129  -0.144061
    14  C   -1.367658   1.257488
    15  C    0.203238  -0.527876
    16  C    0.814426  -1.262376
    17  H    0.042767   0.100642
    18  H   -0.069408   0.184547
    19  H   -0.207798   0.374899
    20  H    0.023673   0.160195
    21  H    0.040798   0.088878
    22  H   -0.223893   0.352666
    23  H   -0.193752   0.343684
    24  H    0.207907  -0.099322
    25  H    0.224906  -0.019349
    26  H    0.256994  -0.076117
    27  H    0.187536  -0.004143
    28  H    0.058591   0.097659
    29  H   -0.216657   0.341471
    30  H   -0.273765   0.463448
    31  H   -0.008471   0.119893
    32  H    0.084058   0.040354
    33  H   -0.422040   0.602212
    34  H   -0.357675   0.544707
    35  H    0.167566  -0.058585
    36  H   -0.266506   0.438154
    37  H    0.202304  -0.068670
    38  H    0.346741  -0.118513
    39  H    0.041799   0.200207
    40  H   -0.187693   0.334647
    41  H   -0.128808   0.301563
    42  H    0.140431  -0.025982
    43  H    0.012899   0.122535
    44  H   -0.083919   0.237441
 Sum of Mulliken charges =  -1.00000   1.00000

 Dipole moment (field-independent basis, Debye):
    X=              1.2189    Y=             -0.3162    Z=             -1.1803  Tot=              1.7259
 Quadrupole moment (field-independent basis, Debye-Ang):
   XX=           -205.3500   YY=           -152.1952   ZZ=           -142.7191
   XY=              1.4985   XZ=              0.7620   YZ=              0.3753

 Summary of Natural Population Analysis:

                                       Natural Population
                Natural  -----------------------------------------------
    Atom  No    Charge         Core      Valence    Rydberg      Total
 -----------------------------------------------------------------------
      C    1   -0.28793      0.99965     2.28188    0.00640     3.28793
      C    2   -0.12255      0.99961     2.11380    0.00914     3.12255
      C    3   -0.28303      0.99965     2.27730    0.00608     3.28303
      C    4   -0.08248      0.99958     2.07261    0.01029     3.08248
      N    5   -0.29249      0.99969     2.77905    0.01376     3.79249
      C    6   -0.08242      0.99954     2.07177    0.01111     3.08242
      C    7    0.05264      0.99954     1.93409    0.01374     2.94736
      C    8   -0.19053      0.99958     2.18015    0.01080     3.19053
      C    9   -0.19052      0.99963     2.18232    0.00858     3.19052
      C   10   -0.18754      0.99963     2.17988    0.00804     3.18754
      C   11   -0.19344      0.99962     2.18491    0.00890     3.19344
      C   12   -0.19886      0.99958     2.18797    0.01131     3.19886
      N   13   -0.42681      0.99975     2.91684    0.01021     3.92681
      C   14   -0.01135      0.99955     1.99970    0.01210     3.01135
      C   15   -0.20318      0.99960     2.19458    0.00900     3.20318
      C   16   -0.20095      0.99961     2.19219    0.00916     3.20095
      H   17    0.09507      0.00000     0.40392    0.00101     0.40493
      H   18    0.10297      0.00000     0.39542    0.00161     0.39703
      H   19    0.09934      0.00000     0.39983    0.00083     0.40066
      H   20    0.09632      0.00000     0.40158    0.00210     0.40368
      H   21    0.09532      0.00000     0.40377    0.00091     0.40468
      H   22    0.09876      0.00000     0.40039    0.00084     0.40124
      H   23    0.10014      0.00000     0.39900    0.00086     0.39986
      H   24    0.08255      0.00000     0.41613    0.00132     0.41745
      H   25    0.10637      0.00000     0.39192    0.00170     0.39363
      H   26    0.10100      0.00000     0.39748    0.00152     0.39900
      H   27    0.09139      0.00000     0.40743    0.00118     0.40861
      H   28    0.10221      0.00000     0.39674    0.00104     0.39779
      H   29    0.09613      0.00000     0.40258    0.00128     0.40387
      H   30    0.09951      0.00000     0.39947    0.00102     0.40049
      H   31    0.09264      0.00000     0.40606    0.00130     0.40736
      H   32    0.09307      0.00000     0.40538    0.00155     0.40693
      H   33    0.09916      0.00000     0.39959    0.00125     0.40084
      H   34    0.09995      0.00000     0.39896    0.00109     0.40005
      H   35    0.09306      0.00000     0.40531    0.00163     0.40694
      H   36    0.09649      0.00000     0.40200    0.00150     0.40351
      H   37    0.10237      0.00000     0.39566    0.00198     0.39763
      H   38    0.17823      0.00000     0.31925    0.00252     0.32177
      H   39    0.17352      0.00000     0.32492    0.00156     0.32648
      H   40    0.08860      0.00000     0.41003    0.00136     0.41140
      H   41    0.10206      0.00000     0.39698    0.00096     0.39794
      H   42    0.10729      0.00000     0.39135    0.00135     0.39271
      H   43    0.10638      0.00000     0.39228    0.00134     0.39362
      H   44    0.10151      0.00000     0.39736    0.00113     0.39849
 =======================================================================
   * Total *   -0.00000     15.99380    46.80984    0.19636    63.00000

 Normal termination of Gaussian 16 at Fri Dec 11 00:38:30 2020.
