 Gaussian 16, Revision A.03,

 -----------------------------------------------------------
 # opt freq B3LYP/6-31G(d) empiricaldispersion=gd3bj scf=xqc
 -----------------------------------------------------------

 ----------------------------
 CID_664712_JID_7334_neutraal
 ----------------------------
 Symbolic Z-matrix:
 Charge =  0 Multiplicity = 1

 SCF Done:  E(RB3LYP) =  -1504.98502474     A.U. after   14 cycles
 SCF Done:  E(RB3LYP) =  -1504.99203300     A.U. after   12 cycles
 SCF Done:  E(RB3LYP) =  -1504.99343529     A.U. after   12 cycles
 SCF Done:  E(RB3LYP) =  -1504.99406463     A.U. after   12 cycles
 SCF Done:  E(RB3LYP) =  -1504.99443828     A.U. after   12 cycles
 SCF Done:  E(RB3LYP) =  -1504.99459359     A.U. after   12 cycles
 SCF Done:  E(RB3LYP) =  -1504.99466855     A.U. after   10 cycles
 SCF Done:  E(RB3LYP) =  -1504.99473493     A.U. after   11 cycles
 SCF Done:  E(RB3LYP) =  -1504.99477504     A.U. after   11 cycles
 SCF Done:  E(RB3LYP) =  -1504.99483575     A.U. after   12 cycles
 SCF Done:  E(RB3LYP) =  -1504.99520154     A.U. after   12 cycles
 SCF Done:  E(RB3LYP) =  -1504.99523465     A.U. after   11 cycles
 SCF Done:  E(RB3LYP) =  -1504.99523573     A.U. after    9 cycles
 SCF Done:  E(RB3LYP) =  -1504.99523609     A.U. after    8 cycles
 SCF Done:  E(RB3LYP) =  -1504.99523624     A.U. after    7 cycles
 Optimization completed.
    -- Stationary point found.
 Normal termination of Gaussian 16 at Sun Dec 13 20:34:45 2020.

 --------------------------------------------------------------------
 #N Geom=AllCheck Guess=TCheck SCRF=Check GenChk RB3LYP/6-31G(d) Freq
 --------------------------------------------------------------------

 Structure from the checkpoint file:  "JID_7334.chk"
 ----------------------------
 CID_664712_JID_7334_neutraal
 ----------------------------
 Charge =  0 Multiplicity = 1

 SCF Done:  E(RB3LYP) =  -1504.99523624     A.U. after    1 cycles

  Exact polarizability: 176.287  22.871 145.158   3.698  11.472 149.126
 Approx polarizability: 265.675  37.233 216.687   8.969  32.659 249.174

                      1                      2                      3
                      A                      A                      A
 Frequencies --     32.3160                37.2361                55.0725
 Red. masses --      4.1998                 6.2135                 4.6431
 Frc consts  --      0.0026                 0.0051                 0.0083
 IR Inten    --      0.3454                 1.4155                 1.0389

                      4                      5                      6
                      A                      A                      A
 Frequencies --     72.1293                89.8824               108.7792
 Red. masses --      4.1628                 3.4252                 4.3219
 Frc consts  --      0.0128                 0.0163                 0.0301
 IR Inten    --      7.4953                 4.7692                 1.6096

                      7                      8                      9
                      A                      A                      A
 Frequencies --    144.0352               162.1260               193.9762
 Red. masses --      4.7950                 5.3253                 2.9535
 Frc consts  --      0.0586                 0.0825                 0.0655
 IR Inten    --      3.4260                 0.4752                 0.9425

                     10                     11                     12
                      A                      A                      A
 Frequencies --    225.6700               239.0611               260.6542
 Red. masses --      1.2265                 3.1546                 1.4546
 Frc consts  --      0.0368                 0.1062                 0.0582
 IR Inten    --      1.3413                 0.9488                 0.6351

                     13                     14                     15
                      A                      A                      A
 Frequencies --    267.8209               285.8716               299.6143
 Red. masses --      2.6182                 3.2088                 5.0957
 Frc consts  --      0.1106                 0.1545                 0.2695
 IR Inten    --      1.5386                 0.7475                 0.8204

                     16                     17                     18
                      A                      A                      A
 Frequencies --    314.8574               328.3540               352.4279
 Red. masses --      3.5412                 3.9193                 6.6376
 Frc consts  --      0.2068                 0.2490                 0.4857
 IR Inten    --      0.8124                 0.6871                 0.3787

                     19                     20                     21
                      A                      A                      A
 Frequencies --    441.6265               465.3092               484.7906
 Red. masses --      5.2324                 4.8880                 4.8541
 Frc consts  --      0.6013                 0.6235                 0.6721
 IR Inten    --      2.5831                 3.9645                16.2258

                     22                     23                     24
                      A                      A                      A
 Frequencies --    489.6800               525.3337               532.3038
 Red. masses --      5.6009                 6.0704                 3.9114
 Frc consts  --      0.7913                 0.9870                 0.6530
 IR Inten    --     19.1404                57.4025                 5.1741

                     25                     26                     27
                      A                      A                      A
 Frequencies --    562.6704               575.1051               636.6477
 Red. masses --      4.1390                 5.8260                 6.2845
 Frc consts  --      0.7721                 1.1353                 1.5008
 IR Inten    --      3.7247                11.8661                 9.9957

                     28                     29                     30
                      A                      A                      A
 Frequencies --    696.0783               709.1553               746.0494
 Red. masses --      4.5123                 4.0197                 4.7137
 Frc consts  --      1.2881                 1.1910                 1.5458
 IR Inten    --      4.9209                14.5089                31.3134

                     31                     32                     33
                      A                      A                      A
 Frequencies --    754.8416               766.5908               790.6305
 Red. masses --      4.5829                 1.5021                 2.9117
 Frc consts  --      1.5385                 0.5201                 1.0724
 IR Inten    --     11.0381                34.4461                46.4001

                     34                     35                     36
                      A                      A                      A
 Frequencies --    808.0831               861.9430               872.5126
 Red. masses --      3.5939                 1.7735                 2.9397
 Frc consts  --      1.3827                 0.7763                 1.3185
 IR Inten    --     14.9216                 4.7260                19.9495

                     37                     38                     39
                      A                      A                      A
 Frequencies --    921.5648               940.9498               976.5631
 Red. masses --      2.1095                 1.3699                 1.2573
 Frc consts  --      1.0556                 0.7146                 0.7065
 IR Inten    --     26.0927                 1.3980                 0.0891

                     40                     41                     42
                      A                      A                      A
 Frequencies --    983.5471              1000.4033              1002.1929
 Red. masses --      2.2586                 1.4525                 1.3803
 Frc consts  --      1.2873                 0.8565                 0.8168
 IR Inten    --     11.9133                64.3207                 0.1081

                     43                     44                     45
                      A                      A                      A
 Frequencies --   1021.3750              1071.3183              1076.9915
 Red. masses --      2.0274                 5.0769                 1.9881
 Frc consts  --      1.2461                 3.4331                 1.3587
 IR Inten    --     55.9123                41.7703                61.2747

                     46                     47                     48
                      A                      A                      A
 Frequencies --   1090.1441              1133.0431              1154.4881
 Red. masses --      2.3526                 8.0504                 1.9845
 Frc consts  --      1.6473                 6.0892                 1.5584
 IR Inten    --     22.3384               252.1235                20.3997

                     49                     50                     51
                      A                      A                      A
 Frequencies --   1163.4636              1185.0221              1199.8387
 Red. masses --      2.4154                 1.2703                 1.4105
 Frc consts  --      1.9264                 1.0510                 1.1964
 IR Inten    --     15.3181                 1.0264                 3.1526

                     52                     53                     54
                      A                      A                      A
 Frequencies --   1200.8084              1218.9201              1229.7435
 Red. masses --      1.1068                 1.5484                 2.0413
 Frc consts  --      0.9403                 1.3555                 1.8188
 IR Inten    --      2.4099                 3.9485                 6.0811

                     55                     56                     57
                      A                      A                      A
 Frequencies --   1260.2889              1272.0010              1296.1537
 Red. masses --      1.4378                 1.9531                 2.7366
 Frc consts  --      1.3455                 1.8619                 2.7087
 IR Inten    --      8.1888                49.7332                70.4314

                     58                     59                     60
                      A                      A                      A
 Frequencies --   1317.9609              1323.5427              1342.5090
 Red. masses --      1.5181                 1.4627                 8.5206
 Frc consts  --      1.5537                 1.5097                 9.0481
 IR Inten    --    110.8647                13.2912               195.6748

                     61                     62                     63
                      A                      A                      A
 Frequencies --   1358.6200              1378.4430              1391.7284
 Red. masses --      4.5621                 1.2185                 1.2813
 Frc consts  --      4.9615                 1.3641                 1.4622
 IR Inten    --     15.3176                 6.4191                 6.1756

                     64                     65                     66
                      A                      A                      A
 Frequencies --   1429.5335              1481.2041              1489.7585
 Red. masses --      1.3316                 1.0532                 1.0767
 Frc consts  --      1.6032                 1.3614                 1.4079
 IR Inten    --     13.0784                 4.8052                 8.8380

                     67                     68                     69
                      A                      A                      A
 Frequencies --   1494.6739              1506.4560              1509.9266
 Red. masses --      1.3859                 1.1004                 1.7164
 Frc consts  --      1.8242                 1.4714                 2.3056
 IR Inten    --     19.4923                 3.6731                 0.6935

                     70                     71                     72
                      A                      A                      A
 Frequencies --   1520.7468              1533.2992              1534.8467
 Red. masses --      1.0490                 1.0851                 1.1277
 Frc consts  --      1.4294                 1.5030                 1.5652
 IR Inten    --      5.9658                 2.1458                52.1027

                     73                     74                     75
                      A                      A                      A
 Frequencies --   1553.9662              1648.0824              1662.1078
 Red. masses --      2.0951                 6.2390                 5.6822
 Frc consts  --      2.9809                 9.9844                 9.2488
 IR Inten    --     44.9962                11.0981                35.7229

                     76                     77                     78
                      A                      A                      A
 Frequencies --   3031.9964              3076.5766              3088.3543
 Red. masses --      1.0348                 1.0653                 1.0335
 Frc consts  --      5.6049                 5.9407                 5.8076
 IR Inten    --     51.3381                33.2884                 6.3878

                     79                     80                     81
                      A                      A                      A
 Frequencies --   3088.4136              3095.6495              3116.5986
 Red. masses --      1.0531                 1.1059                 1.0856
 Frc consts  --      5.9184                 6.2439                 6.2127
 IR Inten    --     20.4220                32.5909                 3.9918

                     82                     83                     84
                      A                      A                      A
 Frequencies --   3145.2666              3157.5099              3160.5722
 Red. masses --      1.1053                 1.1035                 1.1008
 Frc consts  --      6.4425                 6.4819                 6.4789
 IR Inten    --      6.4334                 7.4401                17.5808

                     85                     86                     87
                      A                      A                      A
 Frequencies --   3186.2951              3190.7699              3197.3169
 Red. masses --      1.1067                 1.0862                 1.0903
 Frc consts  --      6.6198                 6.5156                 6.5667
 IR Inten    --      1.4383                 0.3895                12.6902

                     88                     89                     90
                      A                      A                      A
 Frequencies --   3200.1176              3216.6000              3232.3997
 Red. masses --      1.1073                 1.0954                 1.0920
 Frc consts  --      6.6810                 6.6773                 6.7224
 IR Inten    --      0.6993                22.4119                 9.3715

 - Thermochemistry -
 -------------------
 Temperature   298.150 Kelvin.  Pressure   1.00000 Atm.
 Atom     1 has atomic number  6 and mass  12.00000

 Molecular mass:   273.04934 amu.
 Principal axes and moments of inertia in atomic units:
                           1         2         3
     Eigenvalues --  3490.704295073.730825884.77993
           X            0.99887   0.04704  -0.00728
           Y           -0.04671   0.99807   0.04083
           Z            0.00919  -0.04045   0.99914
 This molecule is an asymmetric top.
 Rotational symmetry number  1.
 Warning -- assumption of classical behavior for rotation
           may cause significant error
 Rotational temperatures (Kelvin)      0.02481     0.01707     0.01472
 Rotational constants (GHZ):           0.51701     0.35570     0.30668
 Zero-point vibrational energy     671403.5 (Joules/Mol)
                                  160.46929 (Kcal/Mol)
 Warning -- explicit consideration of  26 degrees of freedom as
           vibrations may cause significant error
 Vibrational temperatures:     46.50    53.57    79.24   103.78   129.32
          (Kelvin)            156.51   207.23   233.26   279.09   324.69
                              343.96   375.02   385.33   411.31   431.08
                              453.01   472.43   507.07   635.40   669.48
                              697.51   704.54   755.84   765.87   809.56
                              827.45   915.99  1001.50  1020.32  1073.40
                             1086.05  1102.95  1137.54  1162.65  1240.14
                             1255.35  1325.93  1353.82  1405.06  1415.10
                             1439.36  1441.93  1469.53  1541.39  1549.55
                             1568.47  1630.20  1661.05  1673.96  1704.98
                             1726.30  1727.70  1753.75  1769.33  1813.27
                             1830.13  1864.88  1896.25  1904.28  1931.57
                             1954.75  1983.27  2002.39  2056.78  2131.12
                             2143.43  2150.50  2167.45  2172.45  2188.02
                             2206.08  2208.30  2235.81  2371.22  2391.40
                             4362.37  4426.51  4443.45  4443.54  4453.95
                             4484.09  4525.34  4542.95  4547.36  4584.37
                             4590.81  4600.23  4604.26  4627.97  4650.70

 Zero-point correction=                           0.255724 (Hartree/Particle)
 Thermal correction to Energy=                    0.272511
 Thermal correction to Enthalpy=                  0.273455
 Thermal correction to Gibbs Free Energy=         0.210329
 Sum of electronic and zero-point Energies=          -1504.739512
 Sum of electronic and thermal Energies=             -1504.722725
 Sum of electronic and thermal Enthalpies=           -1504.721781
 Sum of electronic and thermal Free Energies=        -1504.784907

                     E (Thermal)             CV                S
                      KCal/Mol        Cal/Mol-Kelvin    Cal/Mol-Kelvin
 Total                  171.003             63.192            132.859
 Electronic               0.000              0.000              0.000
 Translational            0.889              2.981             42.712
 Rotational               0.889              2.981             33.010
 Vibrational            169.226             57.231             57.137
 Vibration     1          0.594              1.983              5.682
 Vibration     2          0.594              1.982              5.401
 Vibration     3          0.596              1.976              4.626
 Vibration     4          0.598              1.967              4.094
 Vibration     5          0.602              1.956              3.663
 Vibration     6          0.606              1.942              3.291
 Vibration     7          0.616              1.909              2.750
 Vibration     8          0.622              1.889              2.525
 Vibration     9          0.635              1.848              2.189
 Vibration    10          0.650              1.802              1.913
 Vibration    11          0.657              1.781              1.810
 Vibration    12          0.669              1.745              1.657
 Vibration    13          0.673              1.732              1.610
 Vibration    14          0.684              1.700              1.498
 Vibration    15          0.692              1.674              1.419
 Vibration    16          0.702              1.645              1.337
 Vibration    17          0.712              1.619              1.268
 Vibration    18          0.729              1.570              1.155
 Vibration    19          0.801              1.379              0.822
 Vibration    20          0.823              1.327              0.751
 Vibration    21          0.841              1.284              0.697
 Vibration    22          0.846              1.273              0.684
 Vibration    23          0.880              1.194              0.598
 Vibration    24          0.887              1.179              0.582
 Vibration    25          0.918              1.112              0.519
 Vibration    26          0.931              1.085              0.495

                           ! Non-Optimized Parameters !
 Normal termination of Gaussian 16 at Sun Dec 13 20:48:47 2020.

 ----------------------------------------------------------------------
 # B3LYP/6-311++G(d,p) empiricaldispersion=gd3bj scf=xqc pop=npa geom=c
 heck
 ----------------------------------------------------------------------

 ------------------------------------
 CID_664712_JID_7334_Energie_neutraal
 ------------------------------------
 Structure from the checkpoint file:  "JID_7334.chk"
 Charge =  0 Multiplicity = 1

 SCF Done:  E(RB3LYP) =  -1505.24613325     A.U. after   16 cycles
 Normal termination of Gaussian 16 at Sun Dec 13 20:56:18 2020.

 ----------------------------------------------------------------------
 # B3LYP/6-311++G(d,p) empiricaldispersion=gd3bj scf=xqc pop=npa geom=c
 heck
 ----------------------------------------------------------------------

 ----------------------------------
 CID_664712_JID_7334_Energie_kation
 ----------------------------------
 Structure from the checkpoint file:  "JID_7334.chk"
 Charge =  1 Multiplicity = 2

 SCF Done:  E(UB3LYP) =  -1504.94832325     A.U. after   30 cycles
 Normal termination of Gaussian 16 at Sun Dec 13 21:15:40 2020.
 Gaussian 16:  ES64L-G16RevA.03 25-Dec-2016

 ----------------------------------------------------------------------
 # B3LYP/6-311++G(d,p) empiricaldispersion=gd3bj scf=xqc pop=npa geom=c
 heck
 ----------------------------------------------------------------------

 ---------------------------------
 CID_664712_JID_7334_Energie_anion
 ---------------------------------
 Structure from the checkpoint file:  "JID_7334.chk"
 Charge = -1 Multiplicity = 2

                         Standard orientation:
 ---------------------------------------------------------------------
 Center     Atomic      Atomic             Coordinates (Angstroms)
 Number     Number       Type             X           Y           Z
 ---------------------------------------------------------------------
      1          6           0       -1.595985    1.334113    2.633052
      2          8           0       -0.976063    0.934588    1.421314
      3          6           0       -1.723175    0.257732    0.502351
      4          6           0       -3.024773   -0.188504    0.747430
      5          6           0       -3.714431   -0.907596   -0.232474
      6          6           0       -3.112535   -1.192355   -1.453403
      7          6           0       -1.811784   -0.744280   -1.689071
      8          6           0       -1.102815   -0.011815   -0.736694
      9          6           0        0.290544    0.454841   -1.085779
     10          7           0        1.344213    0.150662   -0.110771
     11          6           0        1.949222    1.272740    0.604230
     12          6           0        1.981545    2.411571   -0.411971
     13         16           0        0.370333    2.305726   -1.287210
     14         16           0        1.817173   -1.424279    0.120766
     15          8           0        1.539075   -2.145352   -1.123527
     16          8           0        3.158459   -1.391519    0.709954
     17          6           0        0.700437   -2.073373    1.377915
     18          1           0       -2.471625    1.966573    2.443352
     19          1           0       -0.843956    1.908212    3.176548
     20          1           0       -1.897379    0.467963    3.236284
     21          1           0       -3.507003    0.016040    1.695535
     22          1           0       -4.724920   -1.248203   -0.025525
     23          1           0       -3.641084   -1.759710   -2.212631
     24          1           0       -1.322895   -0.971103   -2.632416
     25          1           0        0.567980   -0.007921   -2.034038
     26          1           0        1.345306    1.552025    1.473696
     27          1           0        2.951030    0.984043    0.925464
     28          1           0        2.056686    3.390412    0.068175
     29          1           0        2.806989    2.285963   -1.117646
     30          1           0        0.774509   -1.443075    2.265534
     31          1           0       -0.314292   -2.066245    0.979290
     32          1           0        1.021814   -3.092942    1.601443
 ---------------------------------------------------------------------

 SCF Done:  E(UB3LYP) =  -1505.23922739     A.U. after   33 cycles
 SCF Done:  E(UB3LYP) =  -1505.23922739     a.u. after    1 cycles

 The electronic state is 2-A.
 Alpha  occ. eigenvalues --  -88.97615 -88.75304 -19.06269 -19.02798 -19.02738
 Alpha  occ. eigenvalues --  -14.25679 -10.15867 -10.14780 -10.12522 -10.12154
 Alpha  occ. eigenvalues --  -10.11876 -10.11163 -10.09181 -10.08811 -10.08558
 Alpha  occ. eigenvalues --  -10.08106 -10.08077  -8.03720  -7.83938  -6.00036
 Alpha  occ. eigenvalues --   -5.99976  -5.99782  -5.80353  -5.79996  -5.79245
 Alpha  occ. eigenvalues --   -1.03226  -0.97992  -0.92207  -0.86567  -0.77012
 Alpha  occ. eigenvalues --   -0.71806  -0.69837  -0.67224  -0.66354  -0.64272
 Alpha  occ. eigenvalues --   -0.60417  -0.57599  -0.53164  -0.51756  -0.50979
 Alpha  occ. eigenvalues --   -0.47626  -0.45245  -0.43804  -0.42061  -0.39973
 Alpha  occ. eigenvalues --   -0.39471  -0.38667  -0.38110  -0.37712  -0.36304
 Alpha  occ. eigenvalues --   -0.35238  -0.34785  -0.33888  -0.33503  -0.32752
 Alpha  occ. eigenvalues --   -0.31965  -0.30838  -0.30239  -0.28502  -0.27477
 Alpha  occ. eigenvalues --   -0.27121  -0.26345  -0.24595  -0.24073  -0.23390
 Alpha  occ. eigenvalues --   -0.23036  -0.22009  -0.21516  -0.17540  -0.16226
 Alpha  occ. eigenvalues --   -0.13975  -0.13719   0.03955
 Alpha virt. eigenvalues --    0.06078   0.06210   0.06889   0.07520   0.08209
 Alpha virt. eigenvalues --    0.08418   0.08712   0.09261   0.09768   0.10420
 Alpha virt. eigenvalues --    0.10641   0.10990   0.11322   0.12363   0.12868

  Beta  occ. eigenvalues --  -88.97609 -88.75291 -19.06261 -19.02794 -19.02734
  Beta  occ. eigenvalues --  -14.25675 -10.15856 -10.14784 -10.12510 -10.12083
  Beta  occ. eigenvalues --  -10.11861 -10.11137 -10.09143 -10.08787 -10.08499
  Beta  occ. eigenvalues --  -10.08113 -10.08049  -8.03713  -7.83924  -6.00031
  Beta  occ. eigenvalues --   -5.99971  -5.99774  -5.80324  -5.79987  -5.79234
  Beta  occ. eigenvalues --   -1.03213  -0.97972  -0.92196  -0.86546  -0.76952
  Beta  occ. eigenvalues --   -0.71773  -0.69770  -0.67183  -0.66303  -0.64205
  Beta  occ. eigenvalues --   -0.60333  -0.57556  -0.53083  -0.51684  -0.50925
  Beta  occ. eigenvalues --   -0.47592  -0.45215  -0.43751  -0.42037  -0.39944
  Beta  occ. eigenvalues --   -0.39431  -0.38629  -0.38089  -0.37663  -0.36260
  Beta  occ. eigenvalues --   -0.35201  -0.34749  -0.33860  -0.33461  -0.32703
  Beta  occ. eigenvalues --   -0.31925  -0.30765  -0.30206  -0.28429  -0.27411
  Beta  occ. eigenvalues --   -0.27082  -0.26330  -0.24569  -0.24022  -0.23319
  Beta  occ. eigenvalues --   -0.23010  -0.21991  -0.21497  -0.17436  -0.16088
  Beta  occ. eigenvalues --   -0.13934  -0.13624
  Beta virt. eigenvalues --    0.06329   0.06598   0.06689   0.07536   0.07950
  Beta virt. eigenvalues --    0.08422   0.08683   0.09047   0.09441   0.10181
  Beta virt. eigenvalues --    0.11054   0.11134   0.11168   0.11526   0.12486

 Mulliken charges and spin densities:
               1          2
     1  C    1.534736  -1.806510
     2  O   -0.079967   0.037462
     3  C   -0.020207   0.173410
     4  C   -0.794994   0.418458
     5  C    0.975563  -1.300860
     6  C   -0.015377  -0.512139
     7  C   -0.689333   0.539446
     8  C    0.432358  -0.224891
     9  C    0.004121   0.039500
    10  N   -0.085248   0.006982
    11  C   -0.262656   0.008889
    12  C   -0.394744  -0.349897
    13  S    0.051131  -0.170026
    14  S    0.346039   0.205849
    15  O   -0.163682   0.002554
    16  O   -0.128028   0.002279
    17  C   -0.280356  -0.477609
    18  H   -0.160505   0.306024
    19  H   -0.866834   1.040333
    20  H   -0.543677   0.710169
    21  H   -0.569674   0.761980
    22  H   -0.393275   0.562335
    23  H    0.057520   0.098064
    24  H    0.091879   0.046135
    25  H    0.342284   0.031964
    26  H    0.416177  -0.240982
    27  H    0.002265   0.178013
    28  H   -0.258585   0.489767
    29  H    0.225250  -0.023424
    30  H   -0.091671   0.334058
    31  H    0.254276  -0.030078
    32  H    0.065215   0.142745
 Sum of Mulliken charges =  -1.00000   1.00000

 Dipole moment (field-independent basis, Debye):
    X=              3.3034    Y=             -1.0469    Z=             -6.2580  Tot=              7.1533
 Quadrupole moment (field-independent basis, Debye-Ang):
   XX=           -178.6982   YY=           -159.5298   ZZ=           -170.9072
   XY=              6.5014   XZ=             13.2713   YZ=             -7.7855

 Summary of Natural Population Analysis:

                                       Natural Population
                Natural  -----------------------------------------------
    Atom  No    Charge         Core      Valence    Rydberg      Total
 -----------------------------------------------------------------------
      C    1   -0.10024      0.99959     2.09110    0.00955     3.10024
      O    2   -0.27873      0.99986     3.26610    0.01278     4.27873
      C    3    0.16953      0.99934     1.81518    0.01595     2.83047
      C    4   -0.13919      0.99952     2.12974    0.00993     3.13919
      C    5   -0.08004      0.99957     2.06997    0.01050     3.08004
      C    6   -0.12829      0.99958     2.11541    0.01330     3.12829
      C    7   -0.06402      0.99952     2.05863    0.00586     3.06402
      C    8   -0.07116      0.99947     2.05620    0.01550     3.07116
      C    9   -0.03573      0.99951     2.02215    0.01406     3.03573
      N   10   -0.39490      0.99968     2.87721    0.01801     3.89490
      C   11   -0.08843      0.99959     2.07630    0.01254     3.08843
      C   12   -0.24869      0.99960     2.23842    0.01067     3.24869
      S   13    0.09810      4.99962     2.88326    0.01901     7.90190
      S   14    1.11643      4.99925     1.78230    0.10201     6.88357
      O   15   -0.46602      0.99990     3.46047    0.00565     4.46602
      O   16   -0.46786      0.99991     3.46248    0.00547     4.46786
      C   17   -0.38988      0.99960     2.38207    0.00821     3.38988
      H   18    0.08660      0.00000     0.41151    0.00188     0.41340
      H   19    0.09689      0.00000     0.40050    0.00261     0.40311
      H   20    0.09002      0.00000     0.40520    0.00478     0.40998
      H   21    0.11188      0.00000     0.38612    0.00200     0.38812
      H   22    0.10135      0.00000     0.39755    0.00109     0.39865
      H   23    0.10000      0.00000     0.39912    0.00088     0.40000
      H   24    0.09820      0.00000     0.40043    0.00137     0.40180
      H   25    0.10753      0.00000     0.39072    0.00175     0.39247
      H   26    0.10169      0.00000     0.39650    0.00181     0.39831
      H   27    0.11342      0.00000     0.38514    0.00144     0.38658
      H   28    0.11068      0.00000     0.38808    0.00124     0.38932
      H   29    0.09825      0.00000     0.40017    0.00158     0.40175
      H   30    0.11777      0.00000     0.38081    0.00142     0.38223
      H   31    0.12076      0.00000     0.37790    0.00134     0.37924
      H   32    0.11426      0.00000     0.38493    0.00081     0.38574
 =======================================================================
   * Total *    0.00020     24.99311    46.69170    0.31498    71.99980

 Normal termination of Gaussian 16 at Sun Dec 13 21:35:42 2020.
