 Gaussian 16, Revision A.03,

 -----------------------------------------------------------
 # opt freq B3LYP/6-31G(d) empiricaldispersion=gd3bj scf=xqc
 -----------------------------------------------------------

 -------------------------------
 CID_146010621_JID_9626_neutraal
 -------------------------------
 Symbolic Z-matrix:
 Charge =  0 Multiplicity = 1

 SCF Done:  E(RB3LYP) =  -847.507219237     A.U. after   15 cycles
 SCF Done:  E(RB3LYP) =  -847.473040140     A.U. after   14 cycles
 SCF Done:  E(RB3LYP) =  -847.514176779     A.U. after   13 cycles
 SCF Done:  E(RB3LYP) =  -847.513725474     A.U. after   13 cycles
 SCF Done:  E(RB3LYP) =  -847.515254202     A.U. after   12 cycles
 SCF Done:  E(RB3LYP) =  -847.515490218     A.U. after   11 cycles
 SCF Done:  E(RB3LYP) =  -847.515545335     A.U. after   12 cycles
 SCF Done:  E(RB3LYP) =  -847.515660292     A.U. after   12 cycles
 SCF Done:  E(RB3LYP) =  -847.515755458     A.U. after   11 cycles
 SCF Done:  E(RB3LYP) =  -847.515829258     A.U. after   11 cycles
 SCF Done:  E(RB3LYP) =  -847.515987350     A.U. after    8 cycles
 SCF Done:  E(RB3LYP) =  -847.515987704     A.U. after    8 cycles
 SCF Done:  E(RB3LYP) =  -847.515987685     A.U. after    8 cycles
 SCF Done:  E(RB3LYP) =  -847.515987640     A.U. after    6 cycles
 SCF Done:  E(RB3LYP) =  -847.515987744     A.U. after    7 cycles
 Optimization completed.
    -- Stationary point found.
 Normal termination of Gaussian 16 at Sun Dec 13 16:34:21 2020.

 --------------------------------------------------------------------
 #N Geom=AllCheck Guess=TCheck SCRF=Check GenChk RB3LYP/6-31G(d) Freq
 --------------------------------------------------------------------

 Structure from the checkpoint file:  "JID_9626.chk"
 -------------------------------
 CID_146010621_JID_9626_neutraal
 -------------------------------
 Charge =  0 Multiplicity = 1

 SCF Done:  E(RB3LYP) =  -847.515987744     A.U. after    1 cycles

  Exact polarizability: 184.201   1.844 197.434  19.241  -5.084 123.397
 Approx polarizability: 258.490  13.354 298.297  34.952 -16.281 198.701

                      1                      2                      3
                      A                      A                      A
 Frequencies --     23.8460                29.7409                39.2555
 Red. masses --      4.4543                 4.7081                 2.7478
 Frc consts  --      0.0015                 0.0025                 0.0025
 IR Inten    --      0.3425                 0.9636                 2.8951

                      4                      5                      6
                      A                      A                      A
 Frequencies --     59.3335                68.4127                81.1678
 Red. masses --      2.5575                 3.6270                 1.4899
 Frc consts  --      0.0053                 0.0100                 0.0058
 IR Inten    --      0.2375                 1.1384                 0.1314

                      7                      8                      9
                      A                      A                      A
 Frequencies --     94.0144               101.0678               109.8340
 Red. masses --      2.4113                 3.6888                 3.4490
 Frc consts  --      0.0126                 0.0222                 0.0245
 IR Inten    --      0.5981                 2.4346                 0.3428

                     10                     11                     12
                      A                      A                      A
 Frequencies --    136.4039               153.3856               192.6669
 Red. masses --      4.2354                 3.9516                 3.0811
 Frc consts  --      0.0464                 0.0548                 0.0674
 IR Inten    --      0.2278                 2.5190                 0.1705

                     13                     14                     15
                      A                      A                      A
 Frequencies --    227.3636               270.7937               283.9949
 Red. masses --      3.9850                 2.8665                 3.4916
 Frc consts  --      0.1214                 0.1238                 0.1659
 IR Inten    --      6.5781                 0.9495                 1.7281

                     16                     17                     18
                      A                      A                      A
 Frequencies --    319.1807               358.5898               387.0913
 Red. masses --      3.8280                 3.9135                 5.7732
 Frc consts  --      0.2298                 0.2965                 0.5097
 IR Inten    --      0.6295                 1.8795                 2.3326

                     19                     20                     21
                      A                      A                      A
 Frequencies --    412.4733               423.8480               451.2208
 Red. masses --      3.2689                 2.0018                 3.0881
 Frc consts  --      0.3277                 0.2119                 0.3704
 IR Inten    --      2.7374                 0.1522                 1.8594

                     22                     23                     24
                      A                      A                      A
 Frequencies --    486.3166               531.7438               539.8526
 Red. masses --      4.1842                 3.8997                 4.7019
 Frc consts  --      0.5830                 0.6497                 0.8074
 IR Inten    --      0.3679                 3.3138                10.0173

                     25                     26                     27
                      A                      A                      A
 Frequencies --    543.5399               591.1769               607.8285
 Red. masses --      2.3845                 3.1013                 3.5146
 Frc consts  --      0.4151                 0.6386                 0.7651
 IR Inten    --      1.9485                 0.8955                18.6830

                     28                     29                     30
                      A                      A                      A
 Frequencies --    617.3896               672.9459               692.0656
 Red. masses --      2.7669                 5.2718                 3.8244
 Frc consts  --      0.6214                 1.4066                 1.0792
 IR Inten    --      2.7342                 3.2474                 6.1031

                     31                     32                     33
                      A                      A                      A
 Frequencies --    720.5095               765.3113               781.9318
 Red. masses --      2.8812                 2.4341                 1.2718
 Frc consts  --      0.8812                 0.8400                 0.4582
 IR Inten    --     10.4119                 9.8016                 2.5278

                     34                     35                     36
                      A                      A                      A
 Frequencies --    814.6147               828.5594               856.4001
 Red. masses --      1.8423                 1.9306                 2.0392
 Frc consts  --      0.7203                 0.7809                 0.8812
 IR Inten    --     14.5231                 3.7508                11.4350

                     37                     38                     39
                      A                      A                      A
 Frequencies --    872.7513               897.4538               907.7557
 Red. masses --      2.6689                 2.2233                 2.3297
 Frc consts  --      1.1977                 1.0550                 1.1310
 IR Inten    --      6.1803                 5.5638                 6.8991

                     40                     41                     42
                      A                      A                      A
 Frequencies --    915.3796               933.2547               941.7478
 Red. masses --      2.0733                 2.0974                 1.8949
 Frc consts  --      1.0236                 1.0763                 0.9901
 IR Inten    --     11.5873                14.2899                 0.7109

                     43                     44                     45
                      A                      A                      A
 Frequencies --    955.0281               963.1144               979.2128
 Red. masses --      2.3423                 2.3815                 1.9134
 Frc consts  --      1.2587                 1.3015                 1.0809
 IR Inten    --     15.3757                 1.8343                 9.2003

                     46                     47                     48
                      A                      A                      A
 Frequencies --    997.1076              1009.4440              1025.4887
 Red. masses --      1.3027                 1.6695                 2.2915
 Frc consts  --      0.7631                 1.0023                 1.4198
 IR Inten    --      0.3755                 3.3844                 4.5688

                     49                     50                     51
                      A                      A                      A
 Frequencies --   1027.9184              1035.1204              1054.8355
 Red. masses --      2.3765                 1.8968                 2.2195
 Frc consts  --      1.4794                 1.1974                 1.4550
 IR Inten    --      4.5011                52.5961                15.5516

                     52                     53                     54
                      A                      A                      A
 Frequencies --   1058.6369              1075.5194              1114.8214
 Red. masses --      2.2344                 1.7390                 1.9355
 Frc consts  --      1.4754                 1.1852                 1.4173
 IR Inten    --      9.6922                 6.8014                 0.8370

                     55                     56                     57
                      A                      A                      A
 Frequencies --   1115.3919              1123.9200              1175.9450
 Red. masses --      1.7351                 2.2536                 1.2517
 Frc consts  --      1.2719                 1.6772                 1.0198
 IR Inten    --     10.1519                 1.6952                 8.8630

                     58                     59                     60
                      A                      A                      A
 Frequencies --   1186.8999              1194.3424              1221.3117
 Red. masses --      1.3904                 1.2233                 1.5092
 Frc consts  --      1.1541                 1.0281                 1.3263
 IR Inten    --     39.8425                 5.0422                10.4668

                     61                     62                     63
                      A                      A                      A
 Frequencies --   1226.7662              1239.3094              1250.7628
 Red. masses --      1.5860                 2.2579                 2.7885
 Frc consts  --      1.4063                 2.0433                 2.5702
 IR Inten    --     20.1984               261.1102               305.1610

                     64                     65                     66
                      A                      A                      A
 Frequencies --   1274.9708              1298.3269              1311.4615
 Red. masses --      1.5536                 1.3154                 1.2943
 Frc consts  --      1.4880                 1.3064                 1.3116
 IR Inten    --     28.4046                23.5210                 1.6095

                     67                     68                     69
                      A                      A                      A
 Frequencies --   1311.7202              1329.2843              1339.7828
 Red. masses --      1.8038                 1.4285                 1.2867
 Frc consts  --      1.8286                 1.4872                 1.3608
 IR Inten    --     64.0841                 6.3252                 9.8494

                     70                     71                     72
                      A                      A                      A
 Frequencies --   1344.7685              1361.8679              1365.4883
 Red. masses --      1.3334                 1.3985                 1.3406
 Frc consts  --      1.4207                 1.5282                 1.4727
 IR Inten    --      1.9684                22.2286                 0.4204

                     73                     74                     75
                      A                      A                      A
 Frequencies --   1373.5193              1378.9346              1387.8930
 Red. masses --      5.3796                 1.3944                 1.3925
 Frc consts  --      5.9795                 1.5621                 1.5804
 IR Inten    --      5.5166                10.0985                 6.8055

                     76                     77                     78
                      A                      A                      A
 Frequencies --   1423.3933              1424.9986              1477.6777
 Red. masses --      1.4810                 1.3637                 3.3671
 Frc consts  --      1.7678                 1.6316                 4.3318
 IR Inten    --      4.3530                55.5694                21.5659

                     79                     80                     81
                      A                      A                      A
 Frequencies --   1498.8211              1503.4321              1510.0424
 Red. masses --      1.0489                 1.0473                 1.0811
 Frc consts  --      1.3883                 1.3948                 1.4524
 IR Inten    --     15.5859                 9.3527                 0.4367

                     82                     83                     84
                      A                      A                      A
 Frequencies --   1516.6533              1518.4613              1521.5900
 Red. masses --      1.2150                 1.0992                 1.0929
 Frc consts  --      1.6466                 1.4933                 1.4908
 IR Inten    --      7.6904                 1.6399                 1.9944

                     85                     86                     87
                      A                      A                      A
 Frequencies --   1525.7723              1536.9166              1545.8966
 Red. masses --      1.0874                 2.0250                 1.1130
 Frc consts  --      1.4915                 2.8183                 1.5671
 IR Inten    --      8.0501                17.4646                 6.3804

                     88                     89                     90
                      A                      A                      A
 Frequencies --   1647.4234              1662.1119              1767.5119
 Red. masses --      6.1657                 6.0560                11.2983
 Frc consts  --      9.8593                 9.8573                20.7963
 IR Inten    --     37.6512                 4.7112               153.1848

                     91                     92                     93
                      A                      A                      A
 Frequencies --   1845.2428              3022.8786              3034.0785
 Red. masses --     11.3896                 1.0681                 1.0636
 Frc consts  --     22.8489                 5.7507                 5.7688
 IR Inten    --    244.7111                21.6592                26.2512

                     94                     95                     96
                      A                      A                      A
 Frequencies --   3036.5379              3055.5181              3060.1588
 Red. masses --      1.0705                 1.0777                 1.0613
 Frc consts  --      5.8155                 5.9282                 5.8554
 IR Inten    --     23.9601                22.8470                31.3421

                     97                     98                     99
                      A                      A                      A
 Frequencies --   3065.8324              3071.8734              3074.2661
 Red. masses --      1.0703                 1.0808                 1.0373
 Frc consts  --      5.9274                 6.0093                 5.7759
 IR Inten    --     41.5624                 4.0966                 1.2835

                    100                    101                    102
                      A                      A                      A
 Frequencies --   3084.2718              3090.9394              3095.2914
 Red. masses --      1.0784                 1.0929                 1.0966
 Frc consts  --      6.0442                 6.1521                 6.1904
 IR Inten    --     20.6199                63.7885                39.5709

                    103                    104                    105
                      A                      A                      A
 Frequencies --   3104.3840              3123.6889              3126.6700
 Red. masses --      1.1025                 1.1050                 1.1016
 Frc consts  --      6.2601                 6.3527                 6.3452
 IR Inten    --     38.7101                15.7975                72.2685

                    106                    107                    108
                      A                      A                      A
 Frequencies --   3137.5747              3187.6640              3201.3846
 Red. masses --      1.1002                 1.1036                 1.0882
 Frc consts  --      6.3812                 6.6073                 6.5709
 IR Inten    --      3.8052                 5.6732                 9.9397

                    109                    110                    111
                      A                      A                      A
 Frequencies --   3221.8300              3235.5007              3263.4953
 Red. masses --      1.0936                 1.0928                 1.0899
 Frc consts  --      6.6882                 6.7401                 6.8389
 IR Inten    --      6.6376                 4.8366                 2.4228

 - Thermochemistry -
 -------------------
 Temperature   298.150 Kelvin.  Pressure   1.00000 Atm.
 Atom     1 has atomic number  6 and mass  12.00000

 Molecular mass:   260.14124 amu.
 Principal axes and moments of inertia in atomic units:
                           1         2         3
     Eigenvalues --  4602.957844972.204818480.72010
           X            0.99914   0.04136   0.00270
           Y           -0.04134   0.99913  -0.00463
           Z           -0.00288   0.00451   0.99999
 This molecule is an asymmetric top.
 Rotational symmetry number  1.
 Warning -- assumption of classical behavior for rotation
           may cause significant error
 Rotational temperatures (Kelvin)      0.01882     0.01742     0.01021
 Rotational constants (GHZ):           0.39208     0.36297     0.21281
 Zero-point vibrational energy     873698.1 (Joules/Mol)
                                  208.81885 (Kcal/Mol)
 Warning -- explicit consideration of  28 degrees of freedom as
           vibrations may cause significant error
 Vibrational temperatures:     34.31    42.79    56.48    85.37    98.43
          (Kelvin)            116.78   135.27   145.41   158.03   196.25
                              220.69   277.20   327.13   389.61   408.61
                              459.23   515.93   556.94   593.46   609.82
                              649.21   699.70   765.06   776.73   782.03
                              850.57   874.53   888.29   968.22   995.73
                             1036.65  1101.11  1125.03  1172.05  1192.11
                             1232.17  1255.69  1291.24  1306.06  1317.03
                             1342.75  1354.97  1374.07  1385.71  1408.87
                             1434.62  1452.36  1475.45  1478.95  1489.31
                             1517.67  1523.14  1547.43  1603.98  1604.80
                             1617.07  1691.92  1707.68  1718.39  1757.20
                             1765.04  1783.09  1799.57  1834.40  1868.00
                             1886.90  1887.27  1912.54  1927.65  1934.82
                             1959.42  1964.63  1976.19  1983.98  1996.87
                             2047.95  2050.26  2126.05  2156.47  2163.10
                             2172.61  2182.13  2184.73  2189.23  2195.25
                             2211.28  2224.20  2370.27  2391.41  2543.06
                             2654.89  4349.25  4365.36  4368.90  4396.21
                             4402.89  4411.05  4419.74  4423.18  4437.58
                             4447.17  4453.43  4466.52  4494.29  4498.58
                             4514.27  4586.34  4606.08  4635.49  4655.16
                             4695.44

 Zero-point correction=                           0.332774 (Hartree/Particle)
 Thermal correction to Energy=                    0.351107
 Thermal correction to Enthalpy=                  0.352051
 Thermal correction to Gibbs Free Energy=         0.283865
 Sum of electronic and zero-point Energies=           -847.183214
 Sum of electronic and thermal Energies=              -847.164881
 Sum of electronic and thermal Enthalpies=            -847.163937
 Sum of electronic and thermal Free Energies=         -847.232122

                     E (Thermal)             CV                S
                      KCal/Mol        Cal/Mol-Kelvin    Cal/Mol-Kelvin
 Total                  220.323             68.674            143.509
 Electronic               0.000              0.000              0.000
 Translational            0.889              2.981             42.568
 Rotational               0.889              2.981             33.628
 Vibrational            218.545             62.713             67.313
 Vibration     1          0.593              1.985              6.285
 Vibration     2          0.594              1.984              5.847
 Vibration     3          0.594              1.981              5.296
 Vibration     4          0.597              1.974              4.479
 Vibration     5          0.598              1.969              4.199
 Vibration     6          0.600              1.962              3.862
 Vibration     7          0.603              1.953              3.575
 Vibration     8          0.604              1.948              3.434
 Vibration     9          0.606              1.941              3.272
 Vibration    10          0.614              1.917              2.854
 Vibration    11          0.619              1.899              2.630
 Vibration    12          0.635              1.850              2.202
 Vibration    13          0.651              1.799              1.900
 Vibration    14          0.674              1.727              1.591
 Vibration    15          0.682              1.703              1.509
 Vibration    16          0.705              1.637              1.314
 Vibration    17          0.733              1.558              1.128
 Vibration    18          0.756              1.498              1.011
 Vibration    19          0.776              1.443              0.918
 Vibration    20          0.786              1.418              0.879
 Vibration    21          0.810              1.358              0.792
 Vibration    22          0.842              1.280              0.693
 Vibration    23          0.887              1.180              0.583
 Vibration    24          0.895              1.162              0.566
 Vibration    25          0.899              1.154              0.558
 Vibration    26          0.949              1.051              0.465
 Vibration    27          0.967              1.015              0.436
 Vibration    28          0.977              0.995              0.421

 Optimization completed.
    -- Stationary point found.
 Normal termination of Gaussian 16 at Sun Dec 13 16:57:33 2020.

 ----------------------------------------------------------------------
 # B3LYP/6-311++G(d,p) empiricaldispersion=gd3bj scf=xqc pop=npa geom=c
 heck
 ----------------------------------------------------------------------

 ---------------------------------------
 CID_146010621_JID_9626_Energie_neutraal
 ---------------------------------------
 Structure from the checkpoint file:  "JID_9626.chk"
 Charge =  0 Multiplicity = 1

 SCF Done:  E(RB3LYP) =  -847.747586365     A.U. after   16 cycles
 Normal termination of Gaussian 16 at Sun Dec 13 17:08:21 2020.

 ----------------------------------------------------------------------
 # B3LYP/6-311++G(d,p) empiricaldispersion=gd3bj scf=xqc pop=npa geom=c
 heck
 ----------------------------------------------------------------------

 -------------------------------------
 CID_146010621_JID_9626_Energie_kation
 -------------------------------------
 Structure from the checkpoint file:  "JID_9626.chk"
 Charge =  1 Multiplicity = 2

 SCF Done:  E(UB3LYP) =  -847.423429780     A.U. after   33 cycles
 SCF Done:  E(UB3LYP) =  -847.423429780     a.u. after    1 cycles
 Normal termination of Gaussian 16 at Sun Dec 13 17:41:03 2020.
 Gaussian 16:  ES64L-G16RevA.03 25-Dec-2016

 ----------------------------------------------------------------------
 # B3LYP/6-311++G(d,p) empiricaldispersion=gd3bj scf=xqc pop=npa geom=c
 heck
 ----------------------------------------------------------------------

 ------------------------------------
 CID_146010621_JID_9626_Energie_anion
 ------------------------------------
 Structure from the checkpoint file:  "JID_9626.chk"
 Charge = -1 Multiplicity = 2

                         Standard orientation:
 ---------------------------------------------------------------------
 Center     Atomic      Atomic             Coordinates (Angstroms)
 Number     Number       Type             X           Y           Z
 ---------------------------------------------------------------------
      1          6           0        0.702180    4.170884   -0.711576
      2          6           0        0.752695    2.776019   -0.145958
      3          8           0       -0.089666    2.254932    0.543013
      4          8           0        1.913941    2.157689   -0.533525
      5          6           0        2.126000    0.838320   -0.124616
      6          6           0        3.239665    0.573279    0.662758
      7          6           0        3.497764   -0.745053    1.048737
      8          6           0        2.639047   -1.767987    0.663811
      9          6           0        1.516659   -1.491901   -0.133190
     10          6           0        1.273515   -0.176923   -0.542480
     11          6           0        0.603362   -2.629120   -0.481373
     12          8           0        0.847875   -3.752950   -0.064932
     13          6           0       -0.659119   -2.397949   -1.300533
     14          6           0       -1.894292   -2.173185   -0.392479
     15          6           0       -2.048993   -0.757921    0.168425
     16          6           0       -2.424693    0.310468   -0.886437
     17          6           0       -3.205446    1.417641   -0.123132
     18          6           0       -3.358041    0.896865    1.326999
     19          6           0       -3.172830   -0.621971    1.209339
     20          1           0       -0.191351    4.677785   -0.347082
     21          1           0        0.683471    4.124659   -1.805557
     22          1           0        1.598198    4.729095   -0.423763
     23          1           0        3.885664    1.391185    0.964405
     24          1           0        4.366742   -0.963868    1.661929
     25          1           0        2.807410   -2.794275    0.969726
     26          1           0        0.423742    0.072079   -1.162000
     27          1           0       -0.553155   -1.573417   -2.012147
     28          1           0       -0.806161   -3.317220   -1.874807
     29          1           0       -2.794060   -2.415755   -0.973733
     30          1           0       -1.848730   -2.903199    0.425575
     31          1           0       -1.116511   -0.447279    0.656975
     32          1           0       -1.550441    0.717336   -1.404135
     33          1           0       -3.061146   -0.148535   -1.654573
     34          1           0       -4.185871    1.579687   -0.584791
     35          1           0       -2.672944    2.371701   -0.142589
     36          1           0       -4.311754    1.181662    1.783835
     37          1           0       -2.556492    1.311100    1.949342
     38          1           0       -4.090697   -1.092106    0.826058
     39          1           0       -2.927949   -1.106794    2.161109
 ---------------------------------------------------------------------

 SCF Done:  E(UB3LYP) =  -847.761663202     A.U. after   31 cycles

 The electronic state is 2-A.
 Alpha  occ. eigenvalues --  -19.06212 -19.01331 -18.91707 -10.20668 -10.09739
 Alpha  occ. eigenvalues --  -10.09274 -10.06301 -10.05888 -10.05838 -10.05487
 Alpha  occ. eigenvalues --  -10.05223 -10.04888 -10.04281 -10.03470 -10.02980
 Alpha  occ. eigenvalues --  -10.02848 -10.02480 -10.01762 -10.01683  -1.00327
 Alpha  occ. eigenvalues --   -0.92436  -0.85934  -0.72984  -0.71723  -0.67220
 Alpha  occ. eigenvalues --   -0.65354  -0.61536  -0.60598  -0.60063  -0.58434
 Alpha  occ. eigenvalues --   -0.51822  -0.50993  -0.48375  -0.46245  -0.44915
 Alpha  occ. eigenvalues --   -0.43098  -0.40263  -0.38795  -0.38088  -0.37519
 Alpha  occ. eigenvalues --   -0.36619  -0.35963  -0.35612  -0.33393  -0.32732
 Alpha  occ. eigenvalues --   -0.32379  -0.31162  -0.30727  -0.30089  -0.28830
 Alpha  occ. eigenvalues --   -0.28412  -0.28113  -0.26914  -0.25056  -0.24321
 Alpha  occ. eigenvalues --   -0.23377  -0.23209  -0.22918  -0.22695  -0.21650
 Alpha  occ. eigenvalues --   -0.21524  -0.20995  -0.20144  -0.19839  -0.19559
 Alpha  occ. eigenvalues --   -0.18521  -0.18224  -0.11948  -0.10984  -0.08118
 Alpha  occ. eigenvalues --    0.04337
 Alpha virt. eigenvalues --    0.06404   0.07516   0.08585   0.09006   0.09350
 Alpha virt. eigenvalues --    0.09786   0.10190   0.10428   0.11056   0.11426
 Alpha virt. eigenvalues --    0.12108   0.12436   0.12644   0.12961   0.13209

  Beta  occ. eigenvalues --  -19.06219 -19.01304 -18.91176 -10.20656 -10.09738
  Beta  occ. eigenvalues --  -10.09318 -10.05984 -10.05887 -10.05838 -10.05484
  Beta  occ. eigenvalues --  -10.05219 -10.04888 -10.04245 -10.03531 -10.03010
  Beta  occ. eigenvalues --  -10.02702 -10.02148 -10.01614 -10.01519  -1.00314
  Beta  occ. eigenvalues --   -0.92410  -0.84966  -0.72972  -0.71424  -0.67153
  Beta  occ. eigenvalues --   -0.65239  -0.61059  -0.60364  -0.60045  -0.58332
  Beta  occ. eigenvalues --   -0.51625  -0.50654  -0.47920  -0.46236  -0.44817
  Beta  occ. eigenvalues --   -0.42989  -0.40193  -0.38681  -0.38014  -0.37480
  Beta  occ. eigenvalues --   -0.36245  -0.35831  -0.35512  -0.33253  -0.32678
  Beta  occ. eigenvalues --   -0.32278  -0.31130  -0.30526  -0.30012  -0.28752
  Beta  occ. eigenvalues --   -0.28200  -0.27959  -0.26622  -0.24606  -0.24063
  Beta  occ. eigenvalues --   -0.23364  -0.23063  -0.22554  -0.22201  -0.21588
  Beta  occ. eigenvalues --   -0.21307  -0.20510  -0.19985  -0.19706  -0.19457
  Beta  occ. eigenvalues --   -0.18213  -0.17007  -0.10850  -0.09401  -0.07631
  Beta virt. eigenvalues --    0.06322   0.07412   0.08550   0.08958   0.09299
  Beta virt. eigenvalues --    0.09674   0.10136   0.10226   0.10717   0.11267
  Beta virt. eigenvalues --    0.11366   0.12026   0.12346   0.12720   0.12878

 Mulliken charges and spin densities:
               1          2
     1  C   -0.459355  -0.075970
     2  C   -0.045952   0.059052
     3  O   -0.183025   0.008115
     4  O   -0.023987   0.002529
     5  C   -0.552984  -0.116707
     6  C    0.189059   0.243146
     7  C   -0.422601  -0.036078
     8  C   -0.007470   0.179189
     9  C    0.898566   0.111581
    10  C   -0.700190   0.159438
    11  C   -0.445426   0.149389
    12  O   -0.369449   0.195519
    13  C    0.074551   0.011654
    14  C   -0.410925  -0.171257
    15  C    0.343774   0.092259
    16  C   -0.139633  -0.050895
    17  C   -0.399664  -0.053236
    18  C   -0.381193   0.025361
    19  C   -0.470034  -0.033415
    20  H    0.143748   0.010863
    21  H    0.127451   0.045948
    22  H    0.155882   0.008542
    23  H    0.118573  -0.021361
    24  H    0.120324   0.003437
    25  H    0.174107  -0.010191
    26  H    0.062333  -0.012424
    27  H    0.099829   0.023504
    28  H    0.126002   0.075610
    29  H    0.024164   0.082986
    30  H    0.199164  -0.024016
    31  H    0.189920   0.023946
    32  H    0.087890   0.014128
    33  H    0.135161   0.037664
    34  H    0.097999   0.013872
    35  H    0.118978   0.003287
    36  H    0.136506   0.007616
    37  H    0.153590  -0.000241
    38  H    0.091165   0.014226
    39  H    0.143146   0.002928
 Sum of Mulliken charges =  -1.00000   1.00000

 Dipole moment (field-independent basis, Debye):
    X=             -3.8664    Y=              8.2063    Z=             -0.7036  Tot=              9.0987
 Quadrupole moment (field-independent basis, Debye-Ang):
   XX=           -146.3163   YY=           -155.8911   ZZ=           -126.1579
   XY=              8.8509   XZ=              1.0231   YZ=             -3.5386

 Summary of Natural Population Analysis:

                                       Natural Population
                Natural  -----------------------------------------------
    Atom  No    Charge         Core      Valence    Rydberg      Total
 -----------------------------------------------------------------------
      C    1   -0.33319      0.99962     2.32885    0.00472     3.33319
      C    2    0.40399      0.99971     1.57248    0.02382     2.59601
      O    3   -0.29288      0.99986     3.28647    0.00654     4.29288
      O    4   -0.28251      0.99984     3.27324    0.00943     4.28251
      C    5    0.12327      0.99933     1.86564    0.01175     2.87673
      C    6   -0.05934      0.99951     2.05087    0.00896     3.05934
      C    7   -0.12169      0.99958     2.11315    0.00896     3.12169
      C    8   -0.05177      0.99954     2.04327    0.00897     3.05177
      C    9   -0.03580      0.99947     2.02692    0.00941     3.03580
      C   10   -0.08214      0.99947     2.07529    0.00738     3.08214
      C   11    0.30947      0.99962     1.66900    0.02191     2.69053
      O   12   -0.25556      0.99988     3.24950    0.00618     4.25556
      C   13   -0.22795      0.99960     2.21964    0.00872     3.22795
      C   14   -0.17822      0.99960     2.16859    0.01002     3.17822
      C   15   -0.12481      0.99959     2.11351    0.01171     3.12481
      C   16   -0.18800      0.99963     2.18086    0.00751     3.18800
      C   17   -0.19324      0.99965     2.18583    0.00776     3.19324
      C   18   -0.19182      0.99965     2.18614    0.00604     3.19182
      C   19   -0.18416      0.99963     2.17814    0.00639     3.18416
      H   20    0.10635      0.00000     0.39238    0.00127     0.39365
      H   21    0.11152      0.00000     0.38735    0.00112     0.38848
      H   22    0.11031      0.00000     0.38867    0.00102     0.38969
      H   23    0.09154      0.00000     0.40743    0.00102     0.40846
      H   24    0.09049      0.00000     0.40843    0.00108     0.40951
      H   25    0.10638      0.00000     0.39244    0.00118     0.39362
      H   26    0.09605      0.00000     0.40160    0.00235     0.40395
      H   27    0.09383      0.00000     0.40482    0.00135     0.40617
      H   28    0.10290      0.00000     0.39476    0.00235     0.39710
      H   29    0.08746      0.00000     0.41109    0.00146     0.41254
      H   30    0.10082      0.00000     0.39805    0.00113     0.39918
      H   31    0.11149      0.00000     0.38622    0.00229     0.38851
      H   32    0.09972      0.00000     0.39904    0.00124     0.40028
      H   33    0.09036      0.00000     0.40842    0.00122     0.40964
      H   34    0.08782      0.00000     0.41090    0.00128     0.41218
      H   35    0.10176      0.00000     0.39677    0.00147     0.39824
      H   36    0.09003      0.00000     0.40892    0.00105     0.40997
      H   37    0.10112      0.00000     0.39783    0.00105     0.39888
      H   38    0.08755      0.00000     0.41103    0.00142     0.41245
      H   39    0.09888      0.00000     0.40028    0.00084     0.40112
 =======================================================================
   * Total *   -0.00000     18.99280    50.79384    0.21336    70.00000

 Normal termination of Gaussian 16 at Sun Dec 13 18:10:39 2020.
