 Gaussian 16, Revision A.03,

 -----------------------------------------------------------
 # opt freq B3LYP/6-31G(d) empiricaldispersion=gd3bj scf=xqc
 -----------------------------------------------------------

 -----------------------------
 CID_90659497_JID_669_neutraal
 -----------------------------
 Symbolic Z-matrix:
 Charge =  0 Multiplicity = 1

 SCF Done:  E(RB3LYP) =  -552.792664048     A.U. after   14 cycles
 SCF Done:  E(RB3LYP) =  -552.794740887     A.U. after   13 cycles
 SCF Done:  E(RB3LYP) =  -552.792649457     A.U. after   14 cycles
 SCF Done:  E(RB3LYP) =  -552.794652954     A.U. after   13 cycles
 SCF Done:  E(RB3LYP) =  -552.795029131     A.U. after    9 cycles
 SCF Done:  E(RB3LYP) =  -552.795137777     A.U. after   12 cycles
 SCF Done:  E(RB3LYP) =  -552.795210852     A.U. after   11 cycles
 SCF Done:  E(RB3LYP) =  -552.795283897     A.U. after   11 cycles
 SCF Done:  E(RB3LYP) =  -552.795340874     A.U. after   11 cycles
 SCF Done:  E(RB3LYP) =  -552.795440317     A.U. after   12 cycles
 SCF Done:  E(RB3LYP) =  -552.800944853     A.U. after   10 cycles
 SCF Done:  E(RB3LYP) =  -552.800946937     A.U. after    9 cycles
 SCF Done:  E(RB3LYP) =  -552.800948309     A.U. after    9 cycles
 SCF Done:  E(RB3LYP) =  -552.800949539     A.U. after    9 cycles
 SCF Done:  E(RB3LYP) =  -552.800950119     A.U. after    9 cycles
 SCF Done:  E(RB3LYP) =  -552.800950301     A.U. after    8 cycles
 Optimization completed.
    -- Stationary point found.
 Normal termination of Gaussian 16 at Tue Dec  8 13:56:10 2020.

 --------------------------------------------------------------------
 #N Geom=AllCheck Guess=TCheck SCRF=Check GenChk RB3LYP/6-31G(d) Freq
 --------------------------------------------------------------------

 Structure from the checkpoint file:  "JID_669.chk"
 -----------------------------
 CID_90659497_JID_669_neutraal
 -----------------------------
 Charge =  0 Multiplicity = 1

 SCF Done:  E(RB3LYP) =  -552.800950301     A.U. after    2 cycles

  Exact polarizability:  69.389  -0.525  74.258  -2.508   6.443  71.934
 Approx polarizability:  91.769   5.407  98.953  -4.499   5.216 108.203

                      1                      2                      3
                      A                      A                      A
 Frequencies --     30.6056                53.1626                63.6398
 Red. masses --      6.0119                 5.1303                 3.5333
 Frc consts  --      0.0033                 0.0085                 0.0084
 IR Inten    --      4.8255                 0.9713                 4.9666

                      4                      5                      6
                      A                      A                      A
 Frequencies --     78.4606                89.9212                98.8455
 Red. masses --      5.4020                 4.3161                 4.8992
 Frc consts  --      0.0196                 0.0206                 0.0282
 IR Inten    --      3.3371                 6.1663                 4.2857

                      7                      8                      9
                      A                      A                      A
 Frequencies --    110.2363               145.7095               158.4675
 Red. masses --      2.4040                 3.0017                 2.6017
 Frc consts  --      0.0172                 0.0375                 0.0385
 IR Inten    --      9.7730                10.9354                11.2487

                     10                     11                     12
                      A                      A                      A
 Frequencies --    191.7618               259.7550               276.2346
 Red. masses --      1.3409                 2.5615                 1.3614
 Frc consts  --      0.0291                 0.1018                 0.0612
 IR Inten    --      2.5917                 5.4682                10.6509

                     13                     14                     15
                      A                      A                      A
 Frequencies --    337.8146               359.7597               425.4541
 Red. masses --      2.6810                 1.2399                 2.3060
 Frc consts  --      0.1803                 0.0946                 0.2459
 IR Inten    --     11.8586               244.3934                 3.9566

                     16                     17                     18
                      A                      A                      A
 Frequencies --    458.7036               515.0454               545.2167
 Red. masses --      2.6532                 1.5581                 1.4232
 Frc consts  --      0.3289                 0.2435                 0.2493
 IR Inten    --     17.6021                 4.8632                11.1481

                     19                     20                     21
                      A                      A                      A
 Frequencies --    661.4098               767.1676               829.0723
 Red. masses --      5.1363                10.6146                 2.9074
 Frc consts  --      1.3239                 3.6807                 1.1775
 IR Inten    --      4.4887                24.9433                 1.7401

                     22                     23                     24
                      A                      A                      A
 Frequencies --    882.4828               962.5098              1001.9515
 Red. masses --      2.5418                 2.5216                 3.1390
 Frc consts  --      1.1663                 1.3764                 1.8567
 IR Inten    --     31.1478                28.4237                20.7144

                     25                     26                     27
                      A                      A                      A
 Frequencies --   1112.6578              1132.1267              1140.6850
 Red. masses --      2.5998                 2.9337                 2.1078
 Frc consts  --      1.8963                 2.2154                 1.6159
 IR Inten    --     35.1166                91.8432                38.5071

                     28                     29                     30
                      A                      A                      A
 Frequencies --   1181.9738              1200.1567              1207.8895
 Red. masses --      2.6302                 1.4801                 1.3573
 Frc consts  --      2.1650                 1.2561                 1.1668
 IR Inten    --     69.3170                16.3739                 1.8258

                     31                     32                     33
                      A                      A                      A
 Frequencies --   1239.3139              1283.1622              1313.7869
 Red. masses --      1.5389                 1.3364                 1.1817
 Frc consts  --      1.3926                 1.2965                 1.2017
 IR Inten    --     29.1101                21.6326                 6.8246

                     34                     35                     36
                      A                      A                      A
 Frequencies --   1332.2188              1367.0489              1428.8770
 Red. masses --      1.1994                 2.1953                 1.3241
 Frc consts  --      1.2542                 2.4173                 1.5928
 IR Inten    --      8.0035               318.5628                45.0812

                     37                     38                     39
                      A                      A                      A
 Frequencies --   1439.3915              1500.0265              1513.9683
 Red. masses --      1.5817                 1.1122                 1.1002
 Frc consts  --      1.9307                 1.4745                 1.4858
 IR Inten    --     52.7298                 0.3541                17.3994

                     40                     41                     42
                      A                      A                      A
 Frequencies --   1519.2892              1526.7277              1543.4526
 Red. masses --      1.0905                 1.0744                 1.0590
 Frc consts  --      1.4830                 1.4754                 1.4864
 IR Inten    --      6.0651                 1.7925                 5.6229

                     43                     44                     45
                      A                      A                      A
 Frequencies --   1568.4742              1641.0421              1825.7247
 Red. masses --      1.1575                 1.2397                 6.3882
 Frc consts  --      1.6777                 1.9671                12.5458
 IR Inten    --     14.5441               139.0630               181.6468

                     46                     47                     48
                      A                      A                      A
 Frequencies --   1840.8975              2922.4568              3014.2263
 Red. masses --      7.6982                 1.0590                 1.0444
 Frc consts  --     15.3709                 5.3291                 5.5907
 IR Inten    --    297.8472                89.8369                43.9717

                     49                     50                     51
                      A                      A                      A
 Frequencies --   3027.0331              3035.4579              3071.8096
 Red. masses --      1.0571                 1.1080                 1.0958
 Frc consts  --      5.7069                 6.0153                 6.0923
 IR Inten    --     61.1009                49.8627                18.6881

                     52                     53                     54
                      A                      A                      A
 Frequencies --   3081.8287              3085.8035              3155.9527
 Red. masses --      1.0743                 1.0969                 1.1020
 Frc consts  --      6.0119                 6.1541                 6.4667
 IR Inten    --     54.8240                50.2043                 7.0485

                     55                     56                     57
                      A                      A                      A
 Frequencies --   3167.3729              3606.6640              3730.2878
 Red. masses --      1.0995                 1.0456                 1.1044
 Frc consts  --      6.4987                 8.0137                 9.0547
 IR Inten    --      8.1800                54.4414                48.2017

 - Thermochemistry -
 -------------------
 Temperature   298.150 Kelvin.  Pressure   1.00000 Atm.
 Atom     1 has atomic number  6 and mass  12.00000

 Molecular mass:   149.06881 amu.
 Principal axes and moments of inertia in atomic units:
                           1         2         3
     Eigenvalues --  1277.429042001.026872538.56836
           X            0.99977  -0.01954  -0.00919
           Y            0.01968   0.99969   0.01553
           Z            0.00889  -0.01571   0.99984
 This molecule is an asymmetric top.
 Rotational symmetry number  1.
 Warning -- assumption of classical behavior for rotation
           may cause significant error
 Rotational temperatures (Kelvin)      0.06780     0.04328     0.03412
 Rotational constants (GHZ):           1.41279     0.90191     0.71093
 Zero-point vibrational energy     448965.5 (Joules/Mol)
                                  107.30533 (Kcal/Mol)
 Warning -- explicit consideration of  18 degrees of freedom as
           vibrations may cause significant error
 Vibrational temperatures:     44.03    76.49    91.56   112.89   129.38
          (Kelvin)            142.22   158.61   209.64   228.00   275.90
                              373.73   397.44   486.04   517.61   612.13
                              659.97   741.04   784.45   951.62  1103.78
                             1192.85  1269.70  1384.84  1441.58  1600.87
                             1628.88  1641.19  1700.60  1726.76  1737.88
                             1783.10  1846.18  1890.25  1916.77  1966.88
                             2055.84  2070.96  2158.20  2178.26  2185.92
                             2196.62  2220.68  2256.68  2361.09  2626.81
                             2648.64  4204.76  4336.80  4355.23  4367.35
                             4419.65  4434.06  4439.78  4540.71  4557.14
                             5189.19  5367.05

 Zero-point correction=                           0.171002 (Hartree/Particle)
 Thermal correction to Energy=                    0.184421
 Thermal correction to Enthalpy=                  0.185365
 Thermal correction to Gibbs Free Energy=         0.129361
 Sum of electronic and zero-point Energies=           -552.629948
 Sum of electronic and thermal Energies=              -552.616529
 Sum of electronic and thermal Enthalpies=            -552.615585
 Sum of electronic and thermal Free Energies=         -552.671589

                     E (Thermal)             CV                S
                      KCal/Mol        Cal/Mol-Kelvin    Cal/Mol-Kelvin
 Total                  115.726             43.441            117.871
 Electronic               0.000              0.000              0.000
 Translational            0.889              2.981             40.908
 Rotational               0.889              2.981             30.252
 Vibrational            113.949             37.480             46.711
 Vibration     1          0.594              1.984              5.790
 Vibration     2          0.596              1.976              4.696
 Vibration     3          0.597              1.972              4.341
 Vibration     4          0.600              1.964              3.929
 Vibration     5          0.602              1.956              3.662
 Vibration     6          0.604              1.950              3.477
 Vibration     7          0.606              1.941              3.265
 Vibration     8          0.617              1.907              2.728
 Vibration     9          0.621              1.893              2.568
 Vibration    10          0.634              1.851              2.211
 Vibration    11          0.668              1.746              1.663
 Vibration    12          0.678              1.717              1.557
 Vibration    13          0.718              1.600              1.222
 Vibration    14          0.734              1.555              1.123
 Vibration    15          0.787              1.415              0.874
 Vibration    16          0.817              1.342              0.770
 Vibration    17          0.870              1.217              0.622
 Vibration    18          0.900              1.150              0.554

 Optimization completed.
    -- Stationary point found.
 Normal termination of Gaussian 16 at Tue Dec  8 14:01:50 2020.

 ----------------------------------------------------------------------
 # B3LYP/6-311++G(d,p) empiricaldispersion=gd3bj scf=xqc pop=npa geom=c
 heck
 ----------------------------------------------------------------------

 -------------------------------------
 CID_90659497_JID_669_Energie_neutraal
 -------------------------------------
 Structure from the checkpoint file:  "JID_669.chk"
 Charge =  0 Multiplicity = 1

 SCF Done:  E(RB3LYP) =  -552.984556611     A.U. after   13 cycles
 Normal termination of Gaussian 16 at Tue Dec  8 14:03:45 2020.

 ----------------------------------------------------------------------
 # B3LYP/6-311++G(d,p) empiricaldispersion=gd3bj scf=xqc pop=npa geom=c
 heck
 ----------------------------------------------------------------------

 -----------------------------------
 CID_90659497_JID_669_Energie_kation
 -----------------------------------
 Structure from the checkpoint file:  "JID_669.chk"
 Charge =  1 Multiplicity = 2

 SCF Done:  E(UB3LYP) =  -552.651929519     A.U. after   23 cycles
 Normal termination of Gaussian 16 at Tue Dec  8 14:10:58 2020.
 Gaussian 16:  ES64L-G16RevA.03 25-Dec-2016

 ----------------------------------------------------------------------
 # B3LYP/6-311++G(d,p) empiricaldispersion=gd3bj scf=xqc pop=npa geom=c
 heck
 ----------------------------------------------------------------------

 ----------------------------------
 CID_90659497_JID_669_Energie_anion
 ----------------------------------
 Structure from the checkpoint file:  "JID_669.chk"
 Charge = -1 Multiplicity = 2

                         Standard orientation:
 ---------------------------------------------------------------------
 Center     Atomic      Atomic             Coordinates (Angstroms)
 Number     Number       Type             X           Y           Z
 ---------------------------------------------------------------------
      1          6           0       -1.040109    0.935301   -1.525332
      2          8           0       -1.085344    1.200633   -0.129652
      3          6           0       -0.059789    2.049097    0.351200
      4          6           0        1.079293    1.269809    0.990055
      5          8           0        1.762916    0.487122   -0.003861
      6          6           0        1.606685   -0.863108    0.068509
      7          8           0        1.050118   -1.463730    0.968406
      8          7           0        2.145705   -1.444764   -1.042707
      9          6           0       -2.336692   -1.090544    0.765046
     10          8           0       -3.078315   -1.340060   -0.159848
     11          1           0       -0.093892    0.468935   -1.825262
     12          1           0       -1.182882    1.859598   -2.104622
     13          1           0       -1.860881    0.246328   -1.731341
     14          1           0        0.325161    2.691385   -0.453585
     15          1           0       -0.500188    2.699020    1.119108
     16          1           0        1.818146    1.957035    1.416142
     17          1           0        0.705689    0.602263    1.768441
     18          1           0        2.767767   -0.903896   -1.624912
     19          1           0        2.273818   -2.444613   -1.009775
     20          1           0       -1.291348   -1.443694    0.807846
     21          1           0       -2.672650   -0.494054    1.639681
 ---------------------------------------------------------------------

 SCF Done:  E(UB3LYP) =  -552.974131406     A.U. after   31 cycles

 The electronic state is 2-A.
 Alpha  occ. eigenvalues --  -19.06034 -19.02943 -19.01223 -18.99551 -14.22541
 Alpha  occ. eigenvalues --  -10.21883 -10.13887 -10.12450 -10.12303 -10.10530
 Alpha  occ. eigenvalues --   -1.00617  -0.94072  -0.93605  -0.91553  -0.80648
 Alpha  occ. eigenvalues --   -0.67095  -0.59410  -0.53394  -0.50878  -0.48066
 Alpha  occ. eigenvalues --   -0.45239  -0.41642  -0.40339  -0.38160  -0.37649
 Alpha  occ. eigenvalues --   -0.36684  -0.34995  -0.34174  -0.33141  -0.31822
 Alpha  occ. eigenvalues --   -0.30557  -0.28888  -0.27190  -0.25235  -0.22516
 Alpha  occ. eigenvalues --   -0.21204  -0.18712  -0.17772  -0.16079  -0.14629
 Alpha  occ. eigenvalues --    0.04485
 Alpha virt. eigenvalues --    0.06509   0.06729   0.08366   0.08988   0.10210
 Alpha virt. eigenvalues --    0.10620   0.11139   0.12366   0.12766   0.13764
 Alpha virt. eigenvalues --    0.14230   0.14793   0.15425   0.16356   0.17012

  Beta  occ. eigenvalues --  -19.06016 -19.02945 -19.01155 -18.99542 -14.22455
  Beta  occ. eigenvalues --  -10.21878 -10.13803 -10.12429 -10.12280 -10.10512
  Beta  occ. eigenvalues --   -1.00593  -0.94053  -0.93484  -0.91531  -0.80535
  Beta  occ. eigenvalues --   -0.67050  -0.59366  -0.53327  -0.50634  -0.47970
  Beta  occ. eigenvalues --   -0.45156  -0.41581  -0.40288  -0.38131  -0.37613
  Beta  occ. eigenvalues --   -0.36623  -0.34955  -0.34148  -0.33040  -0.31771
  Beta  occ. eigenvalues --   -0.30513  -0.28748  -0.26884  -0.25202  -0.22496
  Beta  occ. eigenvalues --   -0.21184  -0.18685  -0.17703  -0.16061  -0.14570
  Beta virt. eigenvalues --    0.07087   0.07500   0.08289   0.08841   0.09448
  Beta virt. eigenvalues --    0.10894   0.11320   0.11892   0.12383   0.12967
  Beta virt. eigenvalues --    0.14002   0.14315   0.14978   0.15715   0.16429

 Mulliken charges and spin densities:
               1          2
     1  C    0.068781  -0.336453
     2  O   -0.166448   0.020302
     3  C    0.311851  -0.639208
     4  C    0.426421  -0.633779
     5  O   -0.091801   0.019719
     6  C    1.038517  -1.034239
     7  O   -0.308824  -0.021203
     8  N   -0.496928   0.185932
     9  C    0.061996  -0.115050
    10  O   -0.276429   0.022732
    11  H    0.005419   0.147063
    12  H   -0.214923   0.330593
    13  H    0.183056  -0.027181
    14  H   -0.106564   0.270670
    15  H   -0.256569   0.416558
    16  H   -0.694218   0.850615
    17  H    0.372538  -0.168605
    18  H   -0.573257   0.867365
    19  H   -0.346259   0.628973
    20  H    0.099024   0.097722
    21  H   -0.035382   0.117471
 Sum of Mulliken charges =  -1.00000   1.00000

 Dipole moment (field-independent basis, Debye):
    X=             -3.4436    Y=              1.3551    Z=              2.7825  Tot=              4.6300
 Quadrupole moment (field-independent basis, Debye-Ang):
   XX=           -115.5073   YY=           -103.3129   ZZ=            -89.7890
   XY=             -0.4952   XZ=              6.7901   YZ=             -5.8720

 Summary of Natural Population Analysis:

                                       Natural Population
                Natural  -----------------------------------------------
    Atom  No    Charge         Core      Valence    Rydberg      Total
 -----------------------------------------------------------------------
      C    1   -0.10209      0.99960     2.09318    0.00931     3.10209
      O    2   -0.30347      0.99989     3.29239    0.01119     4.30347
      C    3   -0.01789      0.99957     2.00505    0.01327     3.01789
      C    4   -0.02699      0.99955     2.01511    0.01233     3.02699
      O    5   -0.29282      0.99986     3.28155    0.01141     4.29282
      C    6    0.45696      0.99972     1.51664    0.02667     2.54304
      O    7   -0.33678      0.99987     3.33090    0.00601     4.33678
      N    8   -0.40370      0.99971     2.89532    0.00867     3.90370
      C    9    0.16105      0.99979     1.82081    0.01835     2.83895
      O   10   -0.27649      0.99988     3.26913    0.00747     4.27649
      H   11    0.08652      0.00000     0.41166    0.00182     0.41348
      H   12    0.07637      0.00000     0.42254    0.00110     0.42363
      H   13    0.09893      0.00000     0.40000    0.00107     0.40107
      H   14    0.08558      0.00000     0.41222    0.00219     0.41442
      H   15    0.08997      0.00000     0.40852    0.00151     0.41003
      H   16    0.09191      0.00000     0.40623    0.00186     0.40809
      H   17    0.10159      0.00000     0.39664    0.00177     0.39841
      H   18    0.20388      0.00000     0.27861    0.01751     0.29612
      H   19    0.19968      0.00000     0.29540    0.00492     0.30032
      H   20    0.06754      0.00000     0.43021    0.00225     0.43246
      H   21    0.04024      0.00000     0.45741    0.00235     0.45976
 =======================================================================
   * Total *   -0.00000      9.99744    29.83952    0.16304    40.00000

 Normal termination of Gaussian 16 at Tue Dec  8 14:19:24 2020.
