 Gaussian 16, Revision A.03,

 -----------------------------------------------------------
 # opt freq B3LYP/6-31G(d) empiricaldispersion=gd3bj scf=xqc
 -----------------------------------------------------------

 -------------------------------
 CID_149800039_JID_6935_neutraal
 -------------------------------
 Symbolic Z-matrix:
 Charge =  0 Multiplicity = 1

 SCF Done:  E(RB3LYP) =  -1417.35680318     A.U. after   15 cycles
 SCF Done:  E(RB3LYP) =  -1417.36177297     A.U. after   13 cycles
 SCF Done:  E(RB3LYP) =  -1417.35708380     A.U. after   14 cycles
 SCF Done:  E(RB3LYP) =  -1417.36128528     A.U. after   14 cycles
 SCF Done:  E(RB3LYP) =  -1417.36270209     A.U. after   10 cycles
 SCF Done:  E(RB3LYP) =  -1417.36338041     A.U. after   13 cycles
 SCF Done:  E(RB3LYP) =  -1417.36361081     A.U. after   12 cycles
 SCF Done:  E(RB3LYP) =  -1417.36377558     A.U. after   13 cycles
 SCF Done:  E(RB3LYP) =  -1417.36407803     A.U. after   12 cycles
 SCF Done:  E(RB3LYP) =  -1417.36493799     A.U. after   14 cycles
 SCF Done:  E(RB3LYP) =  -1417.36888376     A.U. after   11 cycles
 SCF Done:  E(RB3LYP) =  -1417.36888420     A.U. after    9 cycles
 SCF Done:  E(RB3LYP) =  -1417.36888439     A.U. after    8 cycles
 SCF Done:  E(RB3LYP) =  -1417.36888442     A.U. after    7 cycles
 SCF Done:  E(RB3LYP) =  -1417.36888445     A.U. after    8 cycles
 SCF Done:  E(RB3LYP) =  -1417.36888446     A.U. after    7 cycles
 Optimization completed.
    -- Stationary point found.
 Normal termination of Gaussian 16 at Fri Dec 11 01:30:55 2020.

 --------------------------------------------------------------------
 #N Geom=AllCheck Guess=TCheck SCRF=Check GenChk RB3LYP/6-31G(d) Freq
 --------------------------------------------------------------------

 Structure from the checkpoint file:  "JID_6935.chk"
 -------------------------------
 CID_149800039_JID_6935_neutraal
 -------------------------------
 Charge =  0 Multiplicity = 1

 SCF Done:  E(RB3LYP) =  -1417.36888446     A.U. after    1 cycles

  Exact polarizability: 197.600   0.007 158.010 -29.742  -0.010 158.424
 Approx polarizability: 253.850   0.013 215.204 -65.570  -0.028 267.302

                      1                      2                      3
                      A                      A                      A
 Frequencies --      6.6138                16.1492                17.2664
 Red. masses --      5.7797                 4.0710                 4.3724
 Frc consts  --      0.0001                 0.0006                 0.0008
 IR Inten    --      0.0060                 4.0909                 2.9071

                      4                      5                      6
                      A                      A                      A
 Frequencies --     30.9272                40.2440                48.3361
 Red. masses --      6.3592                 5.0182                 3.6177
 Frc consts  --      0.0036                 0.0048                 0.0050
 IR Inten    --      0.4898                 1.5176                 1.6342

                      7                      8                      9
                      A                      A                      A
 Frequencies --     57.9602                76.0641               101.2084
 Red. masses --      4.5505                 2.5870                 3.4655
 Frc consts  --      0.0090                 0.0088                 0.0209
 IR Inten    --      0.0181                 0.0789                 0.2357

                     10                     11                     12
                      A                      A                      A
 Frequencies --    130.0279               146.9066               156.0468
 Red. masses --      4.1682                 2.0852                 1.0449
 Frc consts  --      0.0415                 0.0265                 0.0150
 IR Inten    --      0.0034                 2.0824                 0.0044

                     13                     14                     15
                      A                      A                      A
 Frequencies --    158.1902               170.0145               184.2751
 Red. masses --      1.3443                 3.6659                 3.3353
 Frc consts  --      0.0198                 0.0624                 0.0667
 IR Inten    --      5.7352                 0.5520                 0.5174

                     16                     17                     18
                      A                      A                      A
 Frequencies --    263.5340               270.5277               303.5580
 Red. masses --      1.9339                 2.5111                 2.6873
 Frc consts  --      0.0791                 0.1083                 0.1459
 IR Inten    --      0.0090                 5.2524                14.6002

                     19                     20                     21
                      A                      A                      A
 Frequencies --    311.0551               350.1225               371.4102
 Red. masses --      3.4075                 2.3372                 2.4135
 Frc consts  --      0.1942                 0.1688                 0.1962
 IR Inten    --      1.8825                 1.5591                 1.3659

                     22                     23                     24
                      A                      A                      A
 Frequencies --    385.0668               403.8421               427.6427
 Red. masses --      2.5181                 3.1998                 3.3752
 Frc consts  --      0.2200                 0.3075                 0.3637
 IR Inten    --      0.0488                 1.6854                 2.1391

                     25                     26                     27
                      A                      A                      A
 Frequencies --    463.1579               499.5127               531.8271
 Red. masses --      3.4967                 3.0426                 3.2245
 Frc consts  --      0.4419                 0.4473                 0.5373
 IR Inten    --     24.1146                 0.4956                 7.7207

                     28                     29                     30
                      A                      A                      A
 Frequencies --    560.4645               621.2700               739.4447
 Red. masses --      3.4428                 2.9590                 1.4172
 Frc consts  --      0.6372                 0.6729                 0.4566
 IR Inten    --      1.2651                 2.2073                 6.2234

                     31                     32                     33
                      A                      A                      A
 Frequencies --    758.5029               762.1763               807.3162
 Red. masses --      3.9156                 3.3481                 1.1932
 Frc consts  --      1.3273                 1.1459                 0.4582
 IR Inten    --      1.1825                 3.2933                 1.1385

                     34                     35                     36
                      A                      A                      A
 Frequencies --    810.0716               847.2102               890.7719
 Red. masses --      1.1694                 2.6710                 2.0467
 Frc consts  --      0.4521                 1.1296                 0.9568
 IR Inten    --      0.2395                 0.5201                 0.0488

                     37                     38                     39
                      A                      A                      A
 Frequencies --    948.3244               968.4161               972.3399
 Red. masses --      2.5378                 2.6779                 2.5796
 Frc consts  --      1.3447                 1.4797                 1.4370
 IR Inten    --     41.2247                10.2039                53.5989

                     40                     41                     42
                      A                      A                      A
 Frequencies --    988.7391               989.0296              1008.9398
 Red. masses --      1.5983                 1.5858                 1.7207
 Frc consts  --      0.9206                 0.9139                 1.0320
 IR Inten    --     13.6539                 9.3280                 7.1811

                     43                     44                     45
                      A                      A                      A
 Frequencies --   1016.5402              1037.8671              1039.2667
 Red. masses --      2.3019                 1.8155                 1.8516
 Frc consts  --      1.4015                 1.1522                 1.1783
 IR Inten    --     15.9185                15.2629                62.9220

                     46                     47                     48
                      A                      A                      A
 Frequencies --   1045.1256              1049.9643              1089.7844
 Red. masses --      1.9927                 2.0368                 1.9395
 Frc consts  --      1.2824                 1.3229                 1.3572
 IR Inten    --      3.0588                 3.6698                24.3989

                     49                     50                     51
                      A                      A                      A
 Frequencies --   1128.4060              1128.8071              1160.0363
 Red. masses --      2.6842                 2.4880                 3.1317
 Frc consts  --      2.0137                 1.8678                 2.4830
 IR Inten    --     19.6950               170.5711               165.2760

                     52                     53                     54
                      A                      A                      A
 Frequencies --   1165.0440              1206.6003              1215.0964
 Red. masses --      5.0279                 2.1393                 2.9808
 Frc consts  --      4.0209                 1.8350                 2.5931
 IR Inten    --    176.4534                67.2394                 0.0208

                     55                     56                     57
                      A                      A                      A
 Frequencies --   1235.3601              1246.7944              1254.4501
 Red. masses --      1.7140                 1.6142                 1.2804
 Frc consts  --      1.5412                 1.4785                 1.1872
 IR Inten    --     12.3189                12.9008                 0.0189

                     58                     59                     60
                      A                      A                      A
 Frequencies --   1264.3039              1293.7619              1300.8406
 Red. masses --      1.5070                 1.1952                 1.5191
 Frc consts  --      1.4193                 1.1787                 1.5146
 IR Inten    --     76.2117                 4.2711                43.8654

                     61                     62                     63
                      A                      A                      A
 Frequencies --   1301.2675              1329.1380              1333.8991
 Red. masses --      1.4642                 1.4764                 1.6572
 Frc consts  --      1.4607                 1.5367                 1.7373
 IR Inten    --     80.4101                 0.3735                34.3262

                     64                     65                     66
                      A                      A                      A
 Frequencies --   1339.4019              1354.1757              1354.6497
 Red. masses --      1.2020                 1.2199                 1.2227
 Frc consts  --      1.2705                 1.3180                 1.3219
 IR Inten    --      0.5608                90.3303                11.3470

                     67                     68                     69
                      A                      A                      A
 Frequencies --   1397.5484              1408.9989              1414.7765
 Red. masses --      1.2723                 1.5825                 1.2300
 Frc consts  --      1.4641                 1.8510                 1.4505
 IR Inten    --     38.1024                 3.3964                23.4651

                     70                     71                     72
                      A                      A                      A
 Frequencies --   1418.1205              1418.4903              1421.3842
 Red. masses --      1.2388                 1.2339                 1.2562
 Frc consts  --      1.4678                 1.4628                 1.4953
 IR Inten    --     12.6871                18.1528                31.5690

                     73                     74                     75
                      A                      A                      A
 Frequencies --   1449.3203              1452.1429              1500.7880
 Red. masses --      1.3126                 1.4395                 1.0734
 Frc consts  --      1.6245                 1.7885                 1.4244
 IR Inten    --      3.8237                 2.4286                 2.2434

                     76                     77                     78
                      A                      A                      A
 Frequencies --   1500.8126              1502.4709              1503.8497
 Red. masses --      1.0733                 1.0773                 1.0610
 Frc consts  --      1.4244                 1.4328                 1.4137
 IR Inten    --      0.7495                 2.3747                 9.7963

                     79                     80                     81
                      A                      A                      A
 Frequencies --   1504.0160              1513.5990              1518.1324
 Red. masses --      1.0610                 1.1044                 1.1080
 Frc consts  --      1.4141                 1.4908                 1.5045
 IR Inten    --      6.1126                 7.4072                 0.3937

                     82                     83                     84
                      A                      A                      A
 Frequencies --   1518.1987              1528.5554              1529.2020
 Red. masses --      1.1118                 1.0937                 1.0947
 Frc consts  --      1.5099                 1.5056                 1.5083
 IR Inten    --      1.1754                11.3556                 2.0674

                     85                     86                     87
                      A                      A                      A
 Frequencies --   1551.5617              1563.2387              2987.7616
 Red. masses --      1.0917                 1.0838                 1.0658
 Frc consts  --      1.5484                 1.5605                 5.6056
 IR Inten    --      9.7844                 9.6176                24.7032

                     88                     89                     90
                      A                      A                      A
 Frequencies --   2989.0576              2995.0892              3000.2540
 Red. masses --      1.0672                 1.0607                 1.0579
 Frc consts  --      5.6177                 5.6060                 5.6105
 IR Inten    --     28.2838                51.8383                47.4560

                     91                     92                     93
                      A                      A                      A
 Frequencies --   3022.0547              3027.0430              3028.9633
 Red. masses --      1.1021                 1.1032                 1.0411
 Frc consts  --      5.9305                 5.9557                 5.6275
 IR Inten    --     98.0834                 7.9527                12.2562

                     94                     95                     96
                      A                      A                      A
 Frequencies --   3028.9993              3059.8586              3061.1820
 Red. masses --      1.0423                 1.0634                 1.0640
 Frc consts  --      5.6345                 5.8663                 5.8743
 IR Inten    --      0.7970                15.9919                 6.9300

                     97                     98                     99
                      A                      A                      A
 Frequencies --   3062.0797              3069.7442              3076.7200
 Red. masses --      1.0650                 1.0637                 1.0978
 Frc consts  --      5.8835                 5.9056                 6.1226
 IR Inten    --     54.8224                51.7299                20.5465

                    100                    101                    102
                      A                      A                      A
 Frequencies --   3076.7555              3101.0236              3115.5412
 Red. masses --      1.0978                 1.1032                 1.1011
 Frc consts  --      6.1227                 6.2505                 6.2970
 IR Inten    --      3.1783                15.4095                50.8447

                    103                    104                    105
                      A                      A                      A
 Frequencies --   3116.7127              3116.7642              3137.9076
 Red. masses --      1.0921                 1.0926                 1.1019
 Frc consts  --      6.2502                 6.2534                 6.3926
 IR Inten    --      1.1958                 9.1773                 3.9706

                    106                    107                    108
                      A                      A                      A
 Frequencies --   3137.9291              3171.9200              3171.9415
 Red. masses --      1.1019                 1.0986                 1.0986
 Frc consts  --      6.3927                 6.5123                 6.5124
 IR Inten    --     25.6279                 3.4338                12.5698

 - Thermochemistry -
 -------------------
 Temperature   298.150 Kelvin.  Pressure   1.00000 Atm.
 Atom     1 has atomic number  6 and mass  12.00000

 Molecular mass:   262.10612 amu.
 Principal axes and moments of inertia in atomic units:
                           1         2         3
     Eigenvalues --  3155.61616********************
           X            0.99990  -0.00000   0.01438
           Y            0.00000   1.00000   0.00001
           Z           -0.01438  -0.00001   0.99990
 This molecule is an asymmetric top.
 Rotational symmetry number  1.
 Warning -- assumption of classical behavior for rotation
           may cause significant error
 Rotational temperatures (Kelvin)      0.02745     0.00569     0.00508
 Rotational constants (GHZ):           0.57191     0.11865     0.10591
 Zero-point vibrational energy     865232.6 (Joules/Mol)
                                  206.79556 (Kcal/Mol)
 Warning -- explicit consideration of  28 degrees of freedom as
           vibrations may cause significant error
 Vibrational temperatures:      9.52    23.24    24.84    44.50    57.90
          (Kelvin)             69.54    83.39   109.44   145.62   187.08
                              211.37   224.52   227.60   244.61   265.13
                              379.17   389.23   436.75   447.54   503.75
                              534.38   554.03   581.04   615.28   666.38
                              718.69   765.18   806.38   893.87  1063.90
                             1091.32  1096.60  1161.55  1165.51  1218.95
                             1281.62  1364.43  1393.33  1398.98  1422.58
                             1422.99  1451.64  1462.57  1493.26  1495.27
                             1503.70  1510.66  1567.96  1623.52  1624.10
                             1669.03  1676.24  1736.03  1748.25  1777.41
                             1793.86  1804.87  1819.05  1861.43  1871.62
                             1872.23  1912.33  1919.18  1927.10  1948.36
                             1949.04  2010.76  2027.24  2035.55  2040.36
                             2040.89  2045.05  2085.25  2089.31  2159.30
                             2159.33  2161.72  2163.70  2163.94  2177.73
                             2184.25  2184.35  2199.25  2200.18  2232.35
                             2249.15  4298.72  4300.59  4309.27  4316.70
                             4348.06  4355.24  4358.00  4358.05  4402.45
                             4404.36  4405.65  4416.68  4426.71  4426.76
                             4461.68  4482.57  4484.25  4484.33  4514.75
                             4514.78  4563.69  4563.72

 Zero-point correction=                           0.329550 (Hartree/Particle)
 Thermal correction to Energy=                    0.349520
 Thermal correction to Enthalpy=                  0.350465
 Thermal correction to Gibbs Free Energy=         0.273837
 Sum of electronic and zero-point Energies=          -1417.039335
 Sum of electronic and thermal Energies=             -1417.019364
 Sum of electronic and thermal Enthalpies=           -1417.018420
 Sum of electronic and thermal Free Energies=        -1417.095048

                     E (Thermal)             CV                S
                      KCal/Mol        Cal/Mol-Kelvin    Cal/Mol-Kelvin
 Total                  219.327             68.968            161.276
 Electronic               0.000              0.000              0.000
 Translational            0.889              2.981             42.590
 Rotational               0.889              2.981             35.057
 Vibrational            217.550             63.006             83.629
 Vibration     1          0.593              1.987              8.833
 Vibration     2          0.593              1.986              7.059
 Vibration     3          0.593              1.986              6.926
 Vibration     4          0.594              1.984              5.769
 Vibration     5          0.594              1.981              5.247
 Vibration     6          0.595              1.978              4.884
 Vibration     7          0.596              1.974              4.525
 Vibration     8          0.599              1.965              3.990
 Vibration     9          0.604              1.948              3.431
 Vibration    10          0.612              1.923              2.946
 Vibration    11          0.617              1.906              2.712
 Vibration    12          0.620              1.896              2.597
 Vibration    13          0.621              1.893              2.571
 Vibration    14          0.625              1.879              2.435
 Vibration    15          0.631              1.861              2.285
 Vibration    16          0.670              1.740              1.638
 Vibration    17          0.674              1.727              1.593
 Vibration    18          0.695              1.667              1.397
 Vibration    19          0.700              1.653              1.357
 Vibration    20          0.727              1.575              1.166
 Vibration    21          0.743              1.531              1.074
 Vibration    22          0.754              1.502              1.019
 Vibration    23          0.769              1.462              0.949
 Vibration    24          0.789              1.410              0.866
 Vibration    25          0.821              1.332              0.757
 Vibration    26          0.855              1.251              0.659
 Vibration    27          0.887              1.180              0.583
 Vibration    28          0.916              1.117              0.523

 Optimization completed.
    -- Stationary point found.
 Normal termination of Gaussian 16 at Fri Dec 11 01:41:20 2020.

 ----------------------------------------------------------------------
 # B3LYP/6-311++G(d,p) empiricaldispersion=gd3bj scf=xqc pop=npa geom=c
 heck
 ----------------------------------------------------------------------

 ---------------------------------------
 CID_149800039_JID_6935_Energie_neutraal
 ---------------------------------------
 Structure from the checkpoint file:  "JID_6935.chk"
 Charge =  0 Multiplicity = 1

 SCF Done:  E(RB3LYP) =  -1417.59997312     A.U. after   13 cycles
 Normal termination of Gaussian 16 at Fri Dec 11 01:46:19 2020.

 ----------------------------------------------------------------------
 # B3LYP/6-311++G(d,p) empiricaldispersion=gd3bj scf=xqc pop=npa geom=c
 heck
 ----------------------------------------------------------------------

 -------------------------------------
 CID_149800039_JID_6935_Energie_kation
 -------------------------------------
 Structure from the checkpoint file:  "JID_6935.chk"
 Charge =  1 Multiplicity = 2

 SCF Done:  E(UB3LYP) =  -1417.31866943     A.U. after   28 cycles
 Normal termination of Gaussian 16 at Fri Dec 11 02:00:36 2020.
 Gaussian 16:  ES64L-G16RevA.03 25-Dec-2016

 ----------------------------------------------------------------------
 # B3LYP/6-311++G(d,p) empiricaldispersion=gd3bj scf=xqc pop=npa geom=c
 heck
 ----------------------------------------------------------------------

 ------------------------------------
 CID_149800039_JID_6935_Energie_anion
 ------------------------------------
 Structure from the checkpoint file:  "JID_6935.chk"
 Charge = -1 Multiplicity = 2

                         Standard orientation:
 ---------------------------------------------------------------------
 Center     Atomic      Atomic             Coordinates (Angstroms)
 Number     Number       Type             X           Y           Z
 ---------------------------------------------------------------------
      1          6           0       -4.399868   -2.078073   -1.468502
      2          6           0       -4.734310   -1.126037   -0.353217
      3         16           0       -5.714290   -1.529292    0.896594
      4          6           0       -4.050614    0.214885   -0.424332
      5          6           0       -2.757114    0.197425    0.428056
      6          8           0       -2.055569    1.418553    0.375004
      7          6           0       -1.280082    1.606668   -0.802250
      8          6           0       -0.432130    2.859366   -0.634505
      9          6           0        0.432124    2.859377    0.634729
     10          6           0        1.280178    1.606734    0.802433
     11          8           0        2.055697    1.418742   -0.374827
     12          6           0        2.757112    0.197544   -0.428088
     13          6           0        4.050399    0.214551    0.424633
     14          6           0        4.734111   -1.126328    0.353052
     15         16           0        5.715012   -1.528730   -0.896310
     16          6           0        4.398801   -2.079158    1.467405
     17          1           0       -3.311303   -2.133747   -1.609135
     18          1           0       -4.811831   -1.692042   -2.411841
     19          1           0       -4.798350   -3.076806   -1.287565
     20          1           0       -3.794754    0.454846   -1.463349
     21          1           0       -4.699073    1.000686   -0.029852
     22          1           0       -3.033746    0.037572    1.473648
     23          1           0       -2.105795   -0.634378    0.112230
     24          1           0       -0.637015    0.727262   -0.966453
     25          1           0       -1.926500    1.708800   -1.687173
     26          1           0        0.209243    2.946017   -1.518139
     27          1           0       -1.087729    3.738052   -0.619107
     28          1           0        1.087663    3.738110    0.619352
     29          1           0       -0.209244    2.945967    1.518372
     30          1           0        1.926581    1.708888    1.687362
     31          1           0        0.637196    0.727259    0.966588
     32          1           0        2.105599   -0.634279   -0.112716
     33          1           0        3.033989    0.038030   -1.473667
     34          1           0        4.698956    1.000548    0.030706
     35          1           0        3.794268    0.453981    1.463709
     36          1           0        4.810115   -1.693843    2.411322
     37          1           0        3.310136   -2.134877    1.607225
     38          1           0        4.797361   -3.077780    1.286028
 ---------------------------------------------------------------------

 SCF Done:  E(UB3LYP) =  -1417.63854792     A.U. after   29 cycles

 The electronic state is 2-A.
 Alpha  occ. eigenvalues --  -88.68313 -88.68313 -19.03663 -19.03663 -10.13114
 Alpha  occ. eigenvalues --  -10.13114 -10.12379 -10.12378 -10.09356 -10.09356
 Alpha  occ. eigenvalues --  -10.08600 -10.08579 -10.07163 -10.07163 -10.06953
 Alpha  occ. eigenvalues --  -10.06953  -7.77084  -7.77083  -5.73317  -5.73317
 Alpha  occ. eigenvalues --   -5.73200  -5.73200  -5.72563  -5.72563  -0.95195
 Alpha  occ. eigenvalues --   -0.94997  -0.72628  -0.71846  -0.70921  -0.65883
 Alpha  occ. eigenvalues --   -0.63050  -0.61354  -0.58514  -0.58413  -0.56703
 Alpha  occ. eigenvalues --   -0.53206  -0.51609  -0.48099  -0.42690  -0.42432
 Alpha  occ. eigenvalues --   -0.40839  -0.40137  -0.39704  -0.38794  -0.37945
 Alpha  occ. eigenvalues --   -0.36121  -0.34051  -0.33391  -0.33310  -0.32897
 Alpha  occ. eigenvalues --   -0.32454  -0.31815  -0.30529  -0.30325  -0.29033
 Alpha  occ. eigenvalues --   -0.28827  -0.27310  -0.26837  -0.26043  -0.25480
 Alpha  occ. eigenvalues --   -0.25115  -0.23235  -0.22925  -0.22369  -0.22256
 Alpha  occ. eigenvalues --   -0.18477  -0.17845  -0.15908  -0.15726  -0.09419
 Alpha  occ. eigenvalues --   -0.09417   0.00832
 Alpha virt. eigenvalues --    0.01871   0.06589   0.07121   0.07355   0.08436
 Alpha virt. eigenvalues --    0.09143   0.09143   0.09842   0.10569   0.10761
 Alpha virt. eigenvalues --    0.11344   0.11422   0.11779   0.12021   0.12351

  Beta  occ. eigenvalues --  -88.68257 -88.68257 -19.03651 -19.03650 -10.13114
  Beta  occ. eigenvalues --  -10.13114 -10.12330 -10.12329 -10.08776 -10.08776
  Beta  occ. eigenvalues --  -10.08600 -10.08578 -10.07202 -10.07202 -10.06994
  Beta  occ. eigenvalues --  -10.06993  -7.77033  -7.77033  -5.73304  -5.73304
  Beta  occ. eigenvalues --   -5.73005  -5.73005  -5.72532  -5.72532  -0.95164
  Beta  occ. eigenvalues --   -0.94964  -0.72411  -0.71217  -0.70451  -0.65745
  Beta  occ. eigenvalues --   -0.62902  -0.61283  -0.58308  -0.58182  -0.56653
  Beta  occ. eigenvalues --   -0.53129  -0.51535  -0.48076  -0.42394  -0.42176
  Beta  occ. eigenvalues --   -0.40411  -0.40031  -0.39303  -0.38718  -0.37834
  Beta  occ. eigenvalues --   -0.35995  -0.33809  -0.33245  -0.33052  -0.32673
  Beta  occ. eigenvalues --   -0.32018  -0.31498  -0.30394  -0.30226  -0.28932
  Beta  occ. eigenvalues --   -0.28717  -0.27216  -0.26699  -0.25929  -0.25458
  Beta  occ. eigenvalues --   -0.25027  -0.22966  -0.22573  -0.22212  -0.22194
  Beta  occ. eigenvalues --   -0.18102  -0.17344  -0.14513  -0.14470  -0.09281
  Beta  occ. eigenvalues --   -0.09279
  Beta virt. eigenvalues --    0.06200   0.06234   0.06680   0.07230   0.07335
  Beta virt. eigenvalues --    0.08417   0.09135   0.09239   0.09813   0.10547
  Beta virt. eigenvalues --    0.10735   0.11322   0.11399   0.11796   0.11989

 Mulliken charges and spin densities:
               1          2
     1  C   -0.793132  -0.026461
     2  C    0.865367   0.297413
     3  S   -0.736236   0.171764
     4  C   -0.181672  -0.045063
     5  C   -0.395397   0.028608
     6  O   -0.038224   0.002888
     7  C   -0.337873  -0.001481
     8  C   -0.385085   0.001596
     9  C   -0.385122   0.001602
    10  C   -0.337771  -0.001488
    11  O   -0.038252   0.002888
    12  C   -0.395281   0.028635
    13  C   -0.181943  -0.045069
    14  C    0.865458   0.297401
    15  S   -0.736278   0.171758
    16  C   -0.793014  -0.026458
    17  H    0.128519   0.013938
    18  H    0.121658   0.036423
    19  H    0.122198  -0.000415
    20  H    0.113104  -0.003809
    21  H    0.147604   0.023972
    22  H    0.160561  -0.001558
    23  H    0.086267   0.000331
    24  H    0.171202  -0.000258
    25  H    0.124422   0.001603
    26  H    0.178184  -0.000208
    27  H    0.148464   0.000726
    28  H    0.148463   0.000725
    29  H    0.178185  -0.000207
    30  H    0.124486   0.001602
    31  H    0.171222  -0.000260
    32  H    0.086281   0.000324
    33  H    0.160578  -0.001559
    34  H    0.147632   0.023944
    35  H    0.113062  -0.003794
    36  H    0.121650   0.036428
    37  H    0.128506   0.013934
    38  H    0.122206  -0.000416
 Sum of Mulliken charges =  -1.00000   1.00000

 Dipole moment (field-independent basis, Debye):
    X=             -0.0016    Y=              5.2637    Z=             -0.0008  Tot=              5.2637
 Quadrupole moment (field-independent basis, Debye-Ang):
   XX=           -281.1964   YY=           -139.8428   ZZ=           -127.0008
   XY=             -0.0067   XZ=             27.9910   YZ=              0.0021

 Summary of Natural Population Analysis:

                                       Natural Population
                Natural  -----------------------------------------------
    Atom  No    Charge         Core      Valence    Rydberg      Total
 -----------------------------------------------------------------------
      C    1   -0.31794      0.99960     2.31241    0.00593     3.31794
      C    2    0.05873      0.99965     1.92585    0.01576     2.94127
      S    3   -0.04413      4.99944     3.02803    0.01666     8.04413
      C    4   -0.23671      0.99956     2.22693    0.01023     3.23671
      C    5    0.00690      0.99958     1.98296    0.01055     2.99310
      O    6   -0.30534      0.99988     3.29459    0.01088     4.30534
      C    7   -0.01079      0.99959     2.00087    0.01033     3.01079
      C    8   -0.19787      0.99963     2.19024    0.00801     3.19787
      C    9   -0.19787      0.99963     2.19024    0.00801     3.19787
      C   10   -0.01079      0.99959     2.00087    0.01033     3.01079
      O   11   -0.30534      0.99988     3.29458    0.01088     4.30534
      C   12    0.00690      0.99958     1.98296    0.01055     2.99310
      C   13   -0.23672      0.99956     2.22693    0.01023     3.23672
      C   14    0.05873      0.99965     1.92586    0.01576     2.94127
      S   15   -0.04412      4.99944     3.02803    0.01666     8.04412
      C   16   -0.31794      0.99960     2.31241    0.00593     3.31794
      H   17    0.10271      0.00000     0.39613    0.00116     0.39729
      H   18    0.10580      0.00000     0.39309    0.00111     0.39420
      H   19    0.10648      0.00000     0.39232    0.00120     0.39352
      H   20    0.09441      0.00000     0.40425    0.00135     0.40559
      H   21    0.10955      0.00000     0.38846    0.00200     0.39045
      H   22    0.09452      0.00000     0.40430    0.00119     0.40548
      H   23    0.07337      0.00000     0.42521    0.00142     0.42663
      H   24    0.08037      0.00000     0.41820    0.00143     0.41963
      H   25    0.07975      0.00000     0.41882    0.00143     0.42025
      H   26    0.10424      0.00000     0.39481    0.00094     0.39576
      H   27    0.09595      0.00000     0.40294    0.00110     0.40405
      H   28    0.09595      0.00000     0.40294    0.00110     0.40405
      H   29    0.10424      0.00000     0.39481    0.00094     0.39576
      H   30    0.07975      0.00000     0.41882    0.00143     0.42025
      H   31    0.08037      0.00000     0.41820    0.00143     0.41963
      H   32    0.07337      0.00000     0.42522    0.00142     0.42663
      H   33    0.09451      0.00000     0.40430    0.00119     0.40549
      H   34    0.10955      0.00000     0.38846    0.00200     0.39045
      H   35    0.09441      0.00000     0.40424    0.00135     0.40559
      H   36    0.10580      0.00000     0.39309    0.00111     0.39420
      H   37    0.10271      0.00000     0.39613    0.00116     0.39729
      H   38    0.10648      0.00000     0.39232    0.00120     0.39352
 =======================================================================
   * Total *    0.00000     23.99384    46.80084    0.20531    71.00000

 Normal termination of Gaussian 16 at Fri Dec 11 02:14:14 2020.
