 Gaussian 16, Revision A.03,

 -----------------------------------------------------------
 # opt freq B3LYP/6-31G(d) empiricaldispersion=gd3bj scf=xqc
 -----------------------------------------------------------

 ------------------------------
 CID_61320590_JID_7231_neutraal
 ------------------------------
 Symbolic Z-matrix:
 Charge =  0 Multiplicity = 1

 SCF Done:  E(RB3LYP) =  -857.912602030     A.U. after   14 cycles
 SCF Done:  E(RB3LYP) =  -857.897362923     A.U. after   15 cycles
 SCF Done:  E(RB3LYP) =  -857.917932966     A.U. after   13 cycles
 SCF Done:  E(RB3LYP) =  -857.917587027     A.U. after   13 cycles
 SCF Done:  E(RB3LYP) =  -857.919149792     A.U. after   13 cycles
 SCF Done:  E(RB3LYP) =  -857.919950979     A.U. after   12 cycles
 SCF Done:  E(RB3LYP) =  -857.919683312     A.U. after   13 cycles
 SCF Done:  E(RB3LYP) =  -857.920524451     A.U. after   12 cycles
 SCF Done:  E(RB3LYP) =  -857.920575868     A.U. after   12 cycles
 SCF Done:  E(RB3LYP) =  -857.920611749     A.U. after   11 cycles
 SCF Done:  E(RB3LYP) =  -857.920642740     A.U. after    9 cycles
 SCF Done:  E(RB3LYP) =  -857.920643992     A.U. after   10 cycles
 SCF Done:  E(RB3LYP) =  -857.920644773     A.U. after    8 cycles
 SCF Done:  E(RB3LYP) =  -857.920644917     A.U. after    7 cycles
 SCF Done:  E(RB3LYP) =  -857.920644924     A.U. after    7 cycles
 Optimization completed.
    -- Stationary point found.
 Normal termination of Gaussian 16 at Mon Dec 14 18:53:05 2020.

 --------------------------------------------------------------------
 #N Geom=AllCheck Guess=TCheck SCRF=Check GenChk RB3LYP/6-31G(d) Freq
 --------------------------------------------------------------------

 Structure from the checkpoint file:  "JID_7231.chk"
 ------------------------------
 CID_61320590_JID_7231_neutraal
 ------------------------------
 Charge =  0 Multiplicity = 1

 SCF Done:  E(RB3LYP) =  -857.920644924     A.U. after    1 cycles

  Exact polarizability: 151.184 -25.775 116.675   7.630   5.927 121.491
 Approx polarizability: 211.116 -41.048 172.358  21.494  16.787 215.654

                      1                      2                      3
                      A                      A                      A
 Frequencies --     24.6353                30.3654                39.7116
 Red. masses --      4.6746                 6.3901                 5.5664
 Frc consts  --      0.0017                 0.0035                 0.0052
 IR Inten    --      0.3533                 1.7754                 0.4393

                      4                      5                      6
                      A                      A                      A
 Frequencies --     54.7082                82.0788                98.8836
 Red. masses --      5.6601                 5.0045                 5.2031
 Frc consts  --      0.0100                 0.0199                 0.0300
 IR Inten    --      1.2499                 1.4824                 2.3929

                      7                      8                      9
                      A                      A                      A
 Frequencies --    135.5622               159.8781               179.9429
 Red. masses --      1.2955                 5.4001                 2.8354
 Frc consts  --      0.0140                 0.0813                 0.0541
 IR Inten    --      0.6191                 1.2303                 1.1785

                     10                     11                     12
                      A                      A                      A
 Frequencies --    215.5810               228.4678               241.6781
 Red. masses --      4.3894                 4.6637                 4.1224
 Frc consts  --      0.1202                 0.1434                 0.1419
 IR Inten    --      1.1113                10.1260                 1.8581

                     13                     14                     15
                      A                      A                      A
 Frequencies --    272.4390               307.8893               312.0898
 Red. masses --      4.1075                 1.0871                 3.2589
 Frc consts  --      0.1796                 0.0607                 0.1870
 IR Inten    --      5.9669                20.0362                 9.1400

                     16                     17                     18
                      A                      A                      A
 Frequencies --    334.5017               373.1846               404.8037
 Red. masses --      4.1299                 2.9570                 3.9681
 Frc consts  --      0.2723                 0.2426                 0.3831
 IR Inten    --     24.6186                 4.5100                 3.9578

                     19                     20                     21
                      A                      A                      A
 Frequencies --    461.1553               463.9220               507.4832
 Red. masses --      3.9547                 3.7941                 5.5715
 Frc consts  --      0.4955                 0.4811                 0.8454
 IR Inten    --     12.2740                 9.9451                11.4817

                     22                     23                     24
                      A                      A                      A
 Frequencies --    536.5258               579.2811               587.5422
 Red. masses --      6.0415                 3.1252                 2.9967
 Frc consts  --      1.0246                 0.6179                 0.6095
 IR Inten    --     29.6186                 6.6341                97.6803

                     25                     26                     27
                      A                      A                      A
 Frequencies --    592.2637               629.3216               647.3583
 Red. masses --      2.0534                 4.5095                 3.1089
 Frc consts  --      0.4244                 1.0523                 0.7676
 IR Inten    --    171.8435                 0.9602               125.4765

                     28                     29                     30
                      A                      A                      A
 Frequencies --    695.5198               698.8256               751.5391
 Red. masses --      3.8869                 2.5067                 5.4671
 Frc consts  --      1.1078                 0.7213                 1.8193
 IR Inten    --     16.5518                 7.4817                 6.4632

                     31                     32                     33
                      A                      A                      A
 Frequencies --    765.5796               770.9172               840.6934
 Red. masses --      3.9771                 1.5641                 1.5028
 Frc consts  --      1.3734                 0.5477                 0.6258
 IR Inten    --     50.6376                37.8657                12.4085

                     34                     35                     36
                      A                      A                      A
 Frequencies --    851.3947               858.2440               876.4720
 Red. masses --      1.6365                 4.0412                 4.2781
 Frc consts  --      0.6989                 1.7538                 1.9363
 IR Inten    --     38.5193                16.7800                20.7486

                     37                     38                     39
                      A                      A                      A
 Frequencies --    953.6011               956.6904              1014.2755
 Red. masses --      1.3216                 2.8735                 5.7307
 Frc consts  --      0.7081                 1.5496                 3.4735
 IR Inten    --      1.3084                 6.2349                 1.9285

                     40                     41                     42
                      A                      A                      A
 Frequencies --   1027.3611              1053.0545              1061.6021
 Red. masses --      2.4932                 3.9851                 3.6249
 Frc consts  --      1.5504                 2.6037                 2.4069
 IR Inten    --      7.0894                11.2352                30.3097

                     43                     44                     45
                      A                      A                      A
 Frequencies --   1088.8961              1094.9333              1117.6943
 Red. masses --      3.2219                 3.3650                 1.7685
 Frc consts  --      2.2508                 2.3769                 1.3017
 IR Inten    --     47.9750                49.1608                11.8916

                     46                     47                     48
                      A                      A                      A
 Frequencies --   1152.0058              1189.1966              1204.3076
 Red. masses --      1.3112                 1.2725                 1.5437
 Frc consts  --      1.0253                 1.0602                 1.3192
 IR Inten    --      5.8995                 1.3978               145.6797

                     49                     50                     51
                      A                      A                      A
 Frequencies --   1216.4947              1226.3536              1270.0917
 Red. masses --      1.5539                 1.4559                 2.5500
 Frc consts  --      1.3549                 1.2901                 2.4236
 IR Inten    --     51.1940                 1.4273               203.2034

                     52                     53                     54
                      A                      A                      A
 Frequencies --   1297.2092              1311.9975              1335.9703
 Red. masses --      1.2078                 1.5182                 4.0397
 Frc consts  --      1.1974                 1.5397                 4.2480
 IR Inten    --      6.5850                57.7461               278.6293

                     55                     56                     57
                      A                      A                      A
 Frequencies --   1342.8300              1356.8904              1383.6478
 Red. masses --      2.2486                 1.9160                 3.8918
 Frc consts  --      2.3890                 2.0784                 4.3899
 IR Inten    --    163.3006                10.5044                29.5602

                     58                     59                     60
                      A                      A                      A
 Frequencies --   1398.3509              1412.7048              1485.1564
 Red. masses --      1.4065                 1.5100                 1.1008
 Frc consts  --      1.6204                 1.7756                 1.4305
 IR Inten    --      3.1529                13.1348                13.1299

                     61                     62                     63
                      A                      A                      A
 Frequencies --   1497.7954              1514.9114              1515.7056
 Red. masses --      1.2189                 1.0584                 1.1007
 Frc consts  --      1.6112                 1.4311                 1.4898
 IR Inten    --      7.0134                 8.7553                 2.8523

                     64                     65                     66
                      A                      A                      A
 Frequencies --   1521.3752              1526.0348              1548.9844
 Red. masses --      1.0627                 2.7745                 2.5579
 Frc consts  --      1.4493                 3.8068                 3.6160
 IR Inten    --      6.0729                 9.7204               110.3547

                     67                     68                     69
                      A                      A                      A
 Frequencies --   1643.8291              1675.1904              1696.3392
 Red. masses --      5.6281                 3.1754                 1.3893
 Frc consts  --      8.9604                 5.2503                 2.3555
 IR Inten    --     58.8536               113.9059               173.1518

                     70                     71                     72
                      A                      A                      A
 Frequencies --   1831.6509              1838.1958              3080.2473
 Red. masses --     11.4083                11.4487                 1.0318
 Frc consts  --     22.5506                22.7924                 5.7681
 IR Inten    --    155.5239               267.1358                32.7526

                     73                     74                     75
                      A                      A                      A
 Frequencies --   3080.7800              3110.7024              3134.6927
 Red. masses --      1.0567                 1.0574                 1.1086
 Frc consts  --      5.9089                 6.0287                 6.4181
 IR Inten    --     20.1091                12.9905                 9.4491

                     76                     77                     78
                      A                      A                      A
 Frequencies --   3154.7100              3165.5234              3180.9257
 Red. masses --      1.1075                 1.1086                 1.0869
 Frc consts  --      6.4938                 6.5448                 6.4795
 IR Inten    --     15.7528                 1.5177                 9.8631

                     79                     80                     81
                      A                      A                      A
 Frequencies --   3198.8975              3202.6073              3209.2120
 Red. masses --      1.0935                 1.0910                 1.1060
 Frc consts  --      6.5929                 6.5927                 6.7109
 IR Inten    --     24.9055                 2.8726                 2.1416

                     82                     83                     84
                      A                      A                      A
 Frequencies --   3248.8977              3554.3899              3654.0306
 Red. masses --      1.0919                 1.0478                 1.0984
 Frc consts  --      6.7904                 7.7991                 8.6405
 IR Inten    --      0.6575                13.0774                 8.5469

 - Thermochemistry -
 -------------------
 Temperature   298.150 Kelvin.  Pressure   1.00000 Atm.
 Atom     1 has atomic number  6 and mass  12.00000

 Molecular mass:   239.07937 amu.
 Principal axes and moments of inertia in atomic units:
                           1         2         3
     Eigenvalues --  2520.432325178.812566364.19925
           X            0.99975  -0.02221  -0.00067
           Y            0.02221   0.99975   0.00284
           Z            0.00061  -0.00285   1.00000
 This molecule is an asymmetric top.
 Rotational symmetry number  1.
 Warning -- assumption of classical behavior for rotation
           may cause significant error
 Rotational temperatures (Kelvin)      0.03436     0.01672     0.01361
 Rotational constants (GHZ):           0.71604     0.34849     0.28358
 Zero-point vibrational energy     624136.0 (Joules/Mol)
                                  149.17207 (Kcal/Mol)
 Warning -- explicit consideration of  25 degrees of freedom as
           vibrations may cause significant error
 Vibrational temperatures:     35.44    43.69    57.14    78.71   118.09
          (Kelvin)            142.27   195.04   230.03   258.90   310.17
                              328.71   347.72   391.98   442.98   449.03
                              481.27   536.93   582.42   663.50   667.48
                              730.16   771.94   833.46   845.34   852.14
                              905.45   931.40  1000.70  1005.45  1081.30
                             1101.50  1109.18  1209.57  1224.97  1234.82
                             1261.05  1372.02  1376.46  1459.32  1478.14
                             1515.11  1527.41  1566.68  1575.36  1608.11
                             1657.48  1710.99  1732.73  1750.26  1764.45
                             1827.38  1866.39  1887.67  1922.16  1932.03
                             1952.26  1990.76  2011.92  2032.57  2136.81
                             2154.99  2179.62  2180.76  2188.92  2195.62
                             2228.64  2365.10  2410.23  2440.65  2635.34
                             2644.75  4431.79  4432.56  4475.61  4510.12
                             4538.92  4554.48  4576.64  4602.50  4607.84
                             4617.34  4674.44  5113.97  5257.34

 Zero-point correction=                           0.237721 (Hartree/Particle)
 Thermal correction to Energy=                    0.254199
 Thermal correction to Enthalpy=                  0.255143
 Thermal correction to Gibbs Free Energy=         0.191706
 Sum of electronic and zero-point Energies=           -857.682924
 Sum of electronic and thermal Energies=              -857.666446
 Sum of electronic and thermal Enthalpies=            -857.665502
 Sum of electronic and thermal Free Energies=         -857.728939

                     E (Thermal)             CV                S
                      KCal/Mol        Cal/Mol-Kelvin    Cal/Mol-Kelvin
 Total                  159.512             60.610            133.515
 Electronic               0.000              0.000              0.000
 Translational            0.889              2.981             42.316
 Rotational               0.889              2.981             32.785
 Vibrational            157.735             54.648             58.414
 Vibration     1          0.593              1.985              6.220
 Vibration     2          0.594              1.984              5.805
 Vibration     3          0.594              1.981              5.273
 Vibration     4          0.596              1.976              4.640
 Vibration     5          0.600              1.961              3.841
 Vibration     6          0.604              1.950              3.476
 Vibration     7          0.613              1.918              2.866
 Vibration     8          0.622              1.891              2.551
 Vibration     9          0.629              1.867              2.329
 Vibration    10          0.645              1.817              1.996
 Vibration    11          0.651              1.798              1.891
 Vibration    12          0.658              1.776              1.790
 Vibration    13          0.675              1.724              1.581
 Vibration    14          0.698              1.659              1.374
 Vibration    15          0.700              1.651              1.351
 Vibration    16          0.716              1.607              1.238
 Vibration    17          0.745              1.527              1.067
 Vibration    18          0.770              1.460              0.945
 Vibration    19          0.819              1.336              0.763
 Vibration    20          0.821              1.330              0.755
 Vibration    21          0.863              1.233              0.640
 Vibration    22          0.892              1.169              0.573
 Vibration    23          0.936              1.076              0.487
 Vibration    24          0.945              1.058              0.472
 Vibration    25          0.950              1.048              0.463

                           ! Non-Optimized Parameters !
 Normal termination of Gaussian 16 at Mon Dec 14 19:04:18 2020.

 ----------------------------------------------------------------------
 # B3LYP/6-311++G(d,p) empiricaldispersion=gd3bj scf=xqc pop=npa geom=c
 heck
 ----------------------------------------------------------------------

 --------------------------------------
 CID_61320590_JID_7231_Energie_neutraal
 --------------------------------------
 Structure from the checkpoint file:  "JID_7231.chk"
 Charge =  0 Multiplicity = 1

 SCF Done:  E(RB3LYP) =  -858.176630595     A.U. after   15 cycles
 Normal termination of Gaussian 16 at Mon Dec 14 19:09:17 2020.

 ----------------------------------------------------------------------
 # B3LYP/6-311++G(d,p) empiricaldispersion=gd3bj scf=xqc pop=npa geom=c
 heck
 ----------------------------------------------------------------------

 ------------------------------------
 CID_61320590_JID_7231_Energie_kation
 ------------------------------------
 Structure from the checkpoint file:  "JID_7231.chk"
 Charge =  1 Multiplicity = 2

 SCF Done:  E(UB3LYP) =  -857.890109212     A.U. after   24 cycles
 Normal termination of Gaussian 16 at Mon Dec 14 19:20:30 2020.
 Gaussian 16:  ES64L-G16RevA.03 25-Dec-2016

 ----------------------------------------------------------------------
 # B3LYP/6-311++G(d,p) empiricaldispersion=gd3bj scf=xqc pop=npa geom=c
 heck
 ----------------------------------------------------------------------

 -----------------------------------
 CID_61320590_JID_7231_Energie_anion
 -----------------------------------
 Structure from the checkpoint file:  "JID_7231.chk"
 Charge = -1 Multiplicity = 2

                         Standard orientation:
 ---------------------------------------------------------------------
 Center     Atomic      Atomic             Coordinates (Angstroms)
 Number     Number       Type             X           Y           Z
 ---------------------------------------------------------------------
      1          6           0        0.281367    2.446669    0.224678
      2          8           0        1.038165    1.319961   -0.251037
      3          6           0        2.366321    1.468821   -0.262611
      4          8           0        2.965646    2.475054    0.042563
      5          6           0        3.079774    0.211604   -0.746064
      6          8           0        2.205191   -0.906207   -0.911578
      7          6           0        1.805883   -1.497710    0.233606
      8          8           0        2.260484   -1.248458    1.327017
      9          6           0        0.711863   -2.525222   -0.044623
     10          8           0       -0.374608   -1.979034   -0.766418
     11          6           0       -1.210950   -1.102693   -0.116851
     12          6           0       -1.096683   -0.748706    1.231692
     13          6           0       -2.039162    0.136485    1.761636
     14          6           0       -3.064022    0.667096    0.987266
     15          6           0       -3.166926    0.310261   -0.370955
     16          6           0       -2.228960   -0.575352   -0.912978
     17          7           0       -4.224224    0.784055   -1.150129
     18          1           0       -0.758996    2.130131    0.183541
     19          1           0        0.462060    3.315754   -0.413037
     20          1           0        0.571684    2.686575    1.250295
     21          1           0        3.506584    0.404849   -1.732295
     22          1           0        3.881000   -0.015534   -0.039936
     23          1           0        1.117053   -3.314032   -0.684549
     24          1           0        0.399000   -2.960905    0.909294
     25          1           0       -0.291121   -1.114310    1.854261
     26          1           0       -1.960242    0.422383    2.806915
     27          1           0       -3.791152    1.346954    1.423335
     28          1           0       -2.281884   -0.876810   -1.954727
     29          1           0       -4.051028    0.788331   -2.147436
     30          1           0       -4.623439    1.660177   -0.837907
 ---------------------------------------------------------------------

 SCF Done:  E(UB3LYP) =  -858.166239008     A.U. after   33 cycles
 SCF Done:  E(UB3LYP) =  -858.166239008     a.u. after    1 cycles

 The electronic state is 2-A.
 Alpha  occ. eigenvalues --  -19.08408 -19.08125 -19.06061 -19.02772 -19.02307
 Alpha  occ. eigenvalues --  -14.20574 -10.21813 -10.20422 -10.16007 -10.15031
 Alpha  occ. eigenvalues --  -10.13331 -10.12304 -10.11007 -10.07324 -10.06076
 Alpha  occ. eigenvalues --  -10.05909 -10.05871  -1.03412  -1.01702  -0.97621
 Alpha  occ. eigenvalues --   -0.93872  -0.93650  -0.81130  -0.73688  -0.69784
 Alpha  occ. eigenvalues --   -0.66413  -0.63135  -0.62424  -0.60791  -0.52373
 Alpha  occ. eigenvalues --   -0.51217  -0.49803  -0.47574  -0.45274  -0.43210
 Alpha  occ. eigenvalues --   -0.42569  -0.41483  -0.39996  -0.39337  -0.39010
 Alpha  occ. eigenvalues --   -0.38399  -0.36831  -0.36578  -0.35453  -0.34393
 Alpha  occ. eigenvalues --   -0.32464  -0.32217  -0.31680  -0.30506  -0.29092
 Alpha  occ. eigenvalues --   -0.28189  -0.27437  -0.27017  -0.26664  -0.25326
 Alpha  occ. eigenvalues --   -0.24146  -0.23457  -0.22044  -0.20359  -0.19451
 Alpha  occ. eigenvalues --   -0.18920  -0.12945  -0.10503   0.04568
 Alpha virt. eigenvalues --    0.06171   0.06701   0.07647   0.07934   0.08297
 Alpha virt. eigenvalues --    0.08901   0.09384   0.09482   0.10192   0.10517
 Alpha virt. eigenvalues --    0.10998   0.11597   0.12293   0.12862   0.13020

  Beta  occ. eigenvalues --  -19.08379 -19.08125 -19.06026 -19.02761 -19.02199
  Beta  occ. eigenvalues --  -14.20496 -10.21796 -10.20243 -10.16005 -10.15040
  Beta  occ. eigenvalues --  -10.13331 -10.12281 -10.10984 -10.07305 -10.06075
  Beta  occ. eigenvalues --  -10.05895 -10.05854  -1.03327  -1.01626  -0.97550
  Beta  occ. eigenvalues --   -0.93838  -0.93506  -0.81037  -0.73637  -0.69689
  Beta  occ. eigenvalues --   -0.66372  -0.63065  -0.62357  -0.60744  -0.52240
  Beta  occ. eigenvalues --   -0.51156  -0.49728  -0.47532  -0.45172  -0.43121
  Beta  occ. eigenvalues --   -0.42484  -0.41397  -0.39870  -0.39258  -0.38931
  Beta  occ. eigenvalues --   -0.38334  -0.36726  -0.36486  -0.35410  -0.34193
  Beta  occ. eigenvalues --   -0.32422  -0.32089  -0.31624  -0.30351  -0.29024
  Beta  occ. eigenvalues --   -0.28112  -0.27386  -0.26942  -0.26618  -0.25260
  Beta  occ. eigenvalues --   -0.23944  -0.23315  -0.22003  -0.20289  -0.19384
  Beta  occ. eigenvalues --   -0.18833  -0.12887  -0.10427
  Beta virt. eigenvalues --    0.06629   0.07355   0.07683   0.08042   0.08328
  Beta virt. eigenvalues --    0.08717   0.09291   0.09750   0.09998   0.10406
  Beta virt. eigenvalues --    0.10620   0.11062   0.11900   0.12517   0.13074

 Mulliken charges and spin densities:
               1          2
     1  C    0.366954  -0.676929
     2  O   -0.041217   0.028099
     3  C    0.022480   0.107905
     4  O   -0.281902   0.011780
     5  C    0.034587  -0.260706
     6  O    0.015523   0.006666
     7  C   -0.129634   0.118391
     8  O   -0.202028   0.033023
     9  C   -0.287219  -0.084920
    10  O   -0.022646   0.002223
    11  C   -0.002794  -0.549381
    12  C    0.585539  -0.703945
    13  C   -0.379814   0.281738
    14  C    0.860523  -0.879729
    15  C    0.551600  -0.771229
    16  C   -0.791985   0.840356
    17  N   -0.258673  -0.049306
    18  H   -0.335407   0.520219
    19  H   -0.117757   0.295151
    20  H    0.048193   0.135462
    21  H    0.044761   0.148315
    22  H    0.214805   0.013076
    23  H    0.180305  -0.004231
    24  H    0.167137   0.033547
    25  H    0.218709  -0.061263
    26  H   -0.110959   0.285900
    27  H   -0.509269   0.668380
    28  H   -0.038167   0.199669
    29  H   -0.442938   0.698231
    30  H   -0.358710   0.613509
 Sum of Mulliken charges =  -1.00000   1.00000

 Dipole moment (field-independent basis, Debye):
    X=              8.5614    Y=             -6.6232    Z=              1.2176  Tot=             10.8926
 Quadrupole moment (field-independent basis, Debye-Ang):
   XX=           -180.6169   YY=           -137.2580   ZZ=           -131.4205
   XY=             10.7993   XZ=            -16.2910   YZ=              4.4708

 Summary of Natural Population Analysis:

                                       Natural Population
                Natural  -----------------------------------------------
    Atom  No    Charge         Core      Valence    Rydberg      Total
 -----------------------------------------------------------------------
      C    1   -0.10541      0.99958     2.09634    0.00949     3.10541
      O    2   -0.26645      0.99986     3.25746    0.00913     4.26645
      C    3    0.39991      0.99971     1.57667    0.02371     2.60009
      O    4   -0.30699      0.99987     3.30136    0.00576     4.30699
      C    5   -0.06173      0.99953     2.05021    0.01199     3.06173
      O    6   -0.27327      0.99986     3.26409    0.00932     4.27327
      C    7    0.41614      0.99972     1.55950    0.02464     2.58386
      O    8   -0.29657      0.99987     3.29098    0.00572     4.29657
      C    9   -0.05260      0.99953     2.04236    0.01071     3.05260
      O   10   -0.26719      0.99986     3.25893    0.00840     4.26719
      C   11    0.16724      0.99938     1.81925    0.01413     2.83276
      C   12   -0.17215      0.99951     2.16321    0.00943     3.17215
      C   13   -0.08393      0.99958     2.07427    0.01009     3.08393
      C   14   -0.14281      0.99951     2.13191    0.01139     3.14281
      C   15    0.09528      0.99950     1.89235    0.01287     2.90472
      C   16   -0.14623      0.99947     2.13547    0.01128     3.14623
      N   17   -0.39324      0.99971     2.88279    0.01073     3.89324
      H   18    0.10455      0.00000     0.39339    0.00206     0.39545
      H   19    0.09060      0.00000     0.40833    0.00107     0.40940
      H   20    0.09108      0.00000     0.40790    0.00102     0.40892
      H   21    0.10469      0.00000     0.39402    0.00129     0.39531
      H   22    0.10742      0.00000     0.39113    0.00145     0.39258
      H   23    0.10118      0.00000     0.39782    0.00100     0.39882
      H   24    0.09354      0.00000     0.40503    0.00143     0.40646
      H   25    0.10901      0.00000     0.38891    0.00209     0.39099
      H   26    0.09926      0.00000     0.39990    0.00083     0.40074
      H   27    0.10341      0.00000     0.39530    0.00129     0.39659
      H   28    0.10494      0.00000     0.39329    0.00178     0.39506
      H   29    0.18913      0.00000     0.30447    0.00640     0.31087
      H   30    0.19119      0.00000     0.29752    0.01129     0.30881
 =======================================================================
   * Total *    0.00000     16.99404    45.77418    0.23178    63.00000

 Normal termination of Gaussian 16 at Mon Dec 14 19:36:20 2020.
