 Gaussian 16, Revision A.03,

 -----------------------------------------------------------
 # opt freq B3LYP/6-31G(d) empiricaldispersion=gd3bj scf=xqc
 -----------------------------------------------------------

 ------------------------------
 CID_61879248_JID_1231_neutraal
 ------------------------------
 Symbolic Z-matrix:
 Charge =  0 Multiplicity = 1

 SCF Done:  E(RB3LYP) =  -463.288435583     A.U. after   15 cycles
 SCF Done:  E(RB3LYP) =  -463.311009781     A.U. after   13 cycles
 SCF Done:  E(RB3LYP) =  -463.309596363     A.U. after   13 cycles
 SCF Done:  E(RB3LYP) =  -463.312262919     A.U. after   12 cycles
 SCF Done:  E(RB3LYP) =  -463.312541687     A.U. after   12 cycles
 SCF Done:  E(RB3LYP) =  -463.312801526     A.U. after   12 cycles
 SCF Done:  E(RB3LYP) =  -463.312623612     A.U. after   12 cycles
 SCF Done:  E(RB3LYP) =  -463.313274058     A.U. after   11 cycles
 SCF Done:  E(RB3LYP) =  -463.313517871     A.U. after   11 cycles
 SCF Done:  E(RB3LYP) =  -463.313855550     A.U. after   13 cycles
 SCF Done:  E(RB3LYP) =  -463.315161863     A.U. after    8 cycles
 SCF Done:  E(RB3LYP) =  -463.315162288     A.U. after    8 cycles
 SCF Done:  E(RB3LYP) =  -463.315162599     A.U. after    8 cycles
 SCF Done:  E(RB3LYP) =  -463.315162796     A.U. after    8 cycles
 SCF Done:  E(RB3LYP) =  -463.315162951     A.U. after    8 cycles
 SCF Done:  E(RB3LYP) =  -463.315162994     A.U. after    7 cycles
 Optimization completed.
    -- Stationary point found.

 1\1\GINC-NODE201\FOpt\RB3LYP\6-31G(d)\C9H18N2\VSC10255\08-Dec-2020\0\\
 # opt freq B3LYP/6-31G(d) empiricaldispersion=gd3bj scf=xqc\\CID_61879
 248_JID_1231_neutraal\\0,1\C,1.3348918978,-0.2221280577,0.0639500059\C
 ,-0.0903621506,-0.7762851892,0.1126144788\C,-0.1427472013,-2.21186117,
 0.6498728311\N,0.4983718118,-2.398167357,1.9653498396\C,1.1914284003,-
 3.6858713455,1.991925652\C,2.3708403041,-3.6802655552,1.1117787472\N,3
 .2908815605,-3.6733383796,0.4050194888\C,-0.3298038247,-2.232681745,3.
 1842166159\C,0.5953611571,-1.9870655574,4.3892779264\C,-1.3389455995,-

 Normal termination of Gaussian 16 at Tue Dec  8 19:37:37 2020.

 --------------------------------------------------------------------
 #N Geom=AllCheck Guess=TCheck SCRF=Check GenChk RB3LYP/6-31G(d) Freq
 --------------------------------------------------------------------

 Structure from the checkpoint file:  "JID_1231.chk"
 ------------------------------
 CID_61879248_JID_1231_neutraal
 ------------------------------
 Charge =  0 Multiplicity = 1

 SCF Done:  E(RB3LYP) =  -463.315162994     A.U. after    1 cycles

  Exact polarizability: 121.112   3.099 103.049   1.791  -0.100  88.909
 Approx polarizability: 165.554   9.460 139.144   3.725   2.201 130.660

                      1                      2                      3
                      A                      A                      A
 Frequencies --     26.3870                55.5855                60.2886
 Red. masses --      3.3393                 3.2752                 2.5787
 Frc consts  --      0.0014                 0.0060                 0.0055
 IR Inten    --      1.0259                 2.4990                 2.2794

                      4                      5                      6
                      A                      A                      A
 Frequencies --     90.2802               129.3234               171.7398
 Red. masses --      3.2320                 2.1987                 2.4594
 Frc consts  --      0.0155                 0.0217                 0.0427
 IR Inten    --      2.3351                 0.3824                 2.1298

                      7                      8                      9
                      A                      A                      A
 Frequencies --    192.8066               200.3263               237.1271
 Red. masses --      1.4878                 1.0861                 1.2520
 Frc consts  --      0.0326                 0.0257                 0.0415
 IR Inten    --      0.6627                 0.2770                 0.2605

                     10                     11                     12
                      A                      A                      A
 Frequencies --    260.2306               281.2266               328.8176
 Red. masses --      2.5386                 2.2834                 2.9304
 Frc consts  --      0.1013                 0.1064                 0.1867
 IR Inten    --      0.4906                 0.2189                 1.4865

                     13                     14                     15
                      A                      A                      A
 Frequencies --    343.3734               374.1025               381.4361
 Red. masses --      2.8422                 2.7143                 2.7747
 Frc consts  --      0.1974                 0.2238                 0.2379
 IR Inten    --      6.3289                 0.3083                 0.1402

                     16                     17                     18
                      A                      A                      A
 Frequencies --    413.0295               450.2142               481.2597
 Red. masses --      2.7437                 2.2865                 2.5579
 Frc consts  --      0.2758                 0.2731                 0.3491
 IR Inten    --      0.4694                 2.8006                 0.8343

                     19                     20                     21
                      A                      A                      A
 Frequencies --    517.4894               602.7430               728.0053
 Red. masses --      2.8996                 3.1929                 1.8893
 Frc consts  --      0.4575                 0.6834                 0.5899
 IR Inten    --      2.7176                 0.4454                 5.4196

                     22                     23                     24
                      A                      A                      A
 Frequencies --    784.4494               830.0728               856.4962
 Red. masses --      1.2831                 1.4697                 2.3785
 Frc consts  --      0.4652                 0.5966                 1.0280
 IR Inten    --      4.8779                 2.3423                 4.7347

                     25                     26                     27
                      A                      A                      A
 Frequencies --    884.5669               932.8987               942.5295
 Red. masses --      1.8437                 1.6232                 3.0990
 Frc consts  --      0.8500                 0.8323                 1.6221
 IR Inten    --      5.9110                 0.7148                 2.2442

                     28                     29                     30
                      A                      A                      A
 Frequencies --    962.1743               986.2771              1031.7759
 Red. masses --      1.6939                 1.7086                 1.6732
 Frc consts  --      0.9240                 0.9793                 1.0495
 IR Inten    --      4.7470                20.1597                 8.3238

                     31                     32                     33
                      A                      A                      A
 Frequencies --   1054.8813              1059.9020              1081.8205
 Red. masses --      1.8353                 2.2660                 2.2077
 Frc consts  --      1.2033                 1.4998                 1.5223
 IR Inten    --      9.0998                 3.5585                30.8264

                     34                     35                     36
                      A                      A                      A
 Frequencies --   1107.1935              1118.4119              1143.8293
 Red. masses --      2.3595                 1.9596                 1.7660
 Frc consts  --      1.7042                 1.4442                 1.3613
 IR Inten    --     17.5352                 1.0802                 6.8176

                     37                     38                     39
                      A                      A                      A
 Frequencies --   1186.4266              1203.5191              1228.2957
 Red. masses --      2.1201                 2.1432                 2.5988
 Frc consts  --      1.7583                 1.8290                 2.3101
 IR Inten    --      6.5313                26.9212                15.4185

                     40                     41                     42
                      A                      A                      A
 Frequencies --   1294.5470              1316.4977              1321.9668
 Red. masses --      1.1747                 1.2334                 1.2183
 Frc consts  --      1.1599                 1.2595                 1.2544
 IR Inten    --      3.5795                 5.4927                 7.9021

                     43                     44                     45
                      A                      A                      A
 Frequencies --   1332.0905              1350.6233              1388.9968
 Red. masses --      1.3082                 1.2717                 1.3264
 Frc consts  --      1.3677                 1.3668                 1.5077
 IR Inten    --     20.4862                 2.4027                26.0026

                     46                     47                     48
                      A                      A                      A
 Frequencies --   1392.0659              1418.9529              1428.4155
 Red. masses --      1.3463                 1.3985                 1.3407
 Frc consts  --      1.5371                 1.6590                 1.6118
 IR Inten    --     12.2766                 4.1880                 3.4080

                     49                     50                     51
                      A                      A                      A
 Frequencies --   1439.2793              1445.3656              1447.8783
 Red. masses --      1.2587                 1.2217                 1.2292
 Frc consts  --      1.5362                 1.5037                 1.5183
 IR Inten    --      1.9871                 9.0445                11.5225

                     52                     53                     54
                      A                      A                      A
 Frequencies --   1458.8177              1504.9094              1506.5529
 Red. masses --      1.2643                 1.0744                 1.0788
 Frc consts  --      1.5853                 1.4336                 1.4427
 IR Inten    --      6.7047                 1.6325                 2.3007

                     55                     56                     57
                      A                      A                      A
 Frequencies --   1520.6635              1525.1615              1528.4898
 Red. masses --      1.0598                 1.0553                 1.0461
 Frc consts  --      1.4438                 1.4463                 1.4400
 IR Inten    --      3.4607                 0.9240                 3.9013

                     58                     59                     60
                      A                      A                      A
 Frequencies --   1531.7126              1534.4388              1540.0319
 Red. masses --      1.0636                 1.0587                 1.0516
 Frc consts  --      1.4702                 1.4687                 1.4694
 IR Inten    --      7.7452                 4.8595                12.3019

                     61                     62                     63
                      A                      A                      A
 Frequencies --   1543.4541              1553.2477              2373.4348
 Red. masses --      1.0749                 1.0662                12.6060
 Frc consts  --      1.5087                 1.5155                41.8392
 IR Inten    --      8.7156                 2.6991                 3.1112

                     64                     65                     66
                      A                      A                      A
 Frequencies --   2910.0784              2942.0782              3014.4960
 Red. masses --      1.0817                 1.0741                 1.0684
 Frc consts  --      5.3970                 5.4776                 5.7205
 IR Inten    --     57.9726                55.3269                43.3497

                     67                     68                     69
                      A                      A                      A
 Frequencies --   3045.2780              3052.7345              3055.0662
 Red. masses --      1.0694                 1.0545                 1.0455
 Frc consts  --      5.8432                 5.7898                 5.7493
 IR Inten    --     47.4751                17.5393                28.7254

                     70                     71                     72
                      A                      A                      A
 Frequencies --   3056.3460              3063.4163              3078.4286
 Red. masses --      1.0376                 1.0423                 1.0920
 Frc consts  --      5.7108                 5.7630                 6.0973
 IR Inten    --     16.0583                23.5348                 4.5580

                     73                     74                     75
                      A                      A                      A
 Frequencies --   3091.4332              3104.7120              3112.2372
 Red. masses --      1.0981                 1.0948                 1.1006
 Frc consts  --      6.1830                 6.2177                 6.2809
 IR Inten    --     35.0328                10.4814                29.3513

                     76                     77                     78
                      A                      A                      A
 Frequencies --   3123.3498              3127.1389              3131.0078
 Red. masses --      1.1001                 1.0964                 1.1011
 Frc consts  --      6.3231                 6.3169                 6.3596
 IR Inten    --     52.5689                30.1136                24.1826

                     79                     80                     81
                      A                      A                      A
 Frequencies --   3138.1113              3141.0895              3149.2715
 Red. masses --      1.1013                 1.0890                 1.0975
 Frc consts  --      6.3896                 6.3306                 6.4131
 IR Inten    --     33.0065                35.7290                35.6874

 - Thermochemistry -
 -------------------
 Temperature   298.150 Kelvin.  Pressure   1.00000 Atm.
 Atom     1 has atomic number  6 and mass  12.00000

 Molecular mass:   154.14700 amu.
 Principal axes and moments of inertia in atomic units:
                           1         2         3
     Eigenvalues --  1358.091592304.129363010.68184
           X            0.99963   0.02580   0.00823
           Y           -0.02576   0.99966  -0.00486
           Z           -0.00835   0.00465   0.99995
 This molecule is an asymmetric top.
 Rotational symmetry number  1.
 Warning -- assumption of classical behavior for rotation
           may cause significant error
 Rotational temperatures (Kelvin)      0.06378     0.03759     0.02877
 Rotational constants (GHZ):           1.32888     0.78326     0.59945
 Zero-point vibrational energy     692369.7 (Joules/Mol)
                                  165.48034 (Kcal/Mol)
 Warning -- explicit consideration of  20 degrees of freedom as
           vibrations may cause significant error
 Vibrational temperatures:     37.96    79.98    86.74   129.89   186.07
          (Kelvin)            247.10   277.41   288.22   341.17   374.41
                              404.62   473.10   494.04   538.25   548.80
                              594.26   647.76   692.43   744.55   867.21
                             1047.44  1128.65  1194.29  1232.31  1272.69
                             1342.23  1356.09  1384.35  1419.03  1484.50
                             1517.74  1524.96  1556.50  1593.00  1609.15
                             1645.72  1707.00  1731.60  1767.24  1862.56
                             1894.15  1902.02  1916.58  1943.25  1998.46
                             2002.87  2041.56  2055.17  2070.80  2079.56
                             2083.17  2098.91  2165.23  2167.59  2187.90
                             2194.37  2199.16  2203.79  2207.72  2215.76
                             2220.69  2234.78  3414.84  4186.95  4232.99
                             4337.19  4381.48  4392.20  4395.56  4397.40
                             4407.57  4429.17  4447.88  4466.99  4477.82
                             4493.80  4499.26  4504.82  4515.04  4519.33
                             4531.10

 Zero-point correction=                           0.263710 (Hartree/Particle)
 Thermal correction to Energy=                    0.277179
 Thermal correction to Enthalpy=                  0.278123
 Thermal correction to Gibbs Free Energy=         0.223215
 Sum of electronic and zero-point Energies=           -463.051453
 Sum of electronic and thermal Energies=              -463.037984
 Sum of electronic and thermal Enthalpies=            -463.037040
 Sum of electronic and thermal Free Energies=         -463.091948

                     E (Thermal)             CV                S
                      KCal/Mol        Cal/Mol-Kelvin    Cal/Mol-Kelvin
 Total                  173.932             48.812            115.564
 Electronic               0.000              0.000              0.000
 Translational            0.889              2.981             41.008
 Rotational               0.889              2.981             30.622
 Vibrational            172.155             42.850             43.934
 Vibration     1          0.593              1.985              6.084
 Vibration     2          0.596              1.975              4.608
 Vibration     3          0.597              1.973              4.448
 Vibration     4          0.602              1.956              3.654
 Vibration     5          0.612              1.924              2.956
 Vibration     6          0.626              1.877              2.416
 Vibration     7          0.635              1.850              2.201
 Vibration     8          0.638              1.839              2.130
 Vibration     9          0.656              1.784              1.824
 Vibration    10          0.668              1.745              1.660
 Vibration    11          0.681              1.708              1.526
 Vibration    12          0.712              1.618              1.266
 Vibration    13          0.722              1.589              1.196
 Vibration    14          0.745              1.525              1.063
 Vibration    15          0.751              1.510              1.033
 Vibration    16          0.777              1.442              0.916
 Vibration    17          0.809              1.360              0.795
 Vibration    18          0.838              1.292              0.707
 Vibration    19          0.872              1.211              0.616
 Vibration    20          0.961              1.026              0.445

                           ! Non-Optimized Parameters !

 1\1\GINC-NODE201\Freq\RB3LYP\6-31G(d)\C9H18N2\VSC10255\08-Dec-2020\0\\
 #N Geom=AllCheck Guess=TCheck SCRF=Check GenChk RB3LYP/6-31G(d) Freq\\
 CID_61879248_JID_1231_neutraal\\0,1\C,1.3348918978,-0.2221280577,0.063
 9500059\C,-0.0903621506,-0.7762851892,0.1126144788\C,-0.1427472013,-2.
 21186117,0.6498728311\N,0.4983718118,-2.398167357,1.9653498396\C,1.191
 4284003,-3.6858713455,1.991925652\C,2.3708403041,-3.6802655552,1.11177
 87472\N,3.2908815605,-3.6733383796,0.4050194888\C,-0.3298038247,-2.232
 681745,3.1842166159\C,0.5953611571,-1.9870655574,4.3892779264\C,-1.338

 Normal termination of Gaussian 16 at Tue Dec  8 19:44:10 2020.

 ----------------------------------------------------------------------
 # B3LYP/6-311++G(d,p) empiricaldispersion=gd3bj scf=xqc pop=npa geom=c
 heck
 ----------------------------------------------------------------------

 --------------------------------------
 CID_61879248_JID_1231_Energie_neutraal
 --------------------------------------
 Structure from the checkpoint file:  "JID_1231.chk"
 Charge =  0 Multiplicity = 1

 SCF Done:  E(RB3LYP) =  -463.446184256     A.U. after   13 cycles
 Normal termination of Gaussian 16 at Tue Dec  8 19:47:09 2020.

 ----------------------------------------------------------------------
 # B3LYP/6-311++G(d,p) empiricaldispersion=gd3bj scf=xqc pop=npa geom=c
 heck
 ----------------------------------------------------------------------

 ------------------------------------
 CID_61879248_JID_1231_Energie_kation
 ------------------------------------
 Structure from the checkpoint file:  "JID_1231.chk"
 Charge =  1 Multiplicity = 2

 SCF Done:  E(UB3LYP) =  -463.134663309     A.U. after   20 cycles
 Normal termination of Gaussian 16 at Tue Dec  8 19:53:35 2020.
 Gaussian 16:  ES64L-G16RevA.03 25-Dec-2016

 -----------------------------------
 CID_61879248_JID_1231_Energie_anion
 -----------------------------------
 Structure from the checkpoint file:  "JID_1231.chk"
 Charge = -1 Multiplicity = 2

                         Standard orientation:
 ---------------------------------------------------------------------
 Center     Atomic      Atomic             Coordinates (Angstroms)
 Number     Number       Type             X           Y           Z
 ---------------------------------------------------------------------
      1          6           0        0.994517    2.211559    1.206013
      2          6           0        0.016739    2.145273    0.031124
      3          6           0        0.235024    0.904408   -0.843448
      4          7           0        0.204640   -0.375512   -0.110572
      5          6           0        1.211919   -1.279140   -0.665603
      6          6           0        2.575427   -0.819836   -0.356427
      7          7           0        3.647602   -0.444097   -0.121282
      8          6           0       -1.094264   -1.076347    0.032866
      9          6           0       -0.997318   -2.078300    1.196963
     10          6           0       -2.307437   -0.164605    0.319726
     11          6           0       -2.969158    0.548284   -0.865653
     12          1           0        0.862947    1.346616    1.862352
     13          1           0        0.842358    3.123004    1.794225
     14          1           0        2.033232    2.200116    0.856523
     15          1           0       -1.012009    2.191327    0.400982
     16          1           0        0.145627    3.023154   -0.616752
     17          1           0       -0.451440    0.892452   -1.703434
     18          1           0        1.240262    1.001446   -1.267112
     19          1           0        1.101265   -2.277966   -0.239761
     20          1           0        1.127741   -1.396939   -1.763101
     21          1           0       -1.321167   -1.632790   -0.898989
     22          1           0       -0.880903   -1.534016    2.140102
     23          1           0       -1.909548   -2.681484    1.250959
     24          1           0       -0.157137   -2.772661    1.112050
     25          1           0       -3.067987   -0.819997    0.760292
     26          1           0       -2.041962    0.545746    1.110531
     27          1           0       -3.131890   -0.148274   -1.696785
     28          1           0       -3.948511    0.938037   -0.566292
     29          1           0       -2.389258    1.391718   -1.246186
 ---------------------------------------------------------------------

 SCF Done:  E(UB3LYP) =  -463.431557850     A.U. after   31 cycles

 The electronic state is 2-A.
 Alpha  occ. eigenvalues --  -14.21965 -14.21886 -10.13884 -10.11818 -10.10628
 Alpha  occ. eigenvalues --  -10.09824 -10.07158 -10.06836 -10.06084 -10.05932
 Alpha  occ. eigenvalues --  -10.05569  -0.84391  -0.81120  -0.69891  -0.68969
 Alpha  occ. eigenvalues --   -0.63473  -0.62620  -0.57088  -0.53089  -0.50382
 Alpha  occ. eigenvalues --   -0.46414  -0.42117  -0.40602  -0.38757  -0.36141
 Alpha  occ. eigenvalues --   -0.35451  -0.33559  -0.32791  -0.32269  -0.30827
 Alpha  occ. eigenvalues --   -0.30227  -0.27869  -0.27316  -0.26879  -0.25999
 Alpha  occ. eigenvalues --   -0.25415  -0.25087  -0.24309  -0.23942  -0.23748
 Alpha  occ. eigenvalues --   -0.22694  -0.22075  -0.13205   0.04636
 Alpha virt. eigenvalues --    0.06795   0.07271   0.07502   0.09307   0.09413
 Alpha virt. eigenvalues --    0.09831   0.10385   0.10622   0.10983   0.11905
 Alpha virt. eigenvalues --    0.12132   0.12747   0.12807   0.13132   0.13329

  Beta  occ. eigenvalues --  -14.21958 -14.21862 -10.13845 -10.11814 -10.10608
  Beta  occ. eigenvalues --  -10.09808 -10.07146 -10.06818 -10.06078 -10.05898
  Beta  occ. eigenvalues --  -10.05530  -0.84358  -0.81101  -0.69848  -0.68935
  Beta  occ. eigenvalues --   -0.63408  -0.62569  -0.57041  -0.52997  -0.50339
  Beta  occ. eigenvalues --   -0.46335  -0.42068  -0.40545  -0.38710  -0.36095
  Beta  occ. eigenvalues --   -0.35393  -0.33525  -0.32735  -0.32232  -0.30796
  Beta  occ. eigenvalues --   -0.30203  -0.27853  -0.27275  -0.26841  -0.25965
  Beta  occ. eigenvalues --   -0.25370  -0.25065  -0.24279  -0.23880  -0.23719
  Beta  occ. eigenvalues --   -0.22658  -0.22042  -0.13064
  Beta virt. eigenvalues --    0.06917   0.07687   0.08069   0.08199   0.09724
  Beta virt. eigenvalues --    0.10157   0.10306   0.10651   0.10960   0.11225
  Beta virt. eigenvalues --    0.12210   0.12515   0.13052   0.13320   0.13370

 Mulliken charges and spin densities:
               1          2
     1  C   -0.316282  -0.292407
     2  C    0.027730  -0.200403
     3  C   -0.114476  -0.224884
     4  N    0.280553   0.128116
     5  C    0.321573  -0.479128
     6  C    1.064319  -1.066131
     7  N   -0.349202   0.037173
     8  C   -0.303685  -0.006058
     9  C    1.422860  -1.925880
    10  C   -1.908929   1.799175
    11  C    1.440288  -2.014836
    12  H    0.184920  -0.016755
    13  H   -0.020058   0.152555
    14  H    0.126314   0.013863
    15  H    0.064267   0.070531
    16  H    0.005728   0.131153
    17  H   -0.067290   0.239158
    18  H    0.059063   0.091020
    19  H   -0.274529   0.430394
    20  H   -0.562585   0.748291
    21  H   -0.247230   0.409113
    22  H   -0.005282   0.161093
    23  H   -0.291790   0.432961
    24  H   -0.220417   0.325878
    25  H   -0.185572   0.369111
    26  H    0.045646   0.081302
    27  H   -0.419782   0.573173
    28  H   -0.632966   0.774858
    29  H   -0.123187   0.257564
 Sum of Mulliken charges =  -1.00000   1.00000

 Dipole moment (field-independent basis, Debye):
    X=              2.8978    Y=              3.5674    Z=              2.6795  Tot=              5.3201
 Quadrupole moment (field-independent basis, Debye-Ang):
   XX=           -145.8750   YY=           -115.9695   ZZ=           -106.9031
   XY=             -0.7970   XZ=             -4.8524   YZ=             -1.7340

 Summary of Natural Population Analysis:

                                       Natural Population
                Natural  -----------------------------------------------
    Atom  No    Charge         Core      Valence    Rydberg      Total
 -----------------------------------------------------------------------
      C    1   -0.28759      0.99966     2.28342    0.00451     3.28759
      C    2   -0.19354      0.99963     2.18671    0.00720     3.19354
      C    3   -0.08711      0.99960     2.07589    0.01161     3.08711
      N    4   -0.28292      0.99969     2.76830    0.01494     3.78292
      C    5   -0.14039      0.99951     2.12917    0.01171     3.14039
      C    6    0.16520      0.99965     1.81888    0.01626     2.83480
      N    7   -0.18801      0.99979     2.67740    0.01083     3.68801
      C    8   -0.00303      0.99958     1.98999    0.01346     3.00303
      C    9   -0.28228      0.99964     2.27591    0.00674     3.28228
      C   10   -0.19712      0.99961     2.18792    0.00958     3.19712
      C   11   -0.28526      0.99966     2.28013    0.00548     3.28526
      H   12    0.10359      0.00000     0.39521    0.00120     0.39641
      H   13    0.09418      0.00000     0.40505    0.00077     0.40582
      H   14    0.09870      0.00000     0.40039    0.00091     0.40130
      H   15    0.09582      0.00000     0.40261    0.00156     0.40418
      H   16    0.09391      0.00000     0.40511    0.00098     0.40609
      H   17    0.09435      0.00000     0.40415    0.00149     0.40565
      H   18    0.09540      0.00000     0.40303    0.00157     0.40460
      H   19    0.12135      0.00000     0.37643    0.00222     0.37865
      H   20    0.10715      0.00000     0.39021    0.00264     0.39285
      H   21    0.08404      0.00000     0.41216    0.00380     0.41596
      H   22    0.09855      0.00000     0.40014    0.00131     0.40145
      H   23    0.10238      0.00000     0.39633    0.00128     0.39762
      H   24    0.09638      0.00000     0.40242    0.00120     0.40362
      H   25    0.10310      0.00000     0.39549    0.00141     0.39690
      H   26    0.09660      0.00000     0.40204    0.00136     0.40340
      H   27    0.10126      0.00000     0.39681    0.00194     0.39874
      H   28    0.10080      0.00000     0.39778    0.00142     0.39920
      H   29    0.09448      0.00000     0.40412    0.00140     0.40552
 =======================================================================
   * Total *    0.00000     10.99602    31.86319    0.14079    43.00000

 Normal termination of Gaussian 16 at Tue Dec  8 20:03:06 2020.
