 Gaussian 16, Revision A.03,

 -----------------------------------------------------------
 # opt freq B3LYP/6-31G(d) empiricaldispersion=gd3bj scf=xqc
 -----------------------------------------------------------

 ------------------------------
 CID_80738140_JID_6821_neutraal
 ------------------------------
 Symbolic Z-matrix:
 Charge =  0 Multiplicity = 1

 SCF Done:  E(RB3LYP) =  -1423.54414768     A.U. after   16 cycles
 SCF Done:  E(RB3LYP) =  -1423.54952119     A.U. after   13 cycles
 SCF Done:  E(RB3LYP) =  -1423.55063241     A.U. after   15 cycles
 SCF Done:  E(RB3LYP) =  -1423.55113725     A.U. after   13 cycles
 SCF Done:  E(RB3LYP) =  -1423.55151239     A.U. after   12 cycles
 SCF Done:  E(RB3LYP) =  -1423.55176345     A.U. after   12 cycles
 SCF Done:  E(RB3LYP) =  -1423.55222698     A.U. after   13 cycles
 SCF Done:  E(RB3LYP) =  -1423.55351090     A.U. after   15 cycles
 SCF Done:  E(RB3LYP) =  -1423.55459591     A.U. after   13 cycles
 SCF Done:  E(RB3LYP) =  -1423.55420877     A.U. after   12 cycles
 SCF Done:  E(RB3LYP) =  -1423.55719881     A.U. after   11 cycles
 SCF Done:  E(RB3LYP) =  -1423.55720338     A.U. after   11 cycles
 SCF Done:  E(RB3LYP) =  -1423.55720449     A.U. after   10 cycles
 SCF Done:  E(RB3LYP) =  -1423.55720460     A.U. after    9 cycles
 SCF Done:  E(RB3LYP) =  -1423.55720460     A.U. after    7 cycles
 Optimization completed.
    -- Stationary point found.
 Normal termination of Gaussian 16 at Fri Dec 11 00:51:25 2020.

 --------------------------------------------------------------------
 #N Geom=AllCheck Guess=TCheck SCRF=Check GenChk RB3LYP/6-31G(d) Freq
 --------------------------------------------------------------------

 Structure from the checkpoint file:  "JID_6821.chk"
 ------------------------------
 CID_80738140_JID_6821_neutraal
 ------------------------------
 Charge =  0 Multiplicity = 1

 SCF Done:  E(RB3LYP) =  -1423.55720460     A.U. after    1 cycles

  Exact polarizability: 210.523   0.327 139.671  -8.429   4.013 132.086
 Approx polarizability: 317.925   7.500 227.673 -28.388  12.419 237.712

                      1                      2                      3
                      A                      A                      A
 Frequencies --     12.9210                22.4588                33.1455
 Red. masses --      6.4726                16.5300                 4.4179
 Frc consts  --      0.0006                 0.0049                 0.0029
 IR Inten    --      0.2844                 2.9728                 0.7639

                      4                      5                      6
                      A                      A                      A
 Frequencies --     59.1180               105.4127               181.2851
 Red. masses --      6.0982                 3.0321                 2.3630
 Frc consts  --      0.0126                 0.0199                 0.0458
 IR Inten    --      1.4191                 0.4255                 0.0180

                      7                      8                      9
                      A                      A                      A
 Frequencies --    187.2768               202.5569               221.6511
 Red. masses --      6.8270                 2.3036                 5.1717
 Frc consts  --      0.1411                 0.0557                 0.1497
 IR Inten    --      4.1217                 0.8926                 0.8168

                     10                     11                     12
                      A                      A                      A
 Frequencies --    231.9013               232.1869               247.3114
 Red. masses --      2.9629                 3.6557                 3.9894
 Frc consts  --      0.0939                 0.1161                 0.1438
 IR Inten    --      0.3571                 3.4369                 3.3255

                     13                     14                     15
                      A                      A                      A
 Frequencies --    283.3659               304.9955               362.4043
 Red. masses --      2.9955                 1.0696                 3.7419
 Frc consts  --      0.1417                 0.0586                 0.2896
 IR Inten    --      2.1929                21.3493                 2.5513

                     16                     17                     18
                      A                      A                      A
 Frequencies --    416.3393               446.6753               460.3142
 Red. masses --      9.2941                 5.5563                 5.1750
 Frc consts  --      0.9492                 0.6532                 0.6461
 IR Inten    --      8.6196                 0.8588                 3.9675

                     19                     20                     21
                      A                      A                      A
 Frequencies --    498.9856               525.3686               543.9086
 Red. masses --      4.5299                 7.8204                 5.2782
 Frc consts  --      0.6645                 1.2718                 0.9200
 IR Inten    --      1.5775                 1.0211                40.9184

                     22                     23                     24
                      A                      A                      A
 Frequencies --    573.9795               588.3920               606.9670
 Red. masses --      1.9963                 4.4125                 3.3394
 Frc consts  --      0.3875                 0.9001                 0.7249
 IR Inten    --    108.3435                22.2162                78.9246

                     25                     26                     27
                      A                      A                      A
 Frequencies --    610.0866               636.0463               638.8210
 Red. masses --     10.4898                 2.9827                 9.3930
 Frc consts  --      2.3004                 0.7109                 2.2585
 IR Inten    --     10.4925                86.5631                18.6273

                     28                     29                     30
                      A                      A                      A
 Frequencies --    693.4491               737.4517               798.6933
 Red. masses --      2.3157                10.3472                 1.2029
 Frc consts  --      0.6561                 3.3154                 0.4521
 IR Inten    --      5.3727                10.6516                17.9903

                     31                     32                     33
                      A                      A                      A
 Frequencies --    822.6958               829.5894               836.8444
 Red. masses --      1.1529                 1.5310                 1.4985
 Frc consts  --      0.4598                 0.6208                 0.6183
 IR Inten    --      2.1987                32.4033                16.1376

                     34                     35                     36
                      A                      A                      A
 Frequencies --    846.9797               853.1992               900.8230
 Red. masses --      1.4963                 3.8461                 4.8124
 Frc consts  --      0.6324                 1.6496                 2.3009
 IR Inten    --     12.2125                10.6567                12.7323

                     37                     38                     39
                      A                      A                      A
 Frequencies --    925.9606              1011.1256              1019.1598
 Red. masses --      3.0391                 5.8709                 3.3555
 Frc consts  --      1.5352                 3.5364                 2.0535
 IR Inten    --     15.3763                 8.4920                10.2730

                     40                     41                     42
                      A                      A                      A
 Frequencies --   1044.1022              1072.4494              1084.3987
 Red. masses --      7.0090                 8.9158                 2.9070
 Frc consts  --      4.5018                 6.0418                 2.0141
 IR Inten    --     10.0833                66.9443                55.9494

                     43                     44                     45
                      A                      A                      A
 Frequencies --   1120.0892              1131.5883              1151.5106
 Red. masses --      1.6542                 2.0375                 1.2850
 Frc consts  --      1.2227                 1.5372                 1.0039
 IR Inten    --      3.8219                52.4412                 1.2737

                     46                     47                     48
                      A                      A                      A
 Frequencies --   1202.8048              1231.9673              1263.3524
 Red. masses --      1.5858                 2.0441                 1.4375
 Frc consts  --      1.3518                 1.8279                 1.3518
 IR Inten    --     19.8603               225.8093                 0.1855

                     49                     50                     51
                      A                      A                      A
 Frequencies --   1307.8260              1333.4741              1352.5243
 Red. masses --      1.3304                 1.1597                 3.9115
 Frc consts  --      1.3407                 1.2149                 4.2158
 IR Inten    --      1.9465                16.0838               120.5278

                     52                     53                     54
                      A                      A                      A
 Frequencies --   1385.4825              1422.1859              1443.5797
 Red. masses --      4.0402                 1.3828                 1.3993
 Frc consts  --      4.5694                 1.6479                 1.7181
 IR Inten    --     40.1825                 2.7324                34.8698

                     55                     56                     57
                      A                      A                      A
 Frequencies --   1447.4767              1479.0443              1500.7264
 Red. masses --      6.4241                 8.2961                 3.6297
 Frc consts  --      7.9303                10.6927                 4.8164
 IR Inten    --    107.3828                13.6619                33.0417

                     58                     59                     60
                      A                      A                      A
 Frequencies --   1514.4882              1519.6142              1532.8730
 Red. masses --      1.5143                 1.5677                 1.0616
 Frc consts  --      2.0464                 2.1330                 1.4697
 IR Inten    --     33.1795                27.5541                 1.0833

                     61                     62                     63
                      A                      A                      A
 Frequencies --   1549.8401              1638.4899              1655.3545
 Red. masses --      1.1234                 6.0562                 4.8248
 Frc consts  --      1.5898                 9.5795                 7.7895
 IR Inten    --      7.6890               104.9713               236.5398

                     64                     65                     66
                      A                      A                      A
 Frequencies --   1695.9667              3047.8887              3062.7523
 Red. masses --      1.1948                 1.0683                 1.0363
 Frc consts  --      2.0248                 5.8471                 5.7272
 IR Inten    --    128.8016                43.4818                14.1415

                     67                     68                     69
                      A                      A                      A
 Frequencies --   3116.6142              3132.5144              3147.2601
 Red. masses --      1.0979                 1.1009                 1.1035
 Frc consts  --      6.2830                 6.3649                 6.4398
 IR Inten    --     13.0219                31.9377                37.6008

                     70                     71                     72
                      A                      A                      A
 Frequencies --   3208.7507              3219.3727              3240.2391
 Red. masses --      1.0911                 1.0892                 1.0919
 Frc consts  --      6.6191                 6.6511                 6.7543
 IR Inten    --      3.2937                11.6015                 0.6255

                     73                     74                     75
                      A                      A                      A
 Frequencies --   3260.0143              3558.6044              3657.9103
 Red. masses --      1.0943                 1.0478                 1.0986
 Frc consts  --      6.8520                 7.8182                 8.6609
 IR Inten    --      0.9470                19.4931                10.3262

 - Thermochemistry -
 -------------------
 Temperature   298.150 Kelvin.  Pressure   1.00000 Atm.
 Atom     1 has atomic number  6 and mass  12.00000

 Molecular mass:   253.03436 amu.
 Principal axes and moments of inertia in atomic units:
                           1         2         3
     Eigenvalues --  2505.278097509.246188053.69201
           X            0.99991   0.01283  -0.00484
           Y           -0.01265   0.99929   0.03542
           Z            0.00530  -0.03535   0.99936
 This molecule is an asymmetric top.
 Rotational symmetry number  1.
 Warning -- assumption of classical behavior for rotation
           may cause significant error
 Rotational temperatures (Kelvin)      0.03457     0.01153     0.01075
 Rotational constants (GHZ):           0.72038     0.24034     0.22409
 Zero-point vibrational energy     533791.5 (Joules/Mol)
                                  127.57924 (Kcal/Mol)
 Warning -- explicit consideration of  25 degrees of freedom as
           vibrations may cause significant error
 Vibrational temperatures:     18.59    32.31    47.69    85.06   151.67
          (Kelvin)            260.83   269.45   291.43   318.91   333.65
                              334.07   355.83   407.70   438.82   521.42
                              599.02   642.67   662.29   717.93   755.89
                              782.56   825.83   846.56   873.29   877.78
                              915.13   919.12   997.72  1061.03  1149.14
                             1183.68  1193.59  1204.03  1218.61  1227.56
                             1296.08  1332.25  1454.78  1466.34  1502.23
                             1543.02  1560.21  1611.56  1628.10  1656.77
                             1730.57  1772.53  1817.68  1881.67  1918.57
                             1945.98  1993.40  2046.21  2076.99  2082.60
                             2128.01  2159.21  2179.01  2186.39  2205.46
                             2229.87  2357.42  2381.69  2440.12  4385.23
                             4406.62  4484.11  4506.99  4528.21  4616.68
                             4631.96  4661.98  4690.43  5120.04  5262.92

 Zero-point correction=                           0.203310 (Hartree/Particle)
 Thermal correction to Energy=                    0.218802
 Thermal correction to Enthalpy=                  0.219747
 Thermal correction to Gibbs Free Energy=         0.157459
 Sum of electronic and zero-point Energies=          -1423.353894
 Sum of electronic and thermal Energies=             -1423.338402
 Sum of electronic and thermal Enthalpies=           -1423.337458
 Sum of electronic and thermal Free Energies=        -1423.399745

                     E (Thermal)             CV                S
                      KCal/Mol        Cal/Mol-Kelvin    Cal/Mol-Kelvin
 Total                  137.301             57.768            131.095
 Electronic               0.000              0.000              0.000
 Translational            0.889              2.981             42.485
 Rotational               0.889              2.981             33.382
 Vibrational            135.523             51.806             55.227
 Vibration     1          0.593              1.987              7.502
 Vibration     2          0.593              1.985              6.404
 Vibration     3          0.594              1.983              5.632
 Vibration     4          0.596              1.974              4.486
 Vibration     5          0.605              1.945              3.352
 Vibration     6          0.630              1.865              2.315
 Vibration     7          0.632              1.857              2.255
 Vibration     8          0.639              1.836              2.110
 Vibration     9          0.648              1.808              1.946
 Vibration    10          0.653              1.792              1.864
 Vibration    11          0.653              1.792              1.862
 Vibration    12          0.661              1.767              1.750
 Vibration    13          0.682              1.704              1.513
 Vibration    14          0.696              1.664              1.389
 Vibration    15          0.736              1.550              1.112
 Vibration    16          0.780              1.435              0.904
 Vibration    17          0.806              1.368              0.806
 Vibration    18          0.818              1.338              0.765
 Vibration    19          0.854              1.252              0.661
 Vibration    20          0.880              1.194              0.598
 Vibration    21          0.899              1.153              0.557
 Vibration    22          0.930              1.088              0.497
 Vibration    23          0.946              1.057              0.470
 Vibration    24          0.966              1.017              0.438
 Vibration    25          0.969              1.010              0.433

                           ! Non-Optimized Parameters !
 Normal termination of Gaussian 16 at Fri Dec 11 00:58:55 2020.

 ----------------------------------------------------------------------
 # B3LYP/6-311++G(d,p) empiricaldispersion=gd3bj scf=xqc pop=npa geom=c
 heck
 ----------------------------------------------------------------------

 --------------------------------------
 CID_80738140_JID_6821_Energie_neutraal
 --------------------------------------
 Structure from the checkpoint file:  "JID_6821.chk"
 Charge =  0 Multiplicity = 1

 SCF Done:  E(RB3LYP) =  -1423.78418677     A.U. after   18 cycles
 Normal termination of Gaussian 16 at Fri Dec 11 01:02:34 2020.

 ----------------------------------------------------------------------
 # B3LYP/6-311++G(d,p) empiricaldispersion=gd3bj scf=xqc pop=npa geom=c
 heck
 ----------------------------------------------------------------------

 ------------------------------------
 CID_80738140_JID_6821_Energie_kation
 ------------------------------------
 Structure from the checkpoint file:  "JID_6821.chk"
 Charge =  1 Multiplicity = 2

 SCF Done:  E(UB3LYP) =  -1423.49720474     A.U. after   28 cycles
 Normal termination of Gaussian 16 at Fri Dec 11 01:10:16 2020.
 Gaussian 16:  ES64L-G16RevA.03 25-Dec-2016

 ----------------------------------------------------------------------
 # B3LYP/6-311++G(d,p) empiricaldispersion=gd3bj scf=xqc pop=npa geom=c
 heck
 ----------------------------------------------------------------------

 -----------------------------------
 CID_80738140_JID_6821_Energie_anion
 -----------------------------------
 Structure from the checkpoint file:  "JID_6821.chk"
 Charge = -1 Multiplicity = 2

                         Standard orientation:
 ---------------------------------------------------------------------
 Center     Atomic      Atomic             Coordinates (Angstroms)
 Number     Number       Type             X           Y           Z
 ---------------------------------------------------------------------
      1          6           0       -4.086206   -2.081956    0.841810
      2          6           0       -4.189775   -1.352629   -0.492139
      3          8           0       -2.912257   -1.147878   -1.100448
      4          6           0       -2.091294   -0.166163   -0.635922
      5          6           0       -0.816607   -0.132957   -1.222155
      6          6           0        0.080864    0.849772   -0.816668
      7          6           0       -0.257091    1.806652    0.143730
      8          6           0       -1.529413    1.765960    0.729551
      9          6           0       -2.444551    0.773406    0.334802
     10          7           0       -1.872213    2.663747    1.738938
     11         16           0        1.712228    0.904954   -1.568371
     12          6           0        2.629962   -0.037144   -0.392838
     13          7           0        3.917536   -0.193001   -0.511758
     14          7           0        4.454143   -0.971453    0.484556
     15          6           0        3.558644   -1.381401    1.331702
     16         16           0        1.927085   -0.855486    1.001001
     17          1           0       -3.578110   -3.041526    0.706057
     18          1           0       -5.087275   -2.272869    1.244557
     19          1           0       -3.524124   -1.500228    1.578092
     20          1           0       -4.737368   -1.958768   -1.218378
     21          1           0       -4.720361   -0.396698   -0.395019
     22          1           0       -0.554047   -0.869939   -1.970845
     23          1           0        0.464038    2.561155    0.440056
     24          1           0       -3.420577    0.750912    0.805212
     25          1           0       -2.862755    2.845573    1.838738
     26          1           0       -1.331313    3.518982    1.752683
     27          1           0        3.797485   -2.001341    2.186969
 ---------------------------------------------------------------------

 SCF Done:  E(UB3LYP) =  -1423.78287094     A.U. after   33 cycles
 SCF Done:  E(UB3LYP) =  -1423.78287094     a.u. after    1 cycles

 The electronic state is 2-A.
 Alpha  occ. eigenvalues --  -88.78687 -88.77142 -19.06249 -14.24098 -14.23380
 Alpha  occ. eigenvalues --  -14.21960 -10.15414 -10.14546 -10.14106 -10.12857
 Alpha  occ. eigenvalues --  -10.12475 -10.11442 -10.08228 -10.07448 -10.07430
 Alpha  occ. eigenvalues --  -10.07282  -7.87306  -7.85713  -5.83576  -5.83245
 Alpha  occ. eigenvalues --   -5.82903  -5.82108  -5.81729  -5.81097  -0.97929
 Alpha  occ. eigenvalues --   -0.92646  -0.82615  -0.76479  -0.73723  -0.70916
 Alpha  occ. eigenvalues --   -0.69027  -0.67161  -0.63562  -0.61845  -0.56407
 Alpha  occ. eigenvalues --   -0.52424  -0.50982  -0.49245  -0.46137  -0.43991
 Alpha  occ. eigenvalues --   -0.42878  -0.39950  -0.39147  -0.38107  -0.37516
 Alpha  occ. eigenvalues --   -0.36105  -0.34908  -0.33799  -0.33450  -0.32058
 Alpha  occ. eigenvalues --   -0.31441  -0.30165  -0.29919  -0.28613  -0.27966
 Alpha  occ. eigenvalues --   -0.25605  -0.25141  -0.23822  -0.22010  -0.21579
 Alpha  occ. eigenvalues --   -0.19558  -0.19500  -0.16843  -0.14433  -0.13566
 Alpha  occ. eigenvalues --   -0.11477   0.03704
 Alpha virt. eigenvalues --    0.05193   0.06083   0.06540   0.07352   0.08093
 Alpha virt. eigenvalues --    0.08369   0.09250   0.09485   0.09566   0.10198
 Alpha virt. eigenvalues --    0.11032   0.11288   0.11634   0.12194   0.12241

  Beta  occ. eigenvalues --  -88.78662 -88.77141 -19.06244 -14.24075 -14.23382
  Beta  occ. eigenvalues --  -14.21886 -10.15228 -10.14550 -10.14084 -10.12707
  Beta  occ. eigenvalues --  -10.12456 -10.11417 -10.08213 -10.07421 -10.07407
  Beta  occ. eigenvalues --  -10.07253  -7.87284  -7.85711  -5.83566  -5.83236
  Beta  occ. eigenvalues --   -5.82820  -5.82109  -5.81731  -5.81089  -0.97917
  Beta  occ. eigenvalues --   -0.92537  -0.82529  -0.76385  -0.73573  -0.70772
  Beta  occ. eigenvalues --   -0.68972  -0.67091  -0.63501  -0.61774  -0.56359
  Beta  occ. eigenvalues --   -0.52242  -0.50879  -0.49138  -0.45978  -0.43932
  Beta  occ. eigenvalues --   -0.42817  -0.39893  -0.39036  -0.38040  -0.37432
  Beta  occ. eigenvalues --   -0.36060  -0.34832  -0.33528  -0.33195  -0.31902
  Beta  occ. eigenvalues --   -0.31408  -0.30093  -0.29868  -0.28571  -0.27904
  Beta  occ. eigenvalues --   -0.25541  -0.25091  -0.23783  -0.21625  -0.21349
  Beta  occ. eigenvalues --   -0.19421  -0.19173  -0.16767  -0.14288  -0.13312
  Beta  occ. eigenvalues --   -0.11337
  Beta virt. eigenvalues --    0.06122   0.06616   0.06780   0.07351   0.07468
  Beta virt. eigenvalues --    0.08416   0.08756   0.09408   0.09751   0.09865
  Beta virt. eigenvalues --    0.10349   0.11231   0.11545   0.11777   0.12224

 Mulliken charges and spin densities:
               1          2
     1  C    0.039111  -0.427123
     2  C    0.105743  -0.343935
     3  O   -0.112742   0.017587
     4  C   -0.700101   0.095597
     5  C   -1.134696   0.043603
     6  C    2.015520  -0.211573
     7  C    0.263822  -0.752270
     8  C   -0.208935  -0.273085
     9  C    0.356493   0.155191
    10  N   -0.185799  -0.107416
    11  S    0.487883  -0.207194
    12  C   -0.981207   0.109244
    13  N    0.026194   0.001919
    14  N   -0.148831   0.004129
    15  C   -0.233263   0.094239
    16  S    0.100967   0.094868
    17  H    0.123069   0.018970
    18  H   -0.141654   0.268290
    19  H    0.023077   0.118050
    20  H   -0.003978   0.182686
    21  H   -0.299392   0.450219
    22  H    0.185462  -0.006292
    23  H   -0.084134   0.251730
    24  H   -0.100598   0.297744
    25  H   -0.524490   0.787521
    26  H   -0.066961   0.321044
    27  H    0.199442   0.016256
 Sum of Mulliken charges =  -1.00000   1.00000

 Dipole moment (field-independent basis, Debye):
    X=              1.6606    Y=             -4.6179    Z=             -1.3257  Tot=              5.0833
 Quadrupole moment (field-independent basis, Debye-Ang):
   XX=           -206.3954   YY=           -142.4665   ZZ=           -134.6791
   XY=             15.9134   XZ=             16.3454   YZ=            -11.1351

 Summary of Natural Population Analysis:

                                       Natural Population
                Natural  -----------------------------------------------
    Atom  No    Charge         Core      Valence    Rydberg      Total
 -----------------------------------------------------------------------
      C    1   -0.30121      0.99966     2.29672    0.00482     3.30121
      C    2   -0.01289      0.99958     2.00120    0.01211     3.01289
      O    3   -0.27617      0.99986     3.26735    0.00897     4.27617
      C    4    0.17195      0.99939     1.81472    0.01394     2.82805
      C    5   -0.13775      0.99944     2.12674    0.01157     3.13775
      C    6   -0.08216      0.99940     2.06820    0.01456     3.08216
      C    7   -0.14095      0.99944     2.12991    0.01160     3.14095
      C    8    0.10154      0.99950     1.88719    0.01178     2.89846
      C    9   -0.15823      0.99948     2.14948    0.00928     3.15823
      N   10   -0.39087      0.99971     2.88097    0.01018     3.89087
      S   11    0.16519      4.99939     2.81301    0.02241     7.83481
      C   12   -0.04501      0.99961     2.02372    0.02168     3.04501
      N   13   -0.17160      0.99960     2.65480    0.01719     3.67160
      N   14   -0.14380      0.99968     2.62902    0.01510     3.64380
      C   15   -0.05141      0.99968     2.03575    0.01598     3.05141
      S   16    0.18850      4.99941     2.79211    0.01998     7.81150
      H   17    0.09940      0.00000     0.39976    0.00083     0.40060
      H   18    0.10204      0.00000     0.39698    0.00098     0.39796
      H   19    0.10476      0.00000     0.39422    0.00102     0.39524
      H   20    0.08959      0.00000     0.40934    0.00106     0.41041
      H   21    0.08816      0.00000     0.41004    0.00181     0.41184
      H   22    0.10952      0.00000     0.38925    0.00123     0.39048
      H   23    0.10554      0.00000     0.39303    0.00143     0.39446
      H   24    0.10724      0.00000     0.39063    0.00214     0.39276
      H   25    0.19315      0.00000     0.29507    0.01178     0.30685
      H   26    0.18706      0.00000     0.31004    0.00290     0.31294
      H   27    0.09843      0.00000     0.40035    0.00122     0.40157
 =======================================================================
   * Total *   -0.00000     23.99283    41.75960    0.24757    66.00000

 Normal termination of Gaussian 16 at Fri Dec 11 01:19:25 2020.
